Generated by CHARMM-GUI FF-Converter
44463
    1GLY      N    1   6.360   4.606   3.691
    1GLY    HT1    2   6.461   4.597   3.715
    1GLY    HT2    3   6.321   4.693   3.734
    1GLY    HT3    4   6.355   4.617   3.587
    1GLY     CA    5   6.289   4.487   3.735
    1GLY    HA1    6   6.288   4.486   3.842
    1GLY    HA2    7   6.340   4.404   3.689
    1GLY      C    8   6.144   4.484   3.689
    1GLY      O    9   6.092   4.584   3.639
    2PRO      N   10   6.064   4.373   3.711
    2PRO     CD   11   6.123   4.252   3.735
    2PRO    HD1   12   6.156   4.248   3.841
    2PRO    HD2   13   6.208   4.231   3.666
    2PRO     CA   14   5.921   4.369   3.679
    2PRO     HA   15   5.908   4.401   3.577
    2PRO     CB   16   5.884   4.222   3.702
    2PRO    HB1   17   5.818   4.184   3.622
    2PRO    HB2   18   5.830   4.210   3.800
    2PRO     CG   19   6.014   4.150   3.711
    2PRO    HG1   20   6.013   4.073   3.792
    2PRO    HG2   21   6.033   4.098   3.615
    2PRO      C   22   5.839   4.461   3.769
    2PRO      O   23   5.883   4.496   3.879
    3GLY      N   24   5.726   4.503   3.712
    3GLY     HN   25   5.696   4.466   3.624
    3GLY     CA   26   5.634   4.587   3.787
    3GLY    HA1   27   5.554   4.614   3.720
    3GLY    HA2   28   5.688   4.672   3.826
    3GLY      C   29   5.570   4.515   3.904
    3GLY      O   30   5.582   4.393   3.917
    4ASP      N   31   5.513   4.596   3.984
    4ASP     HN   32   5.529   4.694   3.988
    4ASP     CA   33   5.433   4.539   4.092
    4ASP     HA   34   5.501   4.474   4.145
    4ASP     CB   35   5.386   4.648   4.188
    4ASP    HB1   36   5.312   4.609   4.261
    4ASP    HB2   37   5.336   4.730   4.131
    4ASP     CG   38   5.499   4.708   4.270
    4ASP    OD1   39   5.604   4.642   4.284
    4ASP    OD2   40   5.482   4.821   4.320
    4ASP      C   41   5.313   4.462   4.036
    4ASP      O   42   5.256   4.501   3.934
    5PRO      N   43   5.273   4.362   4.093
    5PRO     CD   44   5.332   4.311   4.203
    5PRO    HD1   45   5.322   4.382   4.289
    5PRO    HD2   46   5.440   4.286   4.185
    5PRO     CA   47   5.149   4.297   4.049
    5PRO     HA   48   5.165   4.260   3.949
    5PRO     CB   49   5.130   4.185   4.152
    5PRO    HB1   50   5.113   4.087   4.102
    5PRO    HB2   51   5.044   4.204   4.220
    5PRO     CG   52   5.257   4.184   4.232
    5PRO    HG1   53   5.239   4.169   4.340
    5PRO    HG2   54   5.320   4.100   4.196
    5PRO      C   55   5.030   4.391   4.049
    5PRO      O   56   5.029   4.491   4.122
    6GLY      N   57   4.945   4.354   3.949
    6GLY     HN   58   4.954   4.269   3.899
    6GLY     CA   59   4.822   4.432   3.945
    6GLY    HA1   60   4.765   4.395   3.861
    6GLY    HA2   61   4.852   4.535   3.935
    6GLY      C   62   4.737   4.417   4.070
    6GLY      O   63   4.765   4.331   4.154
    7PRO      N   64   4.645   4.487   4.071
    7PRO     CD   65   4.606   4.591   3.972
    7PRO    HD1   66   4.596   4.549   3.869
    7PRO    HD2   67   4.680   4.674   3.975
    7PRO     CA   68   4.547   4.472   4.180
    7PRO     HA   69   4.597   4.467   4.276
    7PRO     CB   70   4.460   4.598   4.167
    7PRO    HB1   71   4.507   4.677   4.230
    7PRO    HB2   72   4.355   4.584   4.201
    7PRO     CG   73   4.473   4.638   4.024
    7PRO    HG1   74   4.392   4.587   3.966
    7PRO    HG2   75   4.458   4.748   4.012
    7PRO      C   76   4.463   4.346   4.166
    7PRO      O   77   4.455   4.288   4.057
    8GLY      N   78   4.402   4.307   4.276
    8GLY     HN   79   4.413   4.356   4.362
    8GLY     CA   80   4.315   4.190   4.272
    8GLY    HA1   81   4.292   4.164   4.374
    8GLY    HA2   82   4.364   4.110   4.219
    8GLY      C   83   4.182   4.217   4.203
    8GLY      O   84   4.150   4.332   4.172
    9ASP      N   85   4.111   4.110   4.182
    9ASP     HN   86   4.146   4.019   4.202
    9ASP     CA   87   3.976   4.116   4.127
    9ASP     HA   88   3.990   4.174   4.038
    9ASP     CB   89   3.926   3.976   4.092
    9ASP    HB1   90   3.817   3.972   4.069
    9ASP    HB2   91   3.943   3.909   4.178
    9ASP     CG   92   3.997   3.917   3.972
    9ASP    OD1   93   4.050   3.993   3.888
    9ASP    OD2   94   3.999   3.792   3.960
    9ASP      C   95   3.880   4.183   4.226
    9ASP      O   96   3.897   4.172   4.347
   10PRO      N   97   3.786   4.239   4.170
   10PRO     CD   98   3.761   4.251   4.040
   10PRO    HD1   99   3.733   4.152   3.996
   10PRO    HD2  100   3.847   4.296   3.984
   10PRO     CA  101   3.685   4.293   4.261
   10PRO     HA  102   3.732   4.363   4.329
   10PRO     CB  103   3.585   4.360   4.167
   10PRO    HB1  104   3.571   4.467   4.193
   10PRO    HB2  105   3.485   4.310   4.168
   10PRO     CG  106   3.645   4.345   4.031
   10PRO    HG1  107   3.570   4.311   3.957
   10PRO    HG2  108   3.683   4.445   3.997
   10PRO      C  109   3.617   4.185   4.345
   10PRO      O  110   3.618   4.068   4.308
   11GLY      N  111   3.575   4.226   4.471
   11GLY     HN  112   3.590   4.319   4.502
   11GLY     CA  113   3.504   4.132   4.556
   11GLY    HA1  114   3.482   4.185   4.647
   11GLY    HA2  115   3.570   4.048   4.568
   11GLY      C  116   3.373   4.085   4.496
   11GLY      O  117   3.329   4.136   4.392
   12PRO      N  118   3.304   3.998   4.552
   12PRO     CD  119   3.351   3.941   4.665
   12PRO    HD1  120   3.354   4.014   4.749
   12PRO    HD2  121   3.452   3.894   4.649
   12PRO     CA  122   3.171   3.953   4.511
   12PRO     HA  123   3.171   3.934   4.404
   12PRO     CB  124   3.149   3.826   4.594
   12PRO    HB1  125   3.167   3.738   4.527
   12PRO    HB2  126   3.047   3.816   4.637
   12PRO     CG  127   3.256   3.831   4.699
   12PRO    HG1  128   3.209   3.852   4.798
   12PRO    HG2  129   3.309   3.733   4.706
   12PRO      C  130   3.062   4.056   4.540
   12PRO      O  131   3.079   4.142   4.626
   13GLY      N  132   2.957   4.057   4.469
   13GLY     HN  133   2.946   3.985   4.401
   13GLY     CA  134   2.841   4.141   4.494
   13GLY    HA1  135   2.770   4.123   4.415
   13GLY    HA2  136   2.874   4.244   4.500
   13GLY      C  137   2.770   4.107   4.624
   13GLY      O  138   2.795   4.002   4.683
   14ASP      N  139   2.695   4.173   4.675
   14ASP     HN  140   2.676   4.261   4.634
   14ASP     CA  141   2.611   4.154   4.793
   14ASP     HA  142   2.679   4.123   4.871
   14ASP     CB  143   2.548   4.286   4.836
   14ASP    HB1  144   2.474   4.268   4.917
   14ASP    HB2  145   2.496   4.334   4.750
   14ASP     CG  146   2.649   4.384   4.893
   14ASP    OD1  147   2.754   4.341   4.944
   14ASP    OD2  148   2.623   4.506   4.886
   14ASP      C  149   2.503   4.049   4.767
   14ASP      O  150   2.453   4.038   4.655
   15PRO      N  151   2.499   3.939   4.857
   15PRO     CD  152   2.575   3.930   4.972
   15PRO    HD1  153   2.543   4.011   5.041
   15PRO    HD2  154   2.683   3.937   4.950
   15PRO     CA  155   2.397   3.834   4.840
   15PRO     HA  156   2.418   3.782   4.747
   15PRO     CB  157   2.412   3.749   4.966
   15PRO    HB1  158   2.412   3.641   4.942
   15PRO    HB2  159   2.329   3.770   5.037
   15PRO     CG  160   2.541   3.795   5.028
   15PRO    HG1  161   2.534   3.797   5.138
   15PRO    HG2  162   2.622   3.724   4.999
   15PRO      C  163   2.256   3.891   4.829
   15PRO    OT1  164   2.241   4.016   4.836
   15PRO    OT2  165   2.161   3.809   4.813
   16LIT    LIT  166   6.558   2.058   0.862
   17LIT    LIT  167   7.495   7.318   3.589
   18LIT    LIT  168   3.009   0.005   6.422
   19LIT    LIT  169   5.057   5.550   1.056
   20LIT    LIT  170   7.011   5.510   5.605
   21LIT    LIT  171   2.484   6.539   1.855
   22LIT    LIT  172   2.959   1.911   4.869
   23LIT    LIT  173   8.367   1.831   5.538
   24LIT    LIT  174   7.653   6.229   4.820
   25LIT    LIT  175   7.757   5.426   5.795
   26LIT    LIT  176   3.707   8.264   6.805
   27LIT    LIT  177   7.082   6.325   2.302
   28LIT    LIT  178  -0.080   3.372   3.729
   29LIT    LIT  179   2.076   2.722   1.177
   30LIT    LIT  180   1.288   2.205   4.266
   31LIT    LIT  181   5.632   6.650   1.646
   32LIT    LIT  182   4.536   1.878   6.262
   33LIT    LIT  183   3.629  -0.217   3.041
   34LIT    LIT  184   1.498   7.251   4.865
   35LIT    LIT  185   3.093   2.924   5.560
   36LIT    LIT  186   5.136   8.244   6.430
   37LIT    LIT  187   5.634   7.008   5.957
   38LIT    LIT  188   2.069   1.878   3.797
   39LIT    LIT  189   4.473   3.930   7.493
   40LIT    LIT  190   6.775   6.045   3.384
   41LIT    LIT  191   0.412   2.473   2.956
   42LIT    LIT  192   1.468   4.921   5.556
   43LIT    LIT  193   7.565   4.456   4.630
   44LIT    LIT  194   0.087   4.119   4.616
   45LIT    LIT  195   3.951   4.956   6.357
   46LIT    LIT  196   2.108   2.321   3.527
   47LIT    LIT  197   6.081   1.030   2.372
   48LIT    LIT  198   8.588   5.442   3.877
   49LIT    LIT  199   5.786   0.924   5.711
   50LIT    LIT  200   8.622   6.377   3.906
   51LIT    LIT  201   3.739   0.196   1.390
   52LIT    LIT  202   3.350   2.183   3.622
   53LIT    LIT  203   4.795   2.785   8.036
   54LIT    LIT  204   5.839   6.927   2.095
   55LIT    LIT  205   0.815   5.662   2.145
   56LIT    LIT  206   2.686   1.489   5.725
   57LIT    LIT  207   2.452   1.220   2.625
   58LIT    LIT  208   6.748   3.644   7.445
   59LIT    LIT  209   3.216   7.322   2.861
   60LIT    LIT  210   1.164   3.345   5.853
   61CLA    CLA  211   6.242   3.084   6.593
   62CLA    CLA  212   1.424   2.595   7.520
   63CLA    CLA  213   7.478   5.150   5.637
   64CLA    CLA  214   2.592   0.978   2.899
   65CLA    CLA  215   3.111   1.957   1.981
   66CLA    CLA  216   8.329   6.810   2.722
   67CLA    CLA  217   1.801   6.280   5.671
   68CLA    CLA  218   0.322   5.456   3.502
   69CLA    CLA  219   4.086   5.078   4.363
   70CLA    CLA  220   7.324   7.453   3.558
   71CLA    CLA  221   1.510   1.735   4.039
   72CLA    CLA  222   0.756   4.550   2.898
   73CLA    CLA  223   1.628   2.405   3.905
   74CLA    CLA  224   6.473   2.070   1.435
   75CLA    CLA  225   3.687   0.976   1.083
   76CLA    CLA  226   8.479   5.583   4.693
   77CLA    CLA  227   5.454   5.244   5.944
   78CLA    CLA  228   4.768   4.244   7.869
   79CLA    CLA  229   6.879   6.320   2.246
   80CLA    CLA  230   2.653   0.464   5.328
   81CLA    CLA  231   8.239   3.273   5.704
   82CLA    CLA  232   2.532   1.694   6.356
   83CLA    CLA  233   1.342   1.687   2.888
   84CLA    CLA  234   7.355   6.350   5.696
   85CLA    CLA  235   1.007   2.899   2.115
   86CLA    CLA  236   2.263   1.819   5.232
   87CLA    CLA  237   8.195   5.341   3.906
   88CLA    CLA  238   8.788   6.239   3.926
   89CLA    CLA  239   4.069   4.373   6.342
   90CLA    CLA  240   6.125   6.675   1.066
   91CLA    CLA  241   7.698   6.226   4.605
   92CLA    CLA  242   4.664   1.842   6.093
   93CLA    CLA  243   7.594   6.488   3.687
   94CLA    CLA  244   6.486   4.911   5.008
   95CLA    CLA  245   7.343   1.129   3.094
   96CLA    CLA  246   2.901   2.264   3.405
   97CLA    CLA  247   3.182   6.335   2.478
   98CLA    CLA  248   3.243   0.841   1.950
   99CLA    CLA  249   1.089   1.453   6.829
  100CLA    CLA  250   2.991   4.240   6.647
  101CLA    CLA  251   1.080   3.654   1.854
  102CLA    CLA  252   6.500   4.790   3.312
  103TIP3   OH2  253   3.290   0.370   2.253
  103TIP3    H1  254   3.273   0.275   2.265
  103TIP3    H2  255   3.204   0.407   2.283
  104TIP3   OH2  256   2.972   0.709   2.357
  104TIP3    H1  257   2.949   0.728   2.263
  104TIP3    H2  258   3.053   0.763   2.368
  105TIP3   OH2  259   3.277   0.053   2.260
  105TIP3    H1  260   3.183   0.080   2.260
  105TIP3    H2  261   3.284   0.024   2.167
  106TIP3   OH2  262   2.734   0.263   2.510
  106TIP3    H1  263   2.719   0.209   2.590
  106TIP3    H2  264   2.796   0.330   2.544
  107TIP3   OH2  265   3.089   0.488   2.040
  107TIP3    H1  266   3.074   0.434   1.961
  107TIP3    H2  267   3.184   0.479   2.055
  108TIP3   OH2  268   3.157   0.167   2.576
  108TIP3    H1  269   3.082   0.176   2.639
  108TIP3    H2  270   3.194   0.257   2.578
  109TIP3   OH2  271   3.191  -0.163   2.421
  109TIP3    H1  272   3.257  -0.234   2.406
  109TIP3    H2  273   3.213  -0.098   2.353
  110TIP3   OH2  274   3.367  -0.367   2.422
  110TIP3    H1  275   3.329  -0.447   2.465
  110TIP3    H2  276   3.462  -0.380   2.439
  111TIP3   OH2  277   2.553   0.643   2.292
  111TIP3    H1  278   2.590   0.555   2.277
  111TIP3    H2  279   2.614   0.680   2.359
  112TIP3   OH2  280   3.036   0.443   2.347
  112TIP3    H1  281   2.968   0.419   2.283
  112TIP3    H2  282   3.023   0.540   2.349
  113TIP3   OH2  283   4.229  -0.184   1.485
  113TIP3    H1  284   4.278  -0.202   1.568
  113TIP3    H2  285   4.205  -0.273   1.456
  114TIP3   OH2  286   4.502   0.128   1.195
  114TIP3    H1  287   4.528   0.072   1.270
  114TIP3    H2  288   4.531   0.215   1.230
  115TIP3   OH2  289   4.175   0.588   1.176
  115TIP3    H1  290   4.229   0.518   1.134
  115TIP3    H2  291   4.178   0.565   1.269
  116TIP3   OH2  292   4.089   0.044   1.543
  116TIP3    H1  293   4.134  -0.035   1.507
  116TIP3    H2  294   4.168   0.101   1.556
  117TIP3   OH2  295   3.947  -0.030   1.759
  117TIP3    H1  296   3.887   0.037   1.797
  117TIP3    H2  297   4.000   0.023   1.695
  118TIP3   OH2  298   3.761   0.160   1.824
  118TIP3    H1  299   3.751   0.257   1.810
  118TIP3    H2  300   3.692   0.149   1.894
  119TIP3   OH2  301   4.607   0.365   1.323
  119TIP3    H1  302   4.521   0.361   1.370
  119TIP3    H2  303   4.601   0.452   1.280
  120TIP3   OH2  304   4.309   0.399   1.029
  120TIP3    H1  305   4.372   0.330   1.006
  120TIP3    H2  306   4.343   0.472   0.972
  121TIP3   OH2  307   4.832   0.311   1.707
  121TIP3    H1  308   4.827   0.232   1.648
  121TIP3    H2  309   4.811   0.383   1.643
  122TIP3   OH2  310   4.725  -0.213   1.845
  122TIP3    H1  311   4.702  -0.128   1.888
  122TIP3    H2  312   4.671  -0.210   1.765
  123TIP3   OH2  313   4.376   0.362   1.456
  123TIP3    H1  314   4.353   0.447   1.498
  123TIP3    H2  315   4.345   0.295   1.520
  124TIP3   OH2  316   3.977   0.274   2.000
  124TIP3    H1  317   3.919   0.340   2.045
  124TIP3    H2  318   3.912   0.228   1.945
  125TIP3   OH2  319   3.721  -0.151   2.086
  125TIP3    H1  320   3.734  -0.071   2.141
  125TIP3    H2  321   3.625  -0.155   2.084
  126TIP3   OH2  322   4.078   0.262   1.137
  126TIP3    H1  323   4.159   0.312   1.119
  126TIP3    H2  324   4.015   0.306   1.077
  127TIP3   OH2  325   3.776   0.441   2.089
  127TIP3    H1  326   3.740   0.454   1.999
  127TIP3    H2  327   3.696   0.417   2.141
  128TIP3   OH2  328   5.066   0.626   1.720
  128TIP3    H1  329   5.069   0.530   1.741
  128TIP3    H2  330   4.984   0.652   1.768
  129TIP3   OH2  331   4.179   0.407   1.861
  129TIP3    H1  332   4.174   0.501   1.890
  129TIP3    H2  333   4.103   0.369   1.910
  130TIP3   OH2  334   4.222   0.479   0.765
  130TIP3    H1  335   4.141   0.471   0.711
  130TIP3    H2  336   4.271   0.396   0.746
  131TIP3   OH2  337   4.961  -0.262   1.990
  131TIP3    H1  338   4.880  -0.236   1.942
  131TIP3    H2  339   4.968  -0.356   1.969
  132TIP3   OH2  340   3.577   0.154   2.023
  132TIP3    H1  341   3.614   0.154   2.114
  132TIP3    H2  342   3.486   0.126   2.036
  133TIP3   OH2  343   4.706  -0.475   1.931
  133TIP3    H1  344   4.703  -0.444   2.022
  133TIP3    H2  345   4.709  -0.390   1.882
  134TIP3   OH2  346   4.445  -0.219   2.137
  134TIP3    H1  347   4.420  -0.303   2.183
  134TIP3    H2  348   4.539  -0.214   2.161
  135TIP3   OH2  349   4.399  -0.253   1.704
  135TIP3    H1  350   4.475  -0.297   1.662
  135TIP3    H2  351   4.393  -0.303   1.789
  136TIP3   OH2  352   4.765   0.973   1.822
  136TIP3    H1  353   4.760   1.000   1.728
  136TIP3    H2  354   4.842   1.024   1.853
  137TIP3   OH2  355   3.723   0.072   2.253
  137TIP3    H1  356   3.803   0.109   2.298
  137TIP3    H2  357   3.656   0.087   2.323
  138TIP3   OH2  358   4.145  -0.586   1.858
  138TIP3    H1  359   4.101  -0.565   1.773
  138TIP3    H2  360   4.214  -0.519   1.862
  139TIP3   OH2  361   4.806   0.106   1.536
  139TIP3    H1  362   4.846   0.157   1.462
  139TIP3    H2  363   4.713   0.095   1.505
  140TIP3   OH2  364   4.288   0.146   1.879
  140TIP3    H1  365   4.320   0.127   1.968
  140TIP3    H2  366   4.257   0.238   1.887
  141TIP3   OH2  367   4.196  -0.117   2.194
  141TIP3    H1  368   4.141  -0.160   2.126
  141TIP3    H2  369   4.286  -0.143   2.165
  142TIP3   OH2  370   4.452   0.393   1.782
  142TIP3    H1  371   4.356   0.402   1.792
  142TIP3    H2  372   4.483   0.452   1.855
  143TIP3   OH2  373   5.089   0.342   1.777
  143TIP3    H1  374   4.991   0.338   1.769
  143TIP3    H2  375   5.117   0.313   1.687
  144TIP3   OH2  376   4.572  -0.004   1.444
  144TIP3    H1  377   4.488  -0.030   1.485
  144TIP3    H2  378   4.614  -0.089   1.429
  145TIP3   OH2  379   3.973   0.486   1.651
  145TIP3    H1  380   3.997   0.560   1.591
  145TIP3    H2  381   4.057   0.467   1.693
  146TIP3   OH2  382   4.347   0.124   1.616
  146TIP3    H1  383   4.323   0.123   1.711
  146TIP3    H2  384   4.443   0.125   1.622
  147TIP3   OH2  385   4.593   0.660   1.655
  147TIP3    H1  386   4.510   0.610   1.645
  147TIP3    H2  387   4.581   0.728   1.584
  148TIP3   OH2  388   3.453   0.362   1.772
  148TIP3    H1  389   3.440   0.302   1.847
  148TIP3    H2  390   3.457   0.449   1.816
  149TIP3   OH2  391   4.380  -0.414   1.928
  149TIP3    H1  392   4.361  -0.347   1.995
  149TIP3    H2  393   4.425  -0.480   1.983
  150TIP3   OH2  394   4.618   0.630   1.251
  150TIP3    H1  395   4.575   0.682   1.179
  150TIP3    H2  396   4.712   0.652   1.233
  151TIP3   OH2  397   3.384   0.654   2.250
  151TIP3    H1  398   3.475   0.665   2.287
  151TIP3    H2  399   3.373   0.558   2.245
  152TIP3   OH2  400   3.868   0.622   2.283
  152TIP3    H1  401   3.964   0.613   2.281
  152TIP3    H2  402   3.842   0.563   2.210
  153TIP3   OH2  403   4.509   0.536   2.010
  153TIP3    H1  404   4.501   0.468   2.081
  153TIP3    H2  405   4.584   0.590   2.041
  154TIP3   OH2  406   3.510   0.066   2.432
  154TIP3    H1  407   3.525  -0.030   2.435
  154TIP3    H2  408   3.424   0.071   2.386
  155TIP3   OH2  409   4.124   0.160   2.207
  155TIP3    H1  410   4.083   0.181   2.121
  155TIP3    H2  411   4.153   0.067   2.195
  156TIP3   OH2  412   4.613   0.171   1.806
  156TIP3    H1  413   4.690   0.226   1.780
  156TIP3    H2  414   4.543   0.239   1.801
  157TIP3   OH2  415   3.636  -0.205   2.430
  157TIP3    H1  416   3.718  -0.225   2.382
  157TIP3    H2  417   3.671  -0.158   2.509
  158TIP3   OH2  418   3.961  -0.281   2.071
  158TIP3    H1  419   3.877  -0.231   2.065
  158TIP3    H2  420   4.012  -0.249   1.993
  159TIP3   OH2  421   4.492   0.095   2.211
  159TIP3    H1  422   4.564   0.062   2.156
  159TIP3    H2  423   4.481   0.024   2.276
  160TIP3   OH2  424   4.056  -0.493   2.197
  160TIP3    H1  425   4.004  -0.539   2.130
  160TIP3    H2  426   4.037  -0.401   2.166
  161TIP3   OH2  427   4.135  -0.180   1.894
  161TIP3    H1  428   4.200  -0.201   1.825
  161TIP3    H2  429   4.073  -0.123   1.844
  162TIP3   OH2  430   4.697  -0.226   2.244
  162TIP3    H1  431   4.731  -0.284   2.316
  162TIP3    H2  432   4.775  -0.177   2.217
  163TIP3   OH2  433   4.747   0.034   1.999
  163TIP3    H1  434   4.690   0.085   1.937
  163TIP3    H2  435   4.836   0.050   1.958
  164TIP3   OH2  436   3.940  -0.384   2.440
  164TIP3    H1  437   3.893  -0.468   2.444
  164TIP3    H2  438   4.004  -0.402   2.369
  165TIP3   OH2  439   4.340  -0.448   2.230
  165TIP3    H1  440   4.373  -0.484   2.315
  165TIP3    H2  441   4.245  -0.462   2.238
  166TIP3   OH2  442   4.877   0.718   1.228
  166TIP3    H1  443   4.894   0.760   1.314
  166TIP3    H2  444   4.916   0.784   1.168
  167TIP3   OH2  445   4.899   0.750   1.505
  167TIP3    H1  446   4.855   0.663   1.495
  167TIP3    H2  447   4.972   0.725   1.564
  168TIP3   OH2  448   4.947   0.422   2.071
  168TIP3    H1  449   4.873   0.434   2.135
  168TIP3    H2  450   4.988   0.511   2.072
  169TIP3   OH2  451   4.958   0.227   1.351
  169TIP3    H1  452   5.022   0.185   1.289
  169TIP3    H2  453   4.941   0.310   1.301
  170TIP3   OH2  454   4.770   0.500   1.515
  170TIP3    H1  455   4.699   0.548   1.561
  170TIP3    H2  456   4.720   0.456   1.442
  171TIP3   OH2  457   5.002   0.080   1.892
  171TIP3    H1  458   5.076   0.016   1.882
  171TIP3    H2  459   5.028   0.150   1.830
  172TIP3   OH2  460   5.191  -0.127   1.928
  172TIP3    H1  461   5.114  -0.181   1.956
  172TIP3    H2  462   5.263  -0.191   1.930
  173TIP3   OH2  463   3.566  -0.583   2.478
  173TIP3    H1  464   3.616  -0.611   2.399
  173TIP3    H2  465   3.602  -0.643   2.545
  174TIP3   OH2  466   4.471   0.583   0.903
  174TIP3    H1  467   4.544   0.539   0.855
  174TIP3    H2  468   4.506   0.671   0.922
  175TIP3   OH2  469   3.563   0.377   2.255
  175TIP3    H1  470   3.466   0.371   2.240
  175TIP3    H2  471   3.566   0.408   2.347
  176TIP3   OH2  472   3.751   0.429   1.796
  176TIP3    H1  473   3.699   0.504   1.761
  176TIP3    H2  474   3.834   0.447   1.745
  177TIP3   OH2  475   4.174   0.672   1.936
  177TIP3    H1  476   4.215   0.676   2.025
  177TIP3    H2  477   4.238   0.726   1.884
  178TIP3   OH2  478   4.354   0.827   1.802
  178TIP3    H1  479   4.426   0.782   1.756
  178TIP3    H2  480   4.405   0.886   1.862
  179TIP3   OH2  481   3.435   0.637   1.832
  179TIP3    H1  482   3.366   0.677   1.778
  179TIP3    H2  483   3.413   0.685   1.914
  180TIP3   OH2  484   3.662   0.658   1.674
  180TIP3    H1  485   3.578   0.665   1.723
  180TIP3    H2  486   3.640   0.700   1.588
  181TIP3   OH2  487   4.081   0.693   1.483
  181TIP3    H1  488   4.007   0.708   1.419
  181TIP3    H2  489   4.089   0.783   1.520
  182TIP3   OH2  490   4.342   0.629   1.531
  182TIP3    H1  491   4.247   0.648   1.516
  182TIP3    H2  492   4.382   0.705   1.486
  183TIP3   OH2  493   4.548   0.824   1.443
  183TIP3    H1  494   4.529   0.910   1.399
  183TIP3    H2  495   4.569   0.767   1.366
  184TIP3   OH2  496   3.344   0.492   1.561
  184TIP3    H1  497   3.371   0.448   1.644
  184TIP3    H2  498   3.320   0.415   1.506
  185TIP3   OH2  499   4.820   0.703   1.823
  185TIP3    H1  500   4.742   0.674   1.772
  185TIP3    H2  501   4.803   0.799   1.827
  186TIP3   OH2  502   5.548   0.424   1.312
  186TIP3    H1  503   5.533   0.520   1.301
  186TIP3    H2  504   5.481   0.404   1.380
  187TIP3   OH2  505   5.757   0.527   1.497
  187TIP3    H1  506   5.694   0.596   1.525
  187TIP3    H2  507   5.697   0.465   1.451
  188TIP3   OH2  508   5.560   0.715   1.574
  188TIP3    H1  509   5.525   0.717   1.483
  188TIP3    H2  510   5.480   0.691   1.626
  189TIP3   OH2  511   5.158   0.249   1.535
  189TIP3    H1  512   5.083   0.229   1.475
  189TIP3    H2  513   5.183   0.160   1.569
  190TIP3   OH2  514   4.993   0.438   1.179
  190TIP3    H1  515   5.089   0.449   1.176
  190TIP3    H2  516   4.965   0.523   1.218
  191TIP3   OH2  517   5.931   0.723   1.305
  191TIP3    H1  518   5.954   0.810   1.344
  191TIP3    H2  519   5.954   0.666   1.380
  192TIP3   OH2  520   5.354   0.432   1.502
  192TIP3    H1  521   5.408   0.419   1.583
  192TIP3    H2  522   5.285   0.363   1.515
  193TIP3   OH2  523   6.542   1.238   1.331
  193TIP3    H1  524   6.523   1.249   1.236
  193TIP3    H2  525   6.630   1.277   1.339
  194TIP3   OH2  526   5.497   0.378   1.731
  194TIP3    H1  527   5.587   0.375   1.767
  194TIP3    H2  528   5.444   0.360   1.810
  195TIP3   OH2  529   5.228   0.034   1.681
  195TIP3    H1  530   5.295   0.050   1.751
  195TIP3    H2  531   5.219  -0.062   1.683
  196TIP3   OH2  532   5.723   0.792   1.149
  196TIP3    H1  533   5.759   0.848   1.078
  196TIP3    H2  534   5.802   0.779   1.205
  197TIP3   OH2  535   5.209   0.601   1.304
  197TIP3    H1  536   5.257   0.543   1.366
  197TIP3    H2  537   5.222   0.687   1.346
  198TIP3   OH2  538   5.185   0.928   1.720
  198TIP3    H1  539   5.273   0.928   1.765
  198TIP3    H2  540   5.168   0.833   1.716
  199TIP3   OH2  541   5.665   0.878   1.772
  199TIP3    H1  542   5.760   0.864   1.761
  199TIP3    H2  543   5.630   0.824   1.697
  200TIP3   OH2  544   6.261   0.827   1.515
  200TIP3    H1  545   6.263   0.740   1.560
  200TIP3    H2  546   6.356   0.845   1.504
  201TIP3   OH2  547   5.309   0.342   1.935
  201TIP3    H1  548   5.331   0.247   1.929
  201TIP3    H2  549   5.224   0.344   1.885
  202TIP3   OH2  550   5.912   0.420   1.710
  202TIP3    H1  551   5.892   0.460   1.623
  202TIP3    H2  552   5.917   0.326   1.686
  203TIP3   OH2  553   5.404   0.090   1.910
  203TIP3    H1  554   5.420  -0.007   1.904
  203TIP3    H2  555   5.452   0.112   1.992
  204TIP3   OH2  556   4.765   0.725   0.777
  204TIP3    H1  557   4.736   0.668   0.705
  204TIP3    H2  558   4.791   0.661   0.847
  205TIP3   OH2  559   4.896   0.583   0.961
  205TIP3    H1  560   4.900   0.494   1.000
  205TIP3    H2  561   4.943   0.634   1.029
  206TIP3   OH2  562   5.343   0.668   1.740
  206TIP3    H1  563   5.254   0.633   1.720
  206TIP3    H2  564   5.359   0.634   1.829
  207TIP3   OH2  565   5.517   0.696   1.292
  207TIP3    H1  566   5.466   0.770   1.251
  207TIP3    H2  567   5.602   0.718   1.247
  208TIP3   OH2  568   5.969   0.958   1.443
  208TIP3    H1  569   6.016   0.947   1.527
  208TIP3    H2  570   6.033   1.010   1.391
  209TIP3   OH2  571   6.129   1.110   1.283
  209TIP3    H1  572   6.201   1.063   1.235
  209TIP3    H2  573   6.183   1.162   1.348
  210TIP3   OH2  574   5.198   0.938   1.318
  210TIP3    H1  575   5.108   0.969   1.294
  210TIP3    H2  576   5.215   0.993   1.396
  211TIP3   OH2  577   5.432   0.928   1.171
  211TIP3    H1  578   5.344   0.941   1.211
  211TIP3    H2  579   5.419   0.963   1.081
  212TIP3   OH2  580   5.832   0.950   0.950
  212TIP3    H1  581   5.770   1.003   0.899
  212TIP3    H2  582   5.873   1.017   1.008
  213TIP3   OH2  583   5.114   0.742   1.072
  213TIP3    H1  584   5.153   0.708   1.155
  213TIP3    H2  585   5.173   0.704   1.005
  214TIP3   OH2  586   0.815   2.264   2.479
  214TIP3    H1  587   0.801   2.306   2.393
  214TIP3    H2  588   0.892   2.313   2.512
  215TIP3   OH2  589   1.003   1.734   2.751
  215TIP3    H1  590   0.985   1.709   2.843
  215TIP3    H2  591   1.062   1.811   2.763
  216TIP3   OH2  592   2.331   1.687   1.391
  216TIP3    H1  593   2.349   1.657   1.481
  216TIP3    H2  594   2.365   1.777   1.394
  217TIP3   OH2  595   2.046   2.129   1.327
  217TIP3    H1  596   2.101   2.067   1.275
  217TIP3    H2  597   2.057   2.095   1.417
  218TIP3   OH2  598   2.989   0.966   1.690
  218TIP3    H1  599   3.006   1.037   1.756
  218TIP3    H2  600   3.040   1.000   1.614
  219TIP3   OH2  601   3.039   1.176   1.866
  219TIP3    H1  602   2.951   1.217   1.854
  219TIP3    H2  603   3.062   1.203   1.956
  220TIP3   OH2  604   2.436   1.931   1.484
  220TIP3    H1  605   2.346   1.927   1.522
  220TIP3    H2  606   2.437   2.020   1.445
  221TIP3   OH2  607   2.663   1.842   1.836
  221TIP3    H1  608   2.676   1.766   1.776
  221TIP3    H2  609   2.684   1.918   1.779
  222TIP3   OH2  610   2.872   1.460   1.667
  222TIP3    H1  611   2.793   1.516   1.679
  222TIP3    H2  612   2.905   1.496   1.583
  223TIP3   OH2  613   2.568   1.356   1.982
  223TIP3    H1  614   2.565   1.442   2.027
  223TIP3    H2  615   2.479   1.354   1.941
  224TIP3   OH2  616   2.193   1.923   1.602
  224TIP3    H1  617   2.193   2.008   1.651
  224TIP3    H2  618   2.202   1.857   1.673
  225TIP3   OH2  619   1.811   1.835   2.155
  225TIP3    H1  620   1.770   1.905   2.210
  225TIP3    H2  621   1.730   1.796   2.119
  226TIP3   OH2  622   1.615   2.013   2.247
  226TIP3    H1  623   1.595   2.002   2.152
  226TIP3    H2  624   1.529   1.992   2.288
  227TIP3   OH2  625   2.902   2.185   1.854
  227TIP3    H1  626   2.935   2.098   1.885
  227TIP3    H2  627   2.824   2.196   1.912
  228TIP3   OH2  628   2.014   1.967   2.009
  228TIP3    H1  629   2.013   2.058   2.045
  228TIP3    H2  630   1.941   1.926   2.060
  229TIP3   OH2  631   2.795   1.303   2.153
  229TIP3    H1  632   2.724   1.319   2.089
  229TIP3    H2  633   2.816   1.210   2.136
  230TIP3   OH2  634   2.576   1.086   2.064
  230TIP3    H1  635   2.522   1.081   2.145
  230TIP3    H2  636   2.559   1.177   2.032
  231TIP3   OH2  637   2.284   1.314   2.317
  231TIP3    H1  638   2.264   1.234   2.371
  231TIP3    H2  639   2.382   1.309   2.315
  232TIP3   OH2  640   2.318   1.305   1.894
  232TIP3    H1  641   2.329   1.237   1.826
  232TIP3    H2  642   2.257   1.261   1.956
  233TIP3   OH2  643   2.605   2.535   1.973
  233TIP3    H1  644   2.606   2.557   1.878
  233TIP3    H2  645   2.687   2.578   2.004
  234TIP3   OH2  646   1.598   1.635   2.380
  234TIP3    H1  647   1.654   1.671   2.451
  234TIP3    H2  648   1.510   1.641   2.421
  235TIP3   OH2  649   2.663   1.633   1.665
  235TIP3    H1  650   2.676   1.678   1.579
  235TIP3    H2  651   2.568   1.608   1.661
  236TIP3   OH2  652   2.117   1.699   2.036
  236TIP3    H1  653   2.175   1.694   2.113
  236TIP3    H2  654   2.094   1.793   2.033
  237TIP3   OH2  655   2.037   1.439   2.341
  237TIP3    H1  656   1.982   1.400   2.272
  237TIP3    H2  657   2.127   1.408   2.316
  238TIP3   OH2  658   2.289   1.966   1.924
  238TIP3    H1  659   2.193   1.968   1.941
  238TIP3    H2  660   2.322   2.016   2.002
  239TIP3   OH2  661   2.406   1.539   1.646
  239TIP3    H1  662   2.320   1.510   1.610
  239TIP3    H2  663   2.451   1.451   1.647
  240TIP3   OH2  664   1.828   2.052   1.796
  240TIP3    H1  665   1.864   2.127   1.744
  240TIP3    H2  666   1.903   2.031   1.853
  241TIP3   OH2  667   2.205   1.699   1.765
  241TIP3    H1  668   2.186   1.680   1.859
  241TIP3    H2  669   2.288   1.649   1.753
  242TIP3   OH2  670   2.430   2.224   1.820
  242TIP3    H1  671   2.356   2.162   1.809
  242TIP3    H2  672   2.419   2.282   1.742
  243TIP3   OH2  673   2.199   1.165   2.100
  243TIP3    H1  674   2.235   1.222   2.171
  243TIP3    H2  675   2.261   1.090   2.100
  244TIP3   OH2  676   2.844   1.043   2.058
  244TIP3    H1  677   2.747   1.036   2.066
  244TIP3    H2  678   2.854   1.038   1.962
  245TIP3   OH2  679   2.460   2.192   1.410
  245TIP3    H1  680   2.422   2.242   1.334
  245TIP3    H2  681   2.555   2.210   1.393
  246TIP3   OH2  682   1.240   2.241   2.383
  246TIP3    H1  683   1.324   2.247   2.434
  246TIP3    H2  684   1.236   2.144   2.371
  247TIP3   OH2  685   1.711   2.188   2.432
  247TIP3    H1  686   1.805   2.166   2.433
  247TIP3    H2  687   1.679   2.128   2.362
  248TIP3   OH2  688   2.346   2.098   2.160
  248TIP3    H1  689   2.340   2.029   2.230
  248TIP3    H2  690   2.426   2.147   2.188
  249TIP3   OH2  691   1.367   1.630   2.543
  249TIP3    H1  692   1.395   1.537   2.548
  249TIP3    H2  693   1.300   1.634   2.614
  250TIP3   OH2  694   1.965   1.721   2.358
  250TIP3    H1  695   1.919   1.740   2.273
  250TIP3    H2  696   1.994   1.629   2.345
  251TIP3   OH2  697   2.452   1.735   1.970
  251TIP3    H1  698   2.533   1.771   1.928
  251TIP3    H2  699   2.389   1.804   1.944
  252TIP3   OH2  700   1.478   1.372   2.583
  252TIP3    H1  701   1.553   1.324   2.547
  252TIP3    H2  702   1.513   1.406   2.668
  253TIP3   OH2  703   2.326   1.661   2.339
  253TIP3    H1  704   2.407   1.641   2.290
  253TIP3    H2  705   2.332   1.604   2.416
  254TIP3   OH2  706   2.562   1.317   2.408
  254TIP3    H1  707   2.616   1.237   2.392
  254TIP3    H2  708   2.619   1.384   2.367
  255TIP3   OH2  709   2.588   1.585   2.148
  255TIP3    H1  710   2.531   1.640   2.089
  255TIP3    H2  711   2.676   1.608   2.111
  256TIP3   OH2  712   1.828   1.131   2.595
  256TIP3    H1  713   1.752   1.123   2.656
  256TIP3    H2  714   1.812   1.058   2.531
  257TIP3   OH2  715   2.196   1.092   2.457
  257TIP3    H1  716   2.180   1.076   2.552
  257TIP3    H2  717   2.111   1.067   2.420
  258TIP3   OH2  718   2.439   1.060   2.301
  258TIP3    H1  719   2.369   1.024   2.357
  258TIP3    H2  720   2.519   1.021   2.344
  259TIP3   OH2  721   2.648   0.982   2.455
  259TIP3    H1  722   2.673   0.887   2.467
  259TIP3    H2  723   2.660   1.017   2.545
  260TIP3   OH2  724   2.244   0.815   2.644
  260TIP3    H1  725   2.226   0.736   2.589
  260TIP3    H2  726   2.157   0.858   2.652
  261TIP3   OH2  727   2.711   2.288   1.368
  261TIP3    H1  728   2.743   2.316   1.456
  261TIP3    H2  729   2.779   2.322   1.309
  262TIP3   OH2  730   2.744   2.307   1.649
  262TIP3    H1  731   2.696   2.221   1.641
  262TIP3    H2  732   2.813   2.277   1.711
  263TIP3   OH2  733   2.781   1.981   2.223
  263TIP3    H1  734   2.711   1.997   2.289
  263TIP3    H2  735   2.827   2.067   2.220
  264TIP3   OH2  736   2.762   1.752   1.444
  264TIP3    H1  737   2.835   1.691   1.421
  264TIP3    H2  738   2.783   1.831   1.390
  265TIP3   OH2  739   2.617   2.063   1.659
  265TIP3    H1  740   2.549   2.083   1.725
  265TIP3    H2  741   2.569   2.006   1.595
  266TIP3   OH2  742   2.829   1.653   2.039
  266TIP3    H1  743   2.904   1.591   2.029
  266TIP3    H2  744   2.854   1.726   1.980
  267TIP3   OH2  745   3.008   1.450   2.063
  267TIP3    H1  746   2.938   1.395   2.104
  267TIP3    H2  747   3.087   1.396   2.081
  268TIP3   OH2  748   2.735   1.079   1.573
  268TIP3    H1  749   2.814   1.121   1.533
  268TIP3    H2  750   2.728   1.132   1.655
  269TIP3   OH2  751   2.775   1.251   1.814
  269TIP3    H1  752   2.694   1.289   1.854
  269TIP3    H2  753   2.803   1.326   1.757
  270TIP3   OH2  754   3.225   0.844   2.363
  270TIP3    H1  755   3.286   0.784   2.314
  270TIP3    H2  756   3.189   0.898   2.288
  271TIP3   OH2  757   3.091   0.990   2.176
  271TIP3    H1  758   2.998   0.999   2.145
  271TIP3    H2  759   3.131   0.941   2.100
  272TIP3   OH2  760   2.268   2.208   0.976
  272TIP3    H1  761   2.322   2.159   0.912
  272TIP3    H2  762   2.325   2.211   1.054
  273TIP3   OH2  763   1.365   1.963   2.392
  273TIP3    H1  764   1.381   1.873   2.358
  273TIP3    H2  765   1.371   1.950   2.488
  274TIP3   OH2  766   1.607   1.973   1.965
  274TIP3    H1  767   1.514   1.995   1.941
  274TIP3    H2  768   1.660   2.036   1.914
  275TIP3   OH2  769   2.016   2.233   2.086
  275TIP3    H1  770   2.057   2.234   2.175
  275TIP3    H2  771   2.082   2.285   2.036
  276TIP3   OH2  772   2.197   2.387   1.947
  276TIP3    H1  773   2.270   2.335   1.909
  276TIP3    H2  774   2.247   2.444   2.009
  277TIP3   OH2  775   2.941   0.727   2.089
  277TIP3    H1  776   2.942   0.777   2.006
  277TIP3    H2  777   3.008   0.659   2.069
  278TIP3   OH2  778   1.286   2.270   1.983
  278TIP3    H1  779   1.207   2.266   1.928
  278TIP3    H2  780   1.253   2.292   2.071
  279TIP3   OH2  781   1.486   2.246   1.805
  279TIP3    H1  782   1.433   2.254   1.887
  279TIP3    H2  783   1.416   2.218   1.745
  280TIP3   OH2  784   1.920   2.258   1.630
  280TIP3    H1  785   1.847   2.276   1.568
  280TIP3    H2  786   1.929   2.344   1.676
  281TIP3   OH2  787   2.185   2.187   1.679
  281TIP3    H1  788   2.092   2.212   1.662
  281TIP3    H2  789   2.233   2.264   1.643
  282TIP3   OH2  790   2.382   2.379   1.596
  282TIP3    H1  791   2.374   2.463   1.546
  282TIP3    H2  792   2.415   2.317   1.527
  283TIP3   OH2  793   2.732   0.723   2.490
  283TIP3    H1  794   2.747   0.690   2.581
  283TIP3    H2  795   2.821   0.710   2.451
  284TIP3   OH2  796   2.658   2.263   1.979
  284TIP3    H1  797   2.581   2.234   1.927
  284TIP3    H2  798   2.642   2.359   1.981
  285TIP3   OH2  799   3.933   1.638   0.736
  285TIP3    H1  800   3.899   1.727   0.713
  285TIP3    H2  801   3.861   1.582   0.701
  286TIP3   OH2  802   3.933   1.635   1.125
  286TIP3    H1  803   3.969   1.608   1.211
  286TIP3    H2  804   3.895   1.552   1.092
  287TIP3   OH2  805   3.228   1.527   1.481
  287TIP3    H1  806   3.258   1.458   1.543
  287TIP3    H2  807   3.298   1.593   1.494
  288TIP3   OH2  808   4.180   1.938   0.803
  288TIP3    H1  809   4.157   1.870   0.867
  288TIP3    H2  810   4.206   2.012   0.859
  289TIP3   OH2  811   3.202   1.942   1.207
  289TIP3    H1  812   3.195   1.844   1.208
  289TIP3    H2  813   3.299   1.953   1.205
  290TIP3   OH2  814   2.994   1.456   1.177
  290TIP3    H1  815   3.063   1.392   1.206
  290TIP3    H2  816   3.044   1.514   1.117
  291TIP3   OH2  817   3.831   2.403   0.822
  291TIP3    H1  818   3.870   2.331   0.768
  291TIP3    H2  819   3.814   2.358   0.905
  292TIP3   OH2  820   3.728   1.862   1.168
  292TIP3    H1  821   3.768   1.784   1.126
  292TIP3    H2  822   3.811   1.909   1.192
  293TIP3   OH2  823   4.748   1.180   1.169
  293TIP3    H1  824   4.776   1.265   1.208
  293TIP3    H2  825   4.757   1.199   1.074
  294TIP3   OH2  826   4.151   1.361   1.196
  294TIP3    H1  827   4.188   1.272   1.215
  294TIP3    H2  828   4.109   1.345   1.109
  295TIP3   OH2  829   4.178   1.116   0.787
  295TIP3    H1  830   4.250   1.101   0.852
  295TIP3    H2  831   4.229   1.152   0.712
  296TIP3   OH2  832   3.128   1.231   1.263
  296TIP3    H1  833   3.217   1.205   1.293
  296TIP3    H2  834   3.102   1.153   1.210
  297TIP3   OH2  835   3.568   1.441   1.070
  297TIP3    H1  836   3.660   1.412   1.089
  297TIP3    H2  837   3.530   1.359   1.033
  298TIP3   OH2  838   4.821   1.393   1.335
  298TIP3    H1  839   4.736   1.436   1.313
  298TIP3    H2  840   4.831   1.420   1.428
  299TIP3   OH2  841   3.477   1.021   1.605
  299TIP3    H1  842   3.422   1.056   1.534
  299TIP3    H2  843   3.423   1.042   1.684
  300TIP3   OH2  844   3.816   1.854   0.608
  300TIP3    H1  845   3.786   1.848   0.516
  300TIP3    H2  846   3.773   1.937   0.637
  301TIP3   OH2  847   3.583   1.783   1.392
  301TIP3    H1  848   3.522   1.850   1.429
  301TIP3    H2  849   3.624   1.832   1.317
  302TIP3   OH2  850   4.380   1.123   0.963
  302TIP3    H1  851   4.360   1.073   1.043
  302TIP3    H2  852   4.430   1.200   0.998
  303TIP3   OH2  853   3.373   1.120   1.358
  303TIP3    H1  854   3.426   1.197   1.391
  303TIP3    H2  855   3.436   1.081   1.296
  304TIP3   OH2  856   3.409   1.975   1.499
  304TIP3    H1  857   3.380   2.061   1.463
  304TIP3    H2  858   3.337   1.958   1.563
  305TIP3   OH2  859   4.246   2.184   0.968
  305TIP3    H1  860   4.156   2.174   1.008
  305TIP3    H2  861   4.235   2.270   0.922
  306TIP3   OH2  862   4.536   1.080   1.335
  306TIP3    H1  863   4.446   1.100   1.301
  306TIP3    H2  864   4.592   1.111   1.261
  307TIP3   OH2  865   3.851   0.738   1.345
  307TIP3    H1  866   3.814   0.666   1.292
  307TIP3    H2  867   3.771   0.788   1.369
  308TIP3   OH2  868   3.943   2.228   0.639
  308TIP3    H1  869   3.992   2.145   0.621
  308TIP3    H2  870   4.007   2.292   0.600
  309TIP3   OH2  871   4.086   2.012   0.553
  309TIP3    H1  872   4.059   1.931   0.508
  309TIP3    H2  873   4.125   1.977   0.636
  310TIP3   OH2  874   4.471   2.092   1.311
  310TIP3    H1  875   4.456   2.015   1.253
  310TIP3    H2  876   4.451   2.167   1.251
  311TIP3   OH2  877   3.770   1.482   0.568
  311TIP3    H1  878   3.691   1.535   0.546
  311TIP3    H2  879   3.811   1.467   0.480
  312TIP3   OH2  880   4.666   1.735   1.160
  312TIP3    H1  881   4.581   1.783   1.163
  312TIP3    H2  882   4.695   1.758   1.069
  313TIP3   OH2  883   4.118   1.578   0.545
  313TIP3    H1  884   4.060   1.598   0.622
  313TIP3    H2  885   4.200   1.549   0.591
  314TIP3   OH2  886   4.344   1.607   1.454
  314TIP3    H1  887   4.339   1.692   1.502
  314TIP3    H2  888   4.257   1.607   1.409
  315TIP3   OH2  889   3.347   1.567   0.959
  315TIP3    H1  890   3.322   1.507   0.887
  315TIP3    H2  891   3.427   1.522   0.995
  316TIP3   OH2  892   3.473   1.982   1.105
  316TIP3    H1  893   3.452   1.946   1.017
  316TIP3    H2  894   3.562   1.944   1.121
  317TIP3   OH2  895   3.482   1.540   1.312
  317TIP3    H1  896   3.520   1.518   1.224
  317TIP3    H2  897   3.524   1.626   1.332
  318TIP3   OH2  898   4.006   2.176   1.091
  318TIP3    H1  899   3.992   2.255   1.145
  318TIP3    H2  900   3.988   2.103   1.153
  319TIP3   OH2  901   3.616   2.094   1.636
  319TIP3    H1  902   3.555   2.155   1.683
  319TIP3    H2  903   3.551   2.042   1.586
  320TIP3   OH2  904   3.971   1.421   0.374
  320TIP3    H1  905   4.023   1.488   0.423
  320TIP3    H2  906   3.990   1.446   0.280
  321TIP3   OH2  907   3.367   1.647   1.733
  321TIP3    H1  908   3.371   1.728   1.785
  321TIP3    H2  909   3.272   1.625   1.746
  322TIP3   OH2  910   3.697   2.102   0.651
  322TIP3    H1  911   3.776   2.159   0.654
  322TIP3    H2  912   3.638   2.151   0.592
  323TIP3   OH2  913   3.413   2.263   1.722
  323TIP3    H1  914   3.375   2.263   1.632
  323TIP3    H2  915   3.332   2.249   1.778
  324TIP3   OH2  916   4.262   2.041  -0.045
  324TIP3    H1  917   4.277   2.137  -0.059
  324TIP3    H2  918   4.353   2.007  -0.047
  325TIP3   OH2  919   3.004   1.790   1.641
  325TIP3    H1  920   2.924   1.750   1.606
  325TIP3    H2  921   3.035   1.723   1.705
  326TIP3   OH2  922   2.848   1.982   1.300
  326TIP3    H1  923   2.944   1.978   1.295
  326TIP3    H2  924   2.835   2.058   1.359
  327TIP3   OH2  925   4.708   2.442   1.360
  327TIP3    H1  926   4.707   2.345   1.374
  327TIP3    H2  927   4.624   2.467   1.406
  328TIP3   OH2  928   3.812   2.222   1.494
  328TIP3    H1  929   3.809   2.315   1.526
  328TIP3    H2  930   3.740   2.182   1.547
  329TIP3   OH2  931   3.579   2.354   0.444
  329TIP3    H1  932   3.535   2.336   0.359
  329TIP3    H2  933   3.543   2.441   0.470
  330TIP3   OH2  934   3.022   2.217   0.829
  330TIP3    H1  935   3.062   2.199   0.917
  330TIP3    H2  936   2.966   2.137   0.816
  331TIP3   OH2  937   3.768   2.255   0.095
  331TIP3    H1  938   3.826   2.195   0.043
  331TIP3    H2  939   3.811   2.255   0.182
  332TIP3   OH2  940   3.833   2.305   0.363
  332TIP3    H1  941   3.741   2.314   0.397
  332TIP3    H2  942   3.876   2.259   0.437
  333TIP3   OH2  943   4.596   1.568   1.633
  333TIP3    H1  944   4.512   1.580   1.587
  333TIP3    H2  945   4.611   1.472   1.623
  334TIP3   OH2  946   3.200   1.969   1.679
  334TIP3    H1  947   3.188   1.971   1.777
  334TIP3    H2  948   3.126   1.908   1.657
  335TIP3   OH2  949   3.600   0.803   1.447
  335TIP3    H1  950   3.503   0.789   1.445
  335TIP3    H2  951   3.602   0.896   1.474
  336TIP3   OH2  952   4.129   0.918   1.639
  336TIP3    H1  953   4.195   0.888   1.705
  336TIP3    H2  954   4.044   0.897   1.682
  337TIP3   OH2  955   4.371   1.348   1.563
  337TIP3    H1  956   4.314   1.344   1.644
  337TIP3    H2  957   4.341   1.431   1.521
  338TIP3   OH2  958   4.046   1.485   0.118
  338TIP3    H1  959   4.014   1.457   0.032
  338TIP3    H2  960   4.123   1.539   0.094
  339TIP3   OH2  961   3.522   1.321   1.464
  339TIP3    H1  962   3.471   1.342   1.545
  339TIP3    H2  963   3.507   1.403   1.412
  340TIP3   OH2  964   3.414   1.241   0.957
  340TIP3    H1  965   3.401   1.163   1.014
  340TIP3    H2  966   3.460   1.195   0.885
  341TIP3   OH2  967   3.903   1.286   0.707
  341TIP3    H1  968   3.855   1.357   0.660
  341TIP3    H2  969   3.954   1.245   0.634
  342TIP3   OH2  970   4.075   1.563   1.790
  342TIP3    H1  971   4.051   1.491   1.853
  342TIP3    H2  972   4.169   1.576   1.813
  343TIP3   OH2  973   4.061   1.318   0.938
  343TIP3    H1  974   3.996   1.341   0.868
  343TIP3    H2  975   4.095   1.235   0.898
  344TIP3   OH2  976   3.345   1.355   1.670
  344TIP3    H1  977   3.353   1.424   1.739
  344TIP3    H2  978   3.339   1.274   1.724
  345TIP3   OH2  979   4.074   1.560   1.361
  345TIP3    H1  980   4.106   1.487   1.301
  345TIP3    H2  981   4.040   1.507   1.436
  346TIP3   OH2  982   4.236   1.096   1.245
  346TIP3    H1  983   4.197   1.114   1.333
  346TIP3    H2  984   4.172   1.029   1.211
  347TIP3   OH2  985   4.402   2.788   1.460
  347TIP3    H1  986   4.399   2.813   1.366
  347TIP3    H2  987   4.482   2.837   1.491
  348TIP3   OH2  988   3.817   1.348   1.143
  348TIP3    H1  989   3.873   1.292   1.088
  348TIP3    H2  990   3.811   1.294   1.224
  349TIP3   OH2  991   3.791   1.254   1.441
  349TIP3    H1  992   3.702   1.294   1.447
  349TIP3    H2  993   3.848   1.322   1.480
  350TIP3   OH2  994   3.529   1.626   0.535
  350TIP3    H1  995   3.434   1.611   0.531
  350TIP3    H2  996   3.533   1.671   0.623
  351TIP3   OH2  997   4.430   1.875   1.146
  351TIP3    H1  998   4.452   1.926   1.065
  351TIP3    H2  999   4.345   1.831   1.120
  352TIP3   OH2 1000   3.937   1.963   1.515
  352TIP3    H1 1001   3.954   1.938   1.607
  352TIP3    H2 1002   3.892   2.049   1.524
  353TIP3   OH2 1003   4.052   1.187   0.493
  353TIP3    H1 1004   4.148   1.200   0.500
  353TIP3    H2 1005   4.023   1.265   0.440
  354TIP3   OH2 1006   3.228   1.664   1.193
  354TIP3    H1 1007   3.273   1.634   1.111
  354TIP3    H2 1008   3.271   1.610   1.261
  355TIP3   OH2 1009   3.663   1.788   0.355
  355TIP3    H1 1010   3.626   1.878   0.368
  355TIP3    H2 1011   3.612   1.736   0.420
  356TIP3   OH2 1012   3.110   1.584   1.805
  356TIP3    H1 1013   3.140   1.578   1.898
  356TIP3    H2 1014   3.042   1.515   1.802
  357TIP3   OH2 1015   3.831   1.698   1.827
  357TIP3    H1 1016   3.767   1.637   1.787
  357TIP3    H2 1017   3.916   1.660   1.796
  358TIP3   OH2 1018   4.091   2.224   1.410
  358TIP3    H1 1019   3.995   2.217   1.425
  358TIP3    H2 1020   4.118   2.273   1.490
  359TIP3   OH2 1021   4.494   1.293   0.320
  359TIP3    H1 1022   4.447   1.237   0.255
  359TIP3    H2 1023   4.479   1.381   0.279
  360TIP3   OH2 1024   4.721   2.152   1.399
  360TIP3    H1 1025   4.623   2.145   1.392
  360TIP3    H2 1026   4.747   2.120   1.310
  361TIP3   OH2 1027   4.213   2.106   0.228
  361TIP3    H1 1028   4.168   2.044   0.286
  361TIP3    H2 1029   4.207   2.062   0.141
  362TIP3   OH2 1030   4.198   1.738   1.063
  362TIP3    H1 1031   4.104   1.713   1.077
  362TIP3    H2 1032   4.231   1.657   1.019
  363TIP3   OH2 1033   3.325   1.969   0.817
  363TIP3    H1 1034   3.323   2.051   0.765
  363TIP3    H2 1035   3.231   1.948   0.823
  364TIP3   OH2 1036   3.464   1.737   0.770
  364TIP3    H1 1037   3.428   1.827   0.785
  364TIP3    H2 1038   3.427   1.688   0.845
  365TIP3   OH2 1039   3.596   2.309   1.287
  365TIP3    H1 1040   3.639   2.381   1.238
  365TIP3    H2 1041   3.672   2.272   1.335
  366TIP3   OH2 1042   3.247   2.206   0.668
  366TIP3    H1 1043   3.163   2.218   0.717
  366TIP3    H2 1044   3.281   2.298   0.669
  367TIP3   OH2 1045   3.981   1.944   1.247
  367TIP3    H1 1046   3.971   1.944   1.345
  367TIP3    H2 1047   4.057   1.886   1.236
  368TIP3   OH2 1048   3.971   1.856   0.123
  368TIP3    H1 1049   4.008   1.824   0.208
  368TIP3    H2 1050   3.894   1.796   0.111
  369TIP3   OH2 1051   4.232   2.474   1.298
  369TIP3    H1 1052   4.153   2.417   1.295
  369TIP3    H2 1053   4.212   2.537   1.225
  370TIP3   OH2 1054   4.300   2.318  -0.057
  370TIP3    H1 1055   4.346   2.399  -0.086
  370TIP3    H2 1056   4.218   2.358  -0.021
  371TIP3   OH2 1057   3.305   1.114   1.806
  371TIP3    H1 1058   3.213   1.142   1.824
  371TIP3    H2 1059   3.305   1.032   1.860
  372TIP3   OH2 1060   4.120   1.775   0.353
  372TIP3    H1 1061   4.111   1.707   0.423
  372TIP3    H2 1062   4.216   1.769   0.336
  373TIP3   OH2 1063   3.032   2.169   1.445
  373TIP3    H1 1064   3.082   2.094   1.479
  373TIP3    H2 1065   3.053   2.237   1.511
  374TIP3   OH2 1066   3.303   1.826   0.392
  374TIP3    H1 1067   3.304   1.808   0.487
  374TIP3    H2 1068   3.284   1.923   0.393
  375TIP3   OH2 1069   4.156   1.157   1.504
  375TIP3    H1 1070   4.238   1.187   1.544
  375TIP3    H2 1071   4.139   1.073   1.552
  376TIP3   OH2 1072   4.034   0.924   0.657
  376TIP3    H1 1073   4.016   0.968   0.572
  376TIP3    H2 1074   4.073   0.999   0.707
  377TIP3   OH2 1075   3.543   2.029   0.376
  377TIP3    H1 1076   3.454   2.058   0.403
  377TIP3    H2 1077   3.538   2.041   0.279
  378TIP3   OH2 1078   3.720   1.082   0.752
  378TIP3    H1 1079   3.787   1.153   0.750
  378TIP3    H2 1080   3.712   1.064   0.848
  379TIP3   OH2 1081   3.995   1.405   1.569
  379TIP3    H1 1082   4.021   1.453   1.650
  379TIP3    H2 1083   4.044   1.320   1.578
  380TIP3   OH2 1084   3.944   0.850   0.913
  380TIP3    H1 1085   3.865   0.900   0.939
  380TIP3    H2 1086   3.954   0.871   0.819
  381TIP3   OH2 1087   3.275   2.094   0.419
  381TIP3    H1 1088   3.251   2.168   0.359
  381TIP3    H2 1089   3.261   2.135   0.507
  382TIP3   OH2 1090   4.634   1.299   1.553
  382TIP3    H1 1091   4.536   1.301   1.565
  382TIP3    H2 1092   4.638   1.255   1.467
  383TIP3   OH2 1093   4.284   1.494   0.942
  383TIP3    H1 1094   4.206   1.437   0.953
  383TIP3    H2 1095   4.353   1.444   0.992
  384TIP3   OH2 1096   4.252   2.456   0.889
  384TIP3    H1 1097   4.209   2.502   0.815
  384TIP3    H2 1098   4.347   2.473   0.867
  385TIP3   OH2 1099   3.333   0.748   1.481
  385TIP3    H1 1100   3.290   0.718   1.400
  385TIP3    H2 1101   3.329   0.664   1.532
  386TIP3   OH2 1102   2.884   1.983   0.777
  386TIP3    H1 1103   2.812   1.921   0.800
  386TIP3    H2 1104   2.926   1.934   0.703
  387TIP3   OH2 1105   3.025   2.483   1.869
  387TIP3    H1 1106   3.112   2.478   1.914
  387TIP3    H2 1107   3.003   2.389   1.865
  388TIP3   OH2 1108   3.505   2.443   1.912
  388TIP3    H1 1109   3.598   2.418   1.920
  388TIP3    H2 1110   3.476   2.382   1.841
  389TIP3   OH2 1111   3.487   2.024   0.104
  389TIP3    H1 1112   3.433   1.944   0.109
  389TIP3    H2 1113   3.518   2.015   0.012
  390TIP3   OH2 1114   4.144   2.352   1.647
  390TIP3    H1 1115   4.137   2.282   1.717
  390TIP3    H2 1116   4.221   2.404   1.679
  391TIP3   OH2 1117   3.937   2.073  -0.035
  391TIP3    H1 1118   3.941   1.994   0.024
  391TIP3    H2 1119   4.025   2.067  -0.076
  392TIP3   OH2 1120   3.762   1.975   1.841
  392TIP3    H1 1121   3.715   1.993   1.758
  392TIP3    H2 1122   3.788   1.881   1.832
  393TIP3   OH2 1123   3.746   1.695   0.100
  393TIP3    H1 1124   3.711   1.726   0.186
  393TIP3    H2 1125   3.665   1.676   0.051
  394TIP3   OH2 1126   4.256   1.983   1.454
  394TIP3    H1 1127   4.328   2.030   1.409
  394TIP3    H2 1128   4.182   2.045   1.439
  395TIP3   OH2 1129   3.295   1.567   2.037
  395TIP3    H1 1130   3.386   1.551   2.061
  395TIP3    H2 1131   3.275   1.648   2.088
  396TIP3   OH2 1132   3.614   1.512   1.720
  396TIP3    H1 1133   3.530   1.563   1.716
  396TIP3    H2 1134   3.661   1.546   1.640
  397TIP3   OH2 1135   4.129   1.909   1.848
  397TIP3    H1 1136   4.202   1.874   1.797
  397TIP3    H2 1137   4.119   1.843   1.919
  398TIP3   OH2 1138   4.271   1.576  -0.033
  398TIP3    H1 1139   4.277   1.535  -0.120
  398TIP3    H2 1140   4.260   1.670  -0.055
  399TIP3   OH2 1141   3.739   1.298   1.834
  399TIP3    H1 1142   3.733   1.217   1.779
  399TIP3    H2 1143   3.691   1.364   1.780
  400TIP3   OH2 1144   3.739   1.075   1.649
  400TIP3    H1 1145   3.765   1.125   1.568
  400TIP3    H2 1146   3.643   1.060   1.632
  401TIP3   OH2 1147   3.758   1.616   1.520
  401TIP3    H1 1148   3.843   1.627   1.475
  401TIP3    H2 1149   3.701   1.682   1.474
  402TIP3   OH2 1150   4.342   1.582   1.899
  402TIP3    H1 1151   4.391   1.499   1.905
  402TIP3    H2 1152   4.408   1.642   1.862
  403TIP3   OH2 1153   4.384   1.837   1.640
  403TIP3    H1 1154   4.326   1.891   1.581
  403TIP3    H2 1155   4.471   1.858   1.600
  404TIP3   OH2 1156   3.620   1.406   2.072
  404TIP3    H1 1157   3.548   1.340   2.087
  404TIP3    H2 1158   3.646   1.384   1.981
  405TIP3   OH2 1159   3.873   0.844   1.722
  405TIP3    H1 1160   3.822   0.924   1.695
  405TIP3    H2 1161   3.810   0.773   1.700
  406TIP3   OH2 1162   3.994   1.344   1.932
  406TIP3    H1 1163   3.971   1.330   2.026
  406TIP3    H2 1164   3.906   1.323   1.892
  407TIP3   OH2 1165   4.232   1.298   1.789
  407TIP3    H1 1166   4.155   1.300   1.849
  407TIP3    H2 1167   4.304   1.267   1.847
  408TIP3   OH2 1168   4.469   1.241   1.937
  408TIP3    H1 1169   4.476   1.145   1.953
  408TIP3    H2 1170   4.460   1.278   2.028
  409TIP3   OH2 1171   3.446   1.206   2.134
  409TIP3    H1 1172   3.451   1.110   2.112
  409TIP3    H2 1173   3.474   1.201   2.226
  410TIP3   OH2 1174   3.958   0.846   1.983
  410TIP3    H1 1175   4.025   0.777   1.968
  410TIP3    H2 1176   3.918   0.850   1.893
  411TIP3   OH2 1177   4.028   1.068   2.133
  411TIP3    H1 1178   4.004   0.997   2.070
  411TIP3    H2 1179   3.949   1.126   2.129
  412TIP3   OH2 1180   3.240   2.289   0.229
  412TIP3    H1 1181   3.335   2.299   0.205
  412TIP3    H2 1182   3.196   2.337   0.158
  413TIP3   OH2 1183   2.625   2.283   0.866
  413TIP3    H1 1184   2.594   2.209   0.811
  413TIP3    H2 1185   2.681   2.236   0.932
  414TIP3   OH2 1186   2.764   2.157   1.061
  414TIP3    H1 1187   2.770   2.075   1.112
  414TIP3    H2 1188   2.825   2.213   1.112
  415TIP3   OH2 1189   4.509   2.539   0.850
  415TIP3    H1 1190   4.533   2.570   0.940
  415TIP3    H2 1191   4.573   2.586   0.795
  416TIP3   OH2 1192   4.536   2.561   1.132
  416TIP3    H1 1193   4.488   2.475   1.127
  416TIP3    H2 1194   4.608   2.536   1.191
  417TIP3   OH2 1195   4.583   2.238   1.706
  417TIP3    H1 1196   4.510   2.248   1.770
  417TIP3    H2 1197   4.624   2.327   1.709
  418TIP3   OH2 1198   4.400   1.747   0.320
  418TIP3    H1 1199   4.464   1.817   0.293
  418TIP3    H2 1200   4.443   1.713   0.402
  419TIP3   OH2 1201   4.524   1.623   0.531
  419TIP3    H1 1202   4.457   1.579   0.588
  419TIP3    H2 1203   4.586   1.661   0.596
  420TIP3   OH2 1204   4.585   2.015   0.961
  420TIP3    H1 1205   4.635   1.946   0.913
  420TIP3    H2 1206   4.576   2.085   0.894
  421TIP3   OH2 1207   4.410   2.313   1.153
  421TIP3    H1 1208   4.338   2.354   1.205
  421TIP3    H2 1209   4.360   2.267   1.082
  422TIP3   OH2 1210   4.450   1.522   0.171
  422TIP3    H1 1211   4.386   1.537   0.099
  422TIP3    H2 1212   4.430   1.600   0.228
  423TIP3   OH2 1213   4.328   1.179   0.113
  423TIP3    H1 1214   4.285   1.261   0.085
  423TIP3    H2 1215   4.249   1.125   0.136
  424TIP3   OH2 1216   4.343   1.477   0.674
  424TIP3    H1 1217   4.340   1.380   0.664
  424TIP3    H2 1218   4.326   1.488   0.771
  425TIP3   OH2 1219   2.963   1.563   1.430
  425TIP3    H1 1220   2.965   1.531   1.338
  425TIP3    H2 1221   3.060   1.565   1.450
  426TIP3   OH2 1222   4.629   1.902   1.532
  426TIP3    H1 1223   4.700   1.835   1.519
  426TIP3    H2 1224   4.651   1.969   1.465
  427TIP3   OH2 1225   4.812   1.702   1.538
  427TIP3    H1 1226   4.737   1.654   1.578
  427TIP3    H2 1227   4.884   1.638   1.557
  428TIP3   OH2 1228   4.333   1.202   0.566
  428TIP3    H1 1229   4.372   1.113   0.582
  428TIP3    H2 1230   4.391   1.234   0.495
  429TIP3   OH2 1231   4.497   1.360   1.065
  429TIP3    H1 1232   4.582   1.386   1.023
  429TIP3    H2 1233   4.510   1.400   1.153
  430TIP3   OH2 1234   4.569   1.511   1.293
  430TIP3    H1 1235   4.491   1.543   1.342
  430TIP3    H2 1236   4.600   1.593   1.249
  431TIP3   OH2 1237   3.177   1.241   2.108
  431TIP3    H1 1238   3.275   1.236   2.104
  431TIP3    H2 1239   3.156   1.155   2.151
  432TIP3   OH2 1240   5.021   1.105   1.850
  432TIP3    H1 1241   5.080   1.040   1.806
  432TIP3    H2 1242   4.987   1.156   1.773
  433TIP3   OH2 1243   4.442   0.953   0.608
  433TIP3    H1 1244   4.477   0.942   0.700
  433TIP3    H2 1245   4.381   0.876   0.604
  434TIP3   OH2 1246   3.165   0.962   1.457
  434TIP3    H1 1247   3.220   0.891   1.497
  434TIP3    H2 1248   3.231   1.032   1.442
  435TIP3   OH2 1249   2.963   1.212   1.494
  435TIP3    H1 1250   3.015   1.227   1.413
  435TIP3    H2 1251   2.974   1.294   1.542
  436TIP3   OH2 1252   4.886   1.238   1.655
  436TIP3    H1 1253   4.802   1.284   1.675
  436TIP3    H2 1254   4.852   1.167   1.597
  437TIP3   OH2 1255   4.096   2.410   0.508
  437TIP3    H1 1256   4.143   2.397   0.423
  437TIP3    H2 1257   4.149   2.477   0.552
  438TIP3   OH2 1258   2.997   0.721   1.807
  438TIP3    H1 1259   3.086   0.743   1.843
  438TIP3    H2 1260   2.983   0.801   1.753
  439TIP3   OH2 1261   3.194   2.236   1.883
  439TIP3    H1 1262   3.112   2.190   1.859
  439TIP3    H2 1263   3.224   2.174   1.951
  440TIP3   OH2 1264   3.369   2.247   1.438
  440TIP3    H1 1265   3.321   2.323   1.399
  440TIP3    H2 1266   3.455   2.261   1.393
  441TIP3   OH2 1267   3.811   2.489   1.575
  441TIP3    H1 1268   3.852   2.488   1.664
  441TIP3    H2 1269   3.876   2.542   1.524
  442TIP3   OH2 1270   3.989   2.645   1.437
  442TIP3    H1 1271   4.059   2.592   1.394
  442TIP3    H2 1272   4.043   2.701   1.497
  443TIP3   OH2 1273   4.786   1.006   1.534
  443TIP3    H1 1274   4.697   0.999   1.495
  443TIP3    H2 1275   4.818   0.913   1.526
  444TIP3   OH2 1276   3.044   2.507   1.458
  444TIP3    H1 1277   2.954   2.541   1.438
  444TIP3    H2 1278   3.055   2.539   1.548
  445TIP3   OH2 1279   3.282   2.484   1.321
  445TIP3    H1 1280   3.194   2.495   1.364
  445TIP3    H2 1281   3.263   2.513   1.230
  446TIP3   OH2 1282   3.707   2.508   1.119
  446TIP3    H1 1283   3.636   2.525   1.054
  446TIP3    H2 1284   3.717   2.596   1.160
  447TIP3   OH2 1285   3.976   2.449   1.171
  447TIP3    H1 1286   3.881   2.465   1.151
  447TIP3    H2 1287   4.018   2.522   1.125
  448TIP3   OH2 1288   4.184   2.641   1.083
  448TIP3    H1 1289   4.169   2.724   1.034
  448TIP3    H2 1290   4.209   2.579   1.011
  449TIP3   OH2 1291   2.955   2.296   1.209
  449TIP3    H1 1292   2.984   2.267   1.298
  449TIP3    H2 1293   3.026   2.253   1.156
  450TIP3   OH2 1294   3.151   2.171   1.068
  450TIP3    H1 1295   3.165   2.086   1.116
  450TIP3    H2 1296   3.243   2.205   1.063
  451TIP3   OH2 1297   3.421   2.262   1.070
  451TIP3    H1 1298   3.449   2.169   1.059
  451TIP3    H2 1299   3.468   2.283   1.152
  452TIP3   OH2 1300   4.034   0.922   1.172
  452TIP3    H1 1301   3.948   0.905   1.215
  452TIP3    H2 1302   4.015   0.886   1.083
  453TIP3   OH2 1303   4.528   0.810   1.072
  453TIP3    H1 1304   4.552   0.866   0.995
  453TIP3    H2 1305   4.430   0.805   1.059
  454TIP3   OH2 1306   4.592   0.921   0.835
  454TIP3    H1 1307   4.667   0.862   0.811
  454TIP3    H2 1308   4.631   1.010   0.821
  455TIP3   OH2 1309   3.685   0.663   1.100
  455TIP3    H1 1310   3.691   0.719   1.021
  455TIP3    H2 1311   3.667   0.736   1.162
  456TIP3   OH2 1312   4.265   0.793   1.017
  456TIP3    H1 1313   4.202   0.793   0.945
  456TIP3    H2 1314   4.219   0.735   1.082
  457TIP3   OH2 1315   4.265   0.742   0.635
  457TIP3    H1 1316   4.181   0.793   0.635
  457TIP3    H2 1317   4.255   0.681   0.710
  458TIP3   OH2 1318   3.509   2.290   0.172
  458TIP3    H1 1319   3.600   2.304   0.140
  458TIP3    H2 1320   3.500   2.196   0.145
  459TIP3   OH2 1321   4.240   2.375   0.273
  459TIP3    H1 1322   4.235   2.277   0.262
  459TIP3    H2 1323   4.190   2.405   0.194
  460TIP3   OH2 1324   3.469   0.944   2.139
  460TIP3    H1 1325   3.409   0.885   2.089
  460TIP3    H2 1326   3.555   0.899   2.136
  461TIP3   OH2 1327   3.741   0.899   2.193
  461TIP3    H1 1328   3.818   0.869   2.142
  461TIP3    H2 1329   3.724   0.823   2.251
  462TIP3   OH2 1330   4.525   0.968   1.966
  462TIP3    H1 1331   4.543   0.938   2.058
  462TIP3    H2 1332   4.614   0.963   1.926
  463TIP3   OH2 1333   4.460   2.518   1.458
  463TIP3    H1 1334   4.381   2.487   1.409
  463TIP3    H2 1335   4.440   2.614   1.466
  464TIP3   OH2 1336   5.686   1.913   0.263
  464TIP3    H1 1337   5.669   1.995   0.213
  464TIP3    H2 1338   5.626   1.851   0.220
  465TIP3   OH2 1339   5.736   1.901   0.607
  465TIP3    H1 1340   5.753   1.861   0.694
  465TIP3    H2 1341   5.688   1.832   0.559
  466TIP3   OH2 1342   5.025   1.784   0.971
  466TIP3    H1 1343   5.055   1.715   1.033
  466TIP3    H2 1344   5.104   1.839   0.965
  467TIP3   OH2 1345   5.976   2.202   0.289
  467TIP3    H1 1346   5.948   2.133   0.351
  467TIP3    H2 1347   6.008   2.272   0.348
  468TIP3   OH2 1348   5.000   2.198   0.694
  468TIP3    H1 1349   4.991   2.101   0.694
  468TIP3    H2 1350   5.097   2.207   0.688
  469TIP3   OH2 1351   4.703   1.419   0.484
  469TIP3    H1 1352   4.649   1.498   0.501
  469TIP3    H2 1353   4.635   1.359   0.449
  470TIP3   OH2 1354   4.762   1.689   0.659
  470TIP3    H1 1355   4.810   1.609   0.689
  470TIP3    H2 1356   4.820   1.722   0.589
  471TIP3   OH2 1357   5.625   2.659   0.310
  471TIP3    H1 1358   5.663   2.583   0.261
  471TIP3    H2 1359   5.609   2.620   0.397
  472TIP3   OH2 1360   5.523   2.122   0.655
  472TIP3    H1 1361   5.560   2.049   0.602
  472TIP3    H2 1362   5.608   2.164   0.682
  473TIP3   OH2 1363   5.942   1.627   0.686
  473TIP3    H1 1364   5.973   1.541   0.718
  473TIP3    H2 1365   5.887   1.596   0.611
  474TIP3   OH2 1366   5.255   1.307   0.673
  474TIP3    H1 1367   5.227   1.370   0.603
  474TIP3    H2 1368   5.243   1.220   0.629
  475TIP3   OH2 1369   4.906   1.478   0.755
  475TIP3    H1 1370   4.986   1.462   0.810
  475TIP3    H2 1371   4.923   1.416   0.681
  476TIP3   OH2 1372   5.350   1.691   0.559
  476TIP3    H1 1373   5.444   1.663   0.570
  476TIP3    H2 1374   5.307   1.607   0.533
  477TIP3   OH2 1375   6.597   1.627   0.844
  477TIP3    H1 1376   6.525   1.688   0.818
  477TIP3    H2 1377   6.646   1.678   0.910
  478TIP3   OH2 1378   5.271   1.264   1.093
  478TIP3    H1 1379   5.211   1.306   1.027
  478TIP3    H2 1380   5.219   1.281   1.174
  479TIP3   OH2 1381   5.629   2.126   0.086
  479TIP3    H1 1382   5.580   2.094   0.008
  479TIP3    H2 1383   5.571   2.200   0.115
  480TIP3   OH2 1384   5.381   2.038   0.878
  480TIP3    H1 1385   5.320   2.107   0.915
  480TIP3    H2 1386   5.423   2.086   0.804
  481TIP3   OH2 1387   5.131   1.392   0.894
  481TIP3    H1 1388   5.192   1.465   0.917
  481TIP3    H2 1389   5.178   1.357   0.814
  482TIP3   OH2 1390   5.210   2.234   0.979
  482TIP3    H1 1391   5.184   2.321   0.942
  482TIP3    H2 1392   5.130   2.216   1.033
  483TIP3   OH2 1393   4.600   1.923   0.219
  483TIP3    H1 1394   4.559   1.945   0.133
  483TIP3    H2 1395   4.630   2.011   0.250
  484TIP3   OH2 1396   6.040   2.444   0.456
  484TIP3    H1 1397   5.950   2.432   0.495
  484TIP3    H2 1398   6.028   2.528   0.407
  485TIP3   OH2 1399   5.735   2.471   0.140
  485TIP3    H1 1400   5.782   2.387   0.121
  485TIP3    H2 1401   5.800   2.534   0.101
  486TIP3   OH2 1402   5.874   2.255   0.040
  486TIP3    H1 1403   5.799   2.192   0.046
  486TIP3    H2 1404   5.927   2.229   0.118
  487TIP3   OH2 1405   6.267   2.348   0.792
  487TIP3    H1 1406   6.251   2.271   0.734
  487TIP3    H2 1407   6.244   2.423   0.733
  488TIP3   OH2 1408   6.483   2.038   0.690
  488TIP3    H1 1409   6.392   2.074   0.673
  488TIP3    H2 1410   6.517   2.039   0.597
  489TIP3   OH2 1411   6.133   1.858   0.942
  489TIP3    H1 1412   6.133   1.935   1.005
  489TIP3    H2 1413   6.045   1.870   0.901
  490TIP3   OH2 1414   5.134   1.820   0.443
  490TIP3    H1 1415   5.103   1.761   0.373
  490TIP3    H2 1416   5.214   1.773   0.475
  491TIP3   OH2 1417   5.269   2.239   0.590
  491TIP3    H1 1418   5.248   2.202   0.503
  491TIP3    H2 1419   5.357   2.201   0.608
  492TIP3   OH2 1420   5.276   1.794   0.804
  492TIP3    H1 1421   5.307   1.771   0.714
  492TIP3    H2 1422   5.318   1.882   0.819
  493TIP3   OH2 1423   5.800   2.433   0.577
  493TIP3    H1 1424   5.787   2.512   0.633
  493TIP3    H2 1425   5.783   2.359   0.639
  494TIP3   OH2 1426   5.414   2.351   1.124
  494TIP3    H1 1427   5.352   2.412   1.170
  494TIP3    H2 1428   5.349   2.298   1.072
  495TIP3   OH2 1429   5.169   1.903   1.230
  495TIP3    H1 1430   5.173   1.993   1.269
  495TIP3    H2 1431   5.073   1.884   1.242
  496TIP3   OH2 1432   5.486   2.358   0.135
  496TIP3    H1 1433   5.571   2.406   0.143
  496TIP3    H2 1434   5.431   2.418   0.084
  497TIP3   OH2 1435   5.207   2.516   1.211
  497TIP3    H1 1436   5.171   2.519   1.121
  497TIP3    H2 1437   5.126   2.495   1.264
  498TIP3   OH2 1438   5.007   1.663   0.231
  498TIP3    H1 1439   4.935   1.712   0.184
  498TIP3    H2 1440   4.957   1.590   0.269
  499TIP3   OH2 1441   4.786   2.051   1.157
  499TIP3    H1 1442   4.716   2.032   1.090
  499TIP3    H2 1443   4.822   1.962   1.176
  500TIP3   OH2 1444   4.639   2.245   0.785
  500TIP3    H1 1445   4.736   2.240   0.781
  500TIP3    H2 1446   4.626   2.322   0.842
  501TIP3   OH2 1447   6.505   2.703   0.855
  501TIP3    H1 1448   6.502   2.606   0.870
  501TIP3    H2 1449   6.419   2.729   0.895
  502TIP3   OH2 1450   5.609   2.480   0.980
  502TIP3    H1 1451   5.606   2.572   1.013
  502TIP3    H2 1452   5.537   2.439   1.035
  503TIP3   OH2 1453   5.379   2.619  -0.069
  503TIP3    H1 1454   5.308   2.587  -0.126
  503TIP3    H2 1455   5.344   2.704  -0.037
  504TIP3   OH2 1456   4.811   2.456   0.318
  504TIP3    H1 1457   4.855   2.447   0.405
  504TIP3    H2 1458   4.760   2.373   0.314
  505TIP3   OH2 1459   5.610   2.503  -0.161
  505TIP3    H1 1460   5.528   2.546  -0.129
  505TIP3    H2 1461   5.667   2.510  -0.084
  506TIP3   OH2 1462   6.399   1.831   1.105
  506TIP3    H1 1463   6.305   1.829   1.085
  506TIP3    H2 1464   6.418   1.737   1.122
  507TIP3   OH2 1465   4.990   2.233   1.141
  507TIP3    H1 1466   5.038   2.217   1.225
  507TIP3    H2 1467   4.915   2.170   1.149
  508TIP3   OH2 1468   5.376   1.060   0.939
  508TIP3    H1 1469   5.290   1.029   0.906
  508TIP3    H2 1470   5.349   1.139   0.989
  509TIP3   OH2 1471   5.918   1.159   1.112
  509TIP3    H1 1472   5.987   1.143   1.181
  509TIP3    H2 1473   5.835   1.146   1.163
  510TIP3   OH2 1474   6.160   1.600   1.038
  510TIP3    H1 1475   6.113   1.599   1.124
  510TIP3    H2 1476   6.136   1.688   1.003
  511TIP3   OH2 1477   5.329   1.575   0.953
  511TIP3    H1 1478   5.279   1.598   1.035
  511TIP3    H2 1479   5.312   1.655   0.898
  512TIP3   OH2 1480   5.191   1.481   0.474
  512TIP3    H1 1481   5.103   1.439   0.470
  512TIP3    H2 1482   5.231   1.455   0.389
  513TIP3   OH2 1483   5.871   1.819   1.273
  513TIP3    H1 1484   5.851   1.748   1.337
  513TIP3    H2 1485   5.965   1.837   1.294
  514TIP3   OH2 1486   5.816   1.548   0.461
  514TIP3    H1 1487   5.829   1.602   0.380
  514TIP3    H2 1488   5.828   1.458   0.424
  515TIP3   OH2 1489   5.144   1.601   1.156
  515TIP3    H1 1490   5.163   1.667   1.224
  515TIP3    H2 1491   5.128   1.520   1.208
  516TIP3   OH2 1492   4.724   1.143   0.758
  516TIP3    H1 1493   4.806   1.164   0.806
  516TIP3    H2 1494   4.756   1.104   0.675
  517TIP3   OH2 1495   4.752   1.189   0.317
  517TIP3    H1 1496   4.797   1.257   0.264
  517TIP3    H2 1497   4.659   1.217   0.310
  518TIP3   OH2 1498   5.857   1.819   0.856
  518TIP3    H1 1499   5.895   1.753   0.795
  518TIP3    H2 1500   5.828   1.761   0.930
  519TIP3   OH2 1501   5.525   1.282   0.626
  519TIP3    H1 1502   5.432   1.301   0.646
  519TIP3    H2 1503   5.569   1.325   0.701
  520TIP3   OH2 1504   4.957   1.330   0.517
  520TIP3    H1 1505   4.863   1.357   0.505
  520TIP3    H2 1506   4.958   1.245   0.472
  521TIP3   OH2 1507   5.962   1.357   0.728
  521TIP3    H1 1508   5.958   1.380   0.823
  521TIP3    H2 1509   5.938   1.264   0.731
  522TIP3   OH2 1510   6.197   3.047   0.948
  522TIP3    H1 1511   6.196   3.071   0.854
  522TIP3    H2 1512   6.278   3.093   0.979
  523TIP3   OH2 1513   5.153   2.155   1.364
  523TIP3    H1 1514   5.232   2.185   1.414
  523TIP3    H2 1515   5.087   2.153   1.437
  524TIP3   OH2 1516   5.605   1.612   0.630
  524TIP3    H1 1517   5.676   1.578   0.572
  524TIP3    H2 1518   5.622   1.567   0.715
  525TIP3   OH2 1519   5.594   1.506   0.902
  525TIP3    H1 1520   5.504   1.540   0.919
  525TIP3    H2 1521   5.649   1.565   0.956
  526TIP3   OH2 1522   5.288   1.929  -0.007
  526TIP3    H1 1523   5.259   1.836  -0.009
  526TIP3    H2 1524   5.296   1.944   0.090
  527TIP3   OH2 1525   6.233   2.126   0.634
  527TIP3    H1 1526   6.252   2.177   0.552
  527TIP3    H2 1527   6.144   2.090   0.614
  528TIP3   OH2 1528   5.729   2.216   1.002
  528TIP3    H1 1529   5.758   2.198   1.093
  528TIP3    H2 1530   5.688   2.304   1.010
  529TIP3   OH2 1531   5.024   1.922   0.680
  529TIP3    H1 1532   5.059   1.890   0.594
  529TIP3    H2 1533   5.063   1.860   0.742
  530TIP3   OH2 1534   5.480   2.066  -0.149
  530TIP3    H1 1535   5.426   2.148  -0.160
  530TIP3    H2 1536   5.411   2.008  -0.109
  531TIP3   OH2 1537   4.905   1.834   1.293
  531TIP3    H1 1538   4.916   1.820   1.389
  531TIP3    H2 1539   4.831   1.773   1.273
  532TIP3   OH2 1540   5.630   1.955   1.315
  532TIP3    H1 1541   5.567   1.895   1.270
  532TIP3    H2 1542   5.716   1.918   1.284
  533TIP3   OH2 1543   5.886   2.480   0.897
  533TIP3    H1 1544   5.790   2.475   0.912
  533TIP3    H2 1545   5.914   2.529   0.977
  534TIP3   OH2 1546   6.529   2.422   0.852
  534TIP3    H1 1547   6.450   2.402   0.906
  534TIP3    H2 1548   6.491   2.403   0.765
  535TIP3   OH2 1549   5.986   2.014   0.562
  535TIP3    H1 1550   5.892   1.989   0.573
  535TIP3    H2 1551   6.021   1.932   0.521
  536TIP3   OH2 1552   5.122   2.224   0.309
  536TIP3    H1 1553   5.119   2.303   0.252
  536TIP3    H2 1554   5.029   2.202   0.317
  537TIP3   OH2 1555   4.707   1.515   0.046
  537TIP3    H1 1556   4.736   1.608   0.044
  537TIP3    H2 1557   4.618   1.521   0.083
  538TIP3   OH2 1558   5.264   1.989   0.258
  538TIP3    H1 1559   5.225   2.077   0.273
  538TIP3    H2 1560   5.223   1.937   0.329
  539TIP3   OH2 1561   5.393   2.566   0.775
  539TIP3    H1 1562   5.437   2.638   0.725
  539TIP3    H2 1563   5.468   2.527   0.823
  540TIP3   OH2 1564   5.037   2.463   0.156
  540TIP3    H1 1565   4.952   2.468   0.204
  540TIP3    H2 1566   5.067   2.556   0.162
  541TIP3   OH2 1567   5.777   2.201   0.734
  541TIP3    H1 1568   5.767   2.198   0.832
  541TIP3    H2 1569   5.855   2.145   0.720
  542TIP3   OH2 1570   6.028   2.730   0.784
  542TIP3    H1 1571   5.949   2.673   0.781
  542TIP3    H2 1572   6.008   2.793   0.712
  543TIP3   OH2 1573   5.108   1.344   1.302
  543TIP3    H1 1574   5.011   1.350   1.313
  543TIP3    H2 1575   5.133   1.288   1.378
  544TIP3   OH2 1576   4.831   2.427   0.932
  544TIP3    H1 1577   4.884   2.354   0.968
  544TIP3    H2 1578   4.854   2.498   0.993
  545TIP3   OH2 1579   5.172   2.006  -0.333
  545TIP3    H1 1580   5.103   1.988  -0.399
  545TIP3    H2 1581   5.118   2.024  -0.253
  546TIP3   OH2 1582   5.056   2.082  -0.087
  546TIP3    H1 1583   5.139   2.043  -0.052
  546TIP3    H2 1584   5.073   2.179  -0.081
  547TIP3   OH2 1585   4.802   1.781   0.095
  547TIP3    H1 1586   4.734   1.827   0.149
  547TIP3    H2 1587   4.817   1.848   0.026
  548TIP3   OH2 1588   5.953   1.407   0.992
  548TIP3    H1 1589   6.031   1.449   1.033
  548TIP3    H2 1590   5.941   1.326   1.046
  549TIP3   OH2 1591   5.331   2.294  -0.180
  549TIP3    H1 1592   5.246   2.313  -0.136
  549TIP3    H2 1593   5.321   2.340  -0.264
  550TIP3   OH2 1594   5.789   1.652   1.060
  550TIP3    H1 1595   5.810   1.710   1.136
  550TIP3    H2 1596   5.844   1.574   1.078
  551TIP3   OH2 1597   5.083   2.356  -0.092
  551TIP3    H1 1598   5.051   2.425  -0.154
  551TIP3    H2 1599   5.058   2.395  -0.005
  552TIP3   OH2 1600   6.429   1.552   1.057
  552TIP3    H1 1601   6.332   1.547   1.045
  552TIP3    H2 1602   6.463   1.548   0.967
  553TIP3   OH2 1603   6.071   1.768   0.474
  553TIP3    H1 1604   5.999   1.717   0.514
  553TIP3    H2 1605   6.147   1.731   0.524
  554TIP3   OH2 1606   4.792   1.999  -0.091
  554TIP3    H1 1607   4.874   2.050  -0.076
  554TIP3    H2 1608   4.830   1.933  -0.155
  555TIP3   OH2 1609   6.045   2.716   0.371
  555TIP3    H1 1610   6.003   2.766   0.298
  555TIP3    H2 1611   6.139   2.737   0.353
  556TIP3   OH2 1612   5.117   0.969   0.903
  556TIP3    H1 1613   5.092   0.923   0.822
  556TIP3    H2 1614   5.107   0.898   0.969
  557TIP3   OH2 1615   4.662   2.199   0.282
  557TIP3    H1 1616   4.596   2.225   0.347
  557TIP3    H2 1617   4.625   2.240   0.200
  558TIP3   OH2 1618   4.823   2.743   1.355
  558TIP3    H1 1619   4.909   2.743   1.403
  558TIP3    H2 1620   4.801   2.648   1.355
  559TIP3   OH2 1621   5.299   2.698   1.401
  559TIP3    H1 1622   5.394   2.679   1.407
  559TIP3    H2 1623   5.272   2.636   1.330
  560TIP3   OH2 1624   5.941   2.607   1.134
  560TIP3    H1 1625   5.932   2.538   1.204
  560TIP3    H2 1626   6.018   2.658   1.165
  561TIP3   OH2 1627   4.951   2.145   1.556
  561TIP3    H1 1628   4.965   2.048   1.563
  561TIP3    H2 1629   4.863   2.148   1.511
  562TIP3   OH2 1630   4.926   1.813  -0.228
  562TIP3    H1 1631   4.957   1.721  -0.220
  562TIP3    H2 1632   4.948   1.830  -0.322
  563TIP3   OH2 1633   5.557   2.231   1.331
  563TIP3    H1 1634   5.516   2.251   1.245
  563TIP3    H2 1635   5.587   2.138   1.319
  564TIP3   OH2 1636   6.055   2.249   0.939
  564TIP3    H1 1637   6.127   2.294   0.892
  564TIP3    H2 1638   5.981   2.310   0.922
  565TIP3   OH2 1639   5.071   1.883   1.542
  565TIP3    H1 1640   5.147   1.830   1.515
  565TIP3    H2 1641   5.100   1.914   1.630
  566TIP3   OH2 1642   5.164   1.672  -0.001
  566TIP3    H1 1643   5.112   1.678   0.082
  566TIP3    H2 1644   5.108   1.616  -0.056
  567TIP3   OH2 1645   5.408   1.765   1.203
  567TIP3    H1 1646   5.328   1.821   1.202
  567TIP3    H2 1647   5.457   1.798   1.124
  568TIP3   OH2 1648   5.930   2.164   1.329
  568TIP3    H1 1649   6.000   2.125   1.275
  568TIP3    H2 1650   5.923   2.100   1.402
  569TIP3   OH2 1651   5.530   1.553   1.325
  569TIP3    H1 1652   5.529   1.475   1.267
  569TIP3    H2 1653   5.486   1.621   1.269
  570TIP3   OH2 1654   5.530   1.340   1.135
  570TIP3    H1 1655   5.556   1.380   1.050
  570TIP3    H2 1656   5.436   1.316   1.118
  571TIP3   OH2 1657   5.557   1.872   1.006
  571TIP3    H1 1658   5.642   1.888   0.964
  571TIP3    H2 1659   5.499   1.937   0.961
  572TIP3   OH2 1660   6.148   1.846   1.383
  572TIP3    H1 1661   6.198   1.764   1.393
  572TIP3    H2 1662   6.219   1.909   1.362
  573TIP3   OH2 1663   6.159   2.067   1.112
  573TIP3    H1 1664   6.119   2.136   1.054
  573TIP3    H2 1665   6.241   2.109   1.140
  574TIP3   OH2 1666   5.410   1.657   1.561
  574TIP3    H1 1667   5.340   1.589   1.575
  574TIP3    H2 1668   5.441   1.634   1.471
  575TIP3   OH2 1669   5.662   1.102   1.205
  575TIP3    H1 1670   5.608   1.180   1.182
  575TIP3    H2 1671   5.598   1.029   1.192
  576TIP3   OH2 1672   5.790   1.602   1.418
  576TIP3    H1 1673   5.775   1.589   1.513
  576TIP3    H2 1674   5.701   1.580   1.384
  577TIP3   OH2 1675   6.026   1.551   1.268
  577TIP3    H1 1676   5.953   1.555   1.333
  577TIP3    H2 1677   6.102   1.526   1.326
  578TIP3   OH2 1678   6.247   1.497   1.426
  578TIP3    H1 1679   6.262   1.401   1.440
  578TIP3    H2 1680   6.247   1.532   1.517
  579TIP3   OH2 1681   5.246   1.438   1.613
  579TIP3    H1 1682   5.250   1.346   1.580
  579TIP3    H2 1683   5.282   1.426   1.703
  580TIP3   OH2 1684   5.742   1.113   1.469
  580TIP3    H1 1685   5.815   1.047   1.465
  580TIP3    H2 1686   5.709   1.108   1.377
  581TIP3   OH2 1687   5.822   1.324   1.624
  581TIP3    H1 1688   5.798   1.254   1.559
  581TIP3    H2 1689   5.745   1.384   1.617
  582TIP3   OH2 1690   5.059   2.543  -0.294
  582TIP3    H1 1691   5.144   2.535  -0.344
  582TIP3    H2 1692   5.013   2.610  -0.346
  583TIP3   OH2 1693   4.527   1.938  -0.052
  583TIP3    H1 1694   4.616   1.975  -0.071
  583TIP3    H2 1695   4.528   1.860  -0.109
  584TIP3   OH2 1696   4.442   2.549   0.350
  584TIP3    H1 1697   4.375   2.488   0.312
  584TIP3    H2 1698   4.485   2.489   0.415
  585TIP3   OH2 1699   4.575   2.395   0.537
  585TIP3    H1 1700   4.561   2.324   0.602
  585TIP3    H2 1701   4.626   2.458   0.591
  586TIP3   OH2 1702   6.298   2.807   0.339
  586TIP3    H1 1703   6.330   2.833   0.428
  586TIP3    H2 1704   6.378   2.816   0.285
  587TIP3   OH2 1705   6.331   2.820   0.618
  587TIP3    H1 1706   6.285   2.733   0.616
  587TIP3    H2 1707   6.407   2.797   0.673
  588TIP3   OH2 1708   6.373   2.498   1.155
  588TIP3    H1 1709   6.315   2.487   1.232
  588TIP3    H2 1710   6.420   2.580   1.178
  589TIP3   OH2 1711   6.356   2.270   0.439
  589TIP3    H1 1712   6.429   2.213   0.411
  589TIP3    H2 1713   6.363   2.346   0.378
  590TIP3   OH2 1714   6.206   2.571   0.638
  590TIP3    H1 1715   6.135   2.612   0.691
  590TIP3    H2 1716   6.155   2.526   0.567
  591TIP3   OH2 1717   4.760   1.804   0.910
  591TIP3    H1 1718   4.756   1.772   0.817
  591TIP3    H2 1719   4.857   1.806   0.924
  592TIP3   OH2 1720   6.445   2.158   0.980
  592TIP3    H1 1721   6.459   2.100   1.057
  592TIP3    H2 1722   6.406   2.237   1.022
  593TIP3   OH2 1723   6.617   1.948   1.002
  593TIP3    H1 1724   6.548   1.906   1.061
  593TIP3    H2 1725   6.694   1.893   1.029
  594TIP3   OH2 1726   6.282   1.643   0.602
  594TIP3    H1 1727   6.378   1.629   0.582
  594TIP3    H2 1728   6.292   1.688   0.688
  595TIP3   OH2 1729   6.373   1.801   0.808
  595TIP3    H1 1730   6.292   1.823   0.858
  595TIP3    H2 1731   6.394   1.885   0.764
  596TIP3   OH2 1732   4.980   1.491   1.584
  596TIP3    H1 1733   5.077   1.485   1.587
  596TIP3    H2 1734   4.955   1.404   1.622
  597TIP3   OH2 1735   6.822   1.360   1.335
  597TIP3    H1 1736   6.874   1.297   1.282
  597TIP3    H2 1737   6.785   1.417   1.265
  598TIP3   OH2 1738   4.944   1.185   0.914
  598TIP3    H1 1739   5.008   1.110   0.920
  598TIP3    H2 1740   5.004   1.262   0.917
  599TIP3   OH2 1741   4.744   1.456   0.987
  599TIP3    H1 1742   4.788   1.453   0.900
  599TIP3    H2 1743   4.768   1.543   1.019
  600TIP3   OH2 1744   6.693   1.514   1.154
  600TIP3    H1 1745   6.610   1.546   1.196
  600TIP3    H2 1746   6.659   1.442   1.099
  601TIP3   OH2 1747   4.700   0.994   0.515
  601TIP3    H1 1748   4.608   0.978   0.546
  601TIP3    H2 1749   4.686   1.063   0.448
  602TIP3   OH2 1750   5.878   2.643  -0.010
  602TIP3    H1 1751   5.904   2.600  -0.093
  602TIP3    H2 1752   5.933   2.723  -0.013
  603TIP3   OH2 1753   4.944   1.034   1.298
  603TIP3    H1 1754   4.894   1.039   1.381
  603TIP3    H2 1755   4.881   1.080   1.237
  604TIP3   OH2 1756   4.986   2.471   1.375
  604TIP3    H1 1757   4.893   2.447   1.360
  604TIP3    H2 1758   4.996   2.452   1.469
  605TIP3   OH2 1759   5.167   2.505   0.925
  605TIP3    H1 1760   5.118   2.581   0.886
  605TIP3    H2 1761   5.252   2.520   0.879
  606TIP3   OH2 1762   5.607   2.747   1.061
  606TIP3    H1 1763   5.648   2.745   1.149
  606TIP3    H2 1764   5.673   2.799   1.010
  607TIP3   OH2 1765   5.786   2.902   0.923
  607TIP3    H1 1766   5.857   2.849   0.883
  607TIP3    H2 1767   5.839   2.958   0.984
  608TIP3   OH2 1768   4.841   2.763   0.947
  608TIP3    H1 1769   4.750   2.793   0.926
  608TIP3    H2 1770   4.853   2.803   1.035
  609TIP3   OH2 1771   5.077   2.740   0.808
  609TIP3    H1 1772   4.990   2.751   0.852
  609TIP3    H2 1773   5.057   2.769   0.717
  610TIP3   OH2 1774   5.503   2.766   0.604
  610TIP3    H1 1775   5.430   2.784   0.542
  610TIP3    H2 1776   5.514   2.852   0.648
  611TIP3   OH2 1777   5.772   2.705   0.658
  611TIP3    H1 1778   5.678   2.722   0.637
  611TIP3    H2 1779   5.816   2.779   0.614
  612TIP3   OH2 1780   5.979   2.896   0.570
  612TIP3    H1 1781   5.964   2.980   0.521
  612TIP3    H2 1782   6.005   2.835   0.497
  613TIP3   OH2 1783   4.754   2.554   0.693
  613TIP3    H1 1784   4.779   2.525   0.783
  613TIP3    H2 1785   4.825   2.509   0.641
  614TIP3   OH2 1786   4.948   2.426   0.552
  614TIP3    H1 1787   4.962   2.341   0.602
  614TIP3    H2 1788   5.040   2.459   0.548
  615TIP3   OH2 1789   5.218   2.519   0.555
  615TIP3    H1 1790   5.245   2.426   0.544
  615TIP3    H2 1791   5.264   2.539   0.639
  616TIP3   OH2 1792   4.540   2.326   0.080
  616TIP3    H1 1793   4.454   2.290   0.050
  616TIP3    H2 1794   4.528   2.419   0.056
  617TIP3   OH2 1795   5.244   1.163   1.546
  617TIP3    H1 1796   5.207   1.093   1.604
  617TIP3    H2 1797   5.338   1.163   1.575
  618TIP3   OH2 1798   5.495   1.164   1.665
  618TIP3    H1 1799   5.577   1.138   1.620
  618TIP3    H2 1800   5.484   1.091   1.730
  619TIP3   OH2 1801   4.673   2.369  -0.241
  619TIP3    H1 1802   4.609   2.405  -0.179
  619TIP3    H2 1803   4.681   2.278  -0.210
  620TIP3   OH2 1804   6.303   1.226   1.460
  620TIP3    H1 1805   6.326   1.197   1.551
  620TIP3    H2 1806   6.392   1.226   1.417
  621TIP3   OH2 1807   6.257   2.778   0.941
  621TIP3    H1 1808   6.177   2.747   0.894
  621TIP3    H2 1809   6.235   2.873   0.952
  622TIP3   OH2 1810   6.840   2.065   0.487
  622TIP3    H1 1811   6.883   2.043   0.572
  622TIP3    H2 1812   6.885   2.148   0.462
  623TIP3   OH2 1813   6.777   2.451   0.196
  623TIP3    H1 1814   6.753   2.390   0.123
  623TIP3    H2 1815   6.873   2.445   0.197
  624TIP3   OH2 1816   7.073   2.273   0.333
  624TIP3    H1 1817   7.047   2.352   0.385
  624TIP3    H2 1818   7.166   2.294   0.313
  625TIP3   OH2 1819   6.995   2.498   0.471
  625TIP3    H1 1820   6.976   2.589   0.442
  625TIP3    H2 1821   6.916   2.481   0.528
  626TIP3   OH2 1822   7.211   2.608   0.620
  626TIP3    H1 1823   7.149   2.672   0.662
  626TIP3    H2 1824   7.148   2.556   0.568
  627TIP3   OH2 1825   7.002   2.773   0.697
  627TIP3    H1 1826   6.967   2.784   0.607
  627TIP3    H2 1827   6.921   2.751   0.748
  628TIP3   OH2 1828   6.440   2.496   0.284
  628TIP3    H1 1829   6.535   2.501   0.270
  628TIP3    H2 1830   6.423   2.575   0.336
  629TIP3   OH2 1831   7.402   2.724   0.460
  629TIP3    H1 1832   7.405   2.817   0.491
  629TIP3    H2 1833   7.334   2.687   0.520
  630TIP3   OH2 1834   6.781   2.472   0.643
  630TIP3    H1 1835   6.846   2.457   0.716
  630TIP3    H2 1836   6.701   2.489   0.695
  631TIP3   OH2 1837   6.938   1.882   0.701
  631TIP3    H1 1838   6.945   1.893   0.797
  631TIP3    H2 1839   6.915   1.787   0.696
  632TIP3   OH2 1840   6.945   2.427   0.858
  632TIP3    H1 1841   7.028   2.448   0.905
  632TIP3    H2 1842   6.884   2.419   0.934
  633TIP3   OH2 1843   7.488   2.446   0.562
  633TIP3    H1 1844   7.541   2.471   0.639
  633TIP3    H2 1845   7.486   2.528   0.512
  634TIP3   OH2 1846   7.423   2.208   0.805
  634TIP3    H1 1847   7.347   2.159   0.766
  634TIP3    H2 1848   7.490   2.185   0.738
  635TIP3   OH2 1849   7.182   2.829   0.308
  635TIP3    H1 1850   7.195   2.850   0.214
  635TIP3    H2 1851   7.270   2.797   0.334
  636TIP3   OH2 1852   6.627   2.685   0.430
  636TIP3    H1 1853   6.694   2.618   0.450
  636TIP3    H2 1854   6.660   2.762   0.479
  637TIP3   OH2 1855   6.620   3.003   0.843
  637TIP3    H1 1856   6.705   3.005   0.892
  637TIP3    H2 1857   6.600   2.908   0.844
  638TIP3   OH2 1858   7.091   2.953   0.891
  638TIP3    H1 1859   7.187   2.942   0.898
  638TIP3    H2 1860   7.070   2.893   0.817
  639TIP3   OH2 1861   6.744   2.402   1.053
  639TIP3    H1 1862   6.758   2.306   1.059
  639TIP3    H2 1863   6.662   2.408   1.001
  640TIP3   OH2 1864   7.365   2.490   0.821
  640TIP3    H1 1865   7.326   2.511   0.734
  640TIP3    H2 1866   7.386   2.395   0.811
  641TIP3   OH2 1867   6.871   2.132   1.023
  641TIP3    H1 1868   6.949   2.077   1.010
  641TIP3    H2 1869   6.891   2.171   1.110
  642TIP3   OH2 1870   7.221   2.072   0.679
  642TIP3    H1 1871   7.135   2.071   0.722
  642TIP3    H2 1872   7.212   2.006   0.609
  643TIP3   OH2 1873   7.155   1.948   1.042
  643TIP3    H1 1874   7.107   1.878   1.091
  643TIP3    H2 1875   7.195   1.897   0.969
  644TIP3   OH2 1876   7.037   1.714   1.122
  644TIP3    H1 1877   7.067   1.653   1.051
  644TIP3    H2 1878   7.078   1.676   1.202
  645TIP3   OH2 1879   6.370   2.647   0.029
  645TIP3    H1 1880   6.349   2.575   0.089
  645TIP3    H2 1881   6.428   2.702   0.083
  646TIP3   OH2 1882   6.565   2.067   0.421
  646TIP3    H1 1883   6.567   2.008   0.344
  646TIP3    H2 1884   6.660   2.088   0.432
  647TIP3   OH2 1885   6.779   1.752   1.061
  647TIP3    H1 1886   6.873   1.743   1.087
  647TIP3    H2 1887   6.743   1.671   1.103
  648TIP3   OH2 1888   6.779   2.721   0.856
  648TIP3    H1 1889   6.683   2.707   0.854
  648TIP3    H2 1890   6.798   2.710   0.950
  649TIP3   OH2 1891   6.946   2.766   0.418
  649TIP3    H1 1892   6.901   2.836   0.367
  649TIP3    H2 1893   7.037   2.781   0.384
  650TIP3   OH2 1894   7.404   3.001   0.541
  650TIP3    H1 1895   7.449   3.005   0.628
  650TIP3    H2 1896   7.465   3.051   0.484
  651TIP3   OH2 1897   7.574   3.138   0.333
  651TIP3    H1 1898   7.610   3.119   0.245
  651TIP3    H2 1899   7.588   3.234   0.337
  652TIP3   OH2 1900   6.632   3.008   0.455
  652TIP3    H1 1901   6.545   3.041   0.424
  652TIP3    H2 1902   6.647   3.066   0.531
  653TIP3   OH2 1903   6.848   2.997   0.285
  653TIP3    H1 1904   6.775   2.997   0.350
  653TIP3    H2 1905   6.814   3.064   0.224
  654TIP3   OH2 1906   6.534   2.798   0.197
  654TIP3    H1 1907   6.572   2.770   0.283
  654TIP3    H2 1908   6.613   2.781   0.140
  655TIP3   OH2 1909   6.756   2.701   0.071
  655TIP3    H1 1910   6.763   2.611   0.108
  655TIP3    H2 1911   6.833   2.706   0.012
  656TIP3   OH2 1912   0.840   2.649   2.065
  656TIP3    H1 1913   0.771   2.692   2.011
  656TIP3    H2 1914   0.896   2.729   2.084
  657TIP3   OH2 1915   0.504   3.406   1.982
  657TIP3    H1 1916   0.516   3.329   1.923
  657TIP3    H2 1917   0.505   3.480   1.919
  658TIP3   OH2 1918   0.700   3.009   1.785
  658TIP3    H1 1919   0.685   3.081   1.849
  658TIP3    H2 1920   0.765   3.051   1.724
  659TIP3   OH2 1921   0.443   2.910   2.138
  659TIP3    H1 1922   0.416   2.985   2.194
  659TIP3    H2 1923   0.359   2.888   2.093
  660TIP3   OH2 1924   0.736   3.771   1.996
  660TIP3    H1 1925   0.796   3.696   2.009
  660TIP3    H2 1926   0.669   3.758   2.066
  661TIP3   OH2 1927  -0.128   3.534   2.181
  661TIP3    H1 1928  -0.132   3.631   2.198
  661TIP3    H2 1929  -0.220   3.510   2.198
  662TIP3   OH2 1930   0.632   2.882   2.337
  662TIP3    H1 1931   0.574   2.890   2.259
  662TIP3    H2 1932   0.672   2.796   2.320
  663TIP3   OH2 1933   0.111   2.854   2.503
  663TIP3    H1 1934   0.127   2.760   2.520
  663TIP3    H2 1935   0.202   2.888   2.497
  664TIP3   OH2 1936   0.442   4.091   2.122
  664TIP3    H1 1937   0.447   4.116   2.029
  664TIP3    H2 1938   0.525   4.132   2.155
  665TIP3   OH2 1939   0.484   3.183   1.807
  665TIP3    H1 1940   0.553   3.176   1.739
  665TIP3    H2 1941   0.459   3.088   1.815
  666TIP3   OH2 1942  -0.008   3.285   2.203
  666TIP3    H1 1943   0.042   3.293   2.286
  666TIP3    H2 1944  -0.046   3.375   2.194
  667TIP3   OH2 1945   0.125   3.537   2.071
  667TIP3    H1 1946   0.036   3.548   2.110
  667TIP3    H2 1947   0.178   3.579   2.143
  668TIP3   OH2 1948   0.765   3.431   2.090
  668TIP3    H1 1949   0.669   3.447   2.079
  668TIP3    H2 1950   0.791   3.420   1.995
  669TIP3   OH2 1951   0.274   3.776   1.961
  669TIP3    H1 1952   0.197   3.717   1.954
  669TIP3    H2 1953   0.253   3.846   1.895
  670TIP3   OH2 1954   0.649   2.604   2.247
  670TIP3    H1 1955   0.571   2.576   2.197
  670TIP3    H2 1956   0.717   2.605   2.177
  671TIP3   OH2 1957   0.291   3.780   1.575
  671TIP3    H1 1958   0.249   3.811   1.493
  671TIP3    H2 1959   0.385   3.799   1.553
  672TIP3   OH2 1960  -0.457   3.736   2.586
  672TIP3    H1 1961  -0.368   3.753   2.621
  672TIP3    H2 1962  -0.437   3.723   2.492
  673TIP3   OH2 1963   0.196   3.647   2.311
  673TIP3    H1 1964   0.187   3.581   2.382
  673TIP3    H2 1965   0.272   3.701   2.342
  674TIP3   OH2 1966  -0.186   3.284   2.521
  674TIP3    H1 1967  -0.219   3.268   2.430
  674TIP3    H2 1968  -0.114   3.220   2.528
  675TIP3   OH2 1969   0.295   3.273   2.096
  675TIP3    H1 1970   0.369   3.328   2.064
  675TIP3    H2 1971   0.223   3.337   2.100
  676TIP3   OH2 1972   0.163   3.203   2.504
  676TIP3    H1 1973   0.249   3.191   2.461
  676TIP3    H2 1974   0.171   3.143   2.580
  677TIP3   OH2 1975   0.397   2.877   2.565
  677TIP3    H1 1976   0.446   2.793   2.556
  677TIP3    H2 1977   0.459   2.936   2.520
  678TIP3   OH2 1978   0.429   3.148   2.299
  678TIP3    H1 1979   0.379   3.193   2.228
  678TIP3    H2 1980   0.521   3.157   2.266
  679TIP3   OH2 1981   0.492   2.548   2.594
  679TIP3    H1 1982   0.520   2.454   2.605
  679TIP3    H2 1983   0.525   2.588   2.676
  680TIP3   OH2 1984   0.548   3.848   1.520
  680TIP3    H1 1985   0.580   3.876   1.608
  680TIP3    H2 1986   0.613   3.891   1.462
  681TIP3   OH2 1987   0.580   3.865   1.795
  681TIP3    H1 1988   0.546   3.773   1.787
  681TIP3    H2 1989   0.651   3.847   1.861
  682TIP3   OH2 1990   0.618   3.542   2.365
  682TIP3    H1 1991   0.552   3.553   2.437
  682TIP3    H2 1992   0.666   3.627   2.369
  683TIP3   OH2 1993   0.675   3.330   1.583
  683TIP3    H1 1994   0.744   3.264   1.561
  683TIP3    H2 1995   0.703   3.410   1.534
  684TIP3   OH2 1996   0.445   3.619   1.811
  684TIP3    H1 1997   0.395   3.668   1.879
  684TIP3    H2 1998   0.388   3.627   1.733
  685TIP3   OH2 1999   0.689   3.183   2.195
  685TIP3    H1 2000   0.755   3.115   2.173
  685TIP3    H2 2001   0.724   3.262   2.148
  686TIP3   OH2 2002   0.636   2.799   1.952
  686TIP3    H1 2003   0.566   2.829   2.013
  686TIP3    H2 2004   0.646   2.877   1.894
  687TIP3   OH2 2005   1.068   2.408   2.517
  687TIP3    H1 2006   1.130   2.346   2.474
  687TIP3    H2 2007   1.024   2.449   2.439
  688TIP3   OH2 2008   0.911   2.512   2.323
  688TIP3    H1 2009   0.835   2.570   2.339
  688TIP3    H2 2010   0.929   2.532   2.229
  689TIP3   OH2 2011  -0.142   3.800   2.237
  689TIP3    H1 2012  -0.101   3.798   2.327
  689TIP3    H2 2013  -0.073   3.850   2.187
  690TIP3   OH2 2014   0.046   3.938   2.097
  690TIP3    H1 2015   0.126   3.894   2.064
  690TIP3    H2 2016   0.087   4.002   2.159
  691TIP3   OH2 2017   0.012   3.756   1.808
  691TIP3    H1 2018  -0.069   3.791   1.847
  691TIP3    H2 2019   0.061   3.837   1.789
  692TIP3   OH2 2020   0.211   3.959   1.766
  692TIP3    H1 2021   0.201   4.046   1.722
  692TIP3    H2 2022   0.243   3.903   1.692
  693TIP3   OH2 2023   0.599   2.302   2.659
  693TIP3    H1 2024   0.610   2.239   2.733
  693TIP3    H2 2025   0.669   2.271   2.597
  694TIP3   OH2 2026   0.491   3.820   2.135
  694TIP3    H1 2027   0.416   3.797   2.078
  694TIP3    H2 2028   0.484   3.918   2.136
  695TIP3   OH2 2029   1.782   3.207   0.892
  695TIP3    H1 2030   1.749   3.294   0.858
  695TIP3    H2 2031   1.702   3.173   0.932
  696TIP3   OH2 2032   1.788   3.183   1.264
  696TIP3    H1 2033   1.808   3.171   1.359
  696TIP3    H2 2034   1.740   3.101   1.244
  697TIP3   OH2 2035   1.078   3.089   1.643
  697TIP3    H1 2036   1.106   3.014   1.700
  697TIP3    H2 2037   1.152   3.150   1.659
  698TIP3   OH2 2038   2.020   3.498   0.957
  698TIP3    H1 2039   1.988   3.440   1.027
  698TIP3    H2 2040   2.053   3.575   1.006
  699TIP3   OH2 2041   1.034   3.487   1.344
  699TIP3    H1 2042   1.038   3.390   1.359
  699TIP3    H2 2043   1.129   3.510   1.354
  700TIP3   OH2 2044   1.667   3.960   0.971
  700TIP3    H1 2045   1.710   3.889   0.920
  700TIP3    H2 2046   1.658   3.919   1.058
  701TIP3   OH2 2047   1.566   3.426   1.320
  701TIP3    H1 2048   1.595   3.360   1.256
  701TIP3    H2 2049   1.653   3.462   1.348
  702TIP3   OH2 2050   2.577   2.742   1.309
  702TIP3    H1 2051   2.604   2.824   1.356
  702TIP3    H2 2052   2.607   2.764   1.219
  703TIP3   OH2 2053   2.037   2.699   0.993
  703TIP3    H1 2054   2.093   2.625   0.960
  703TIP3    H2 2055   2.015   2.742   0.909
  704TIP3   OH2 2056   1.412   2.975   1.232
  704TIP3    H1 2057   1.506   2.958   1.246
  704TIP3    H2 2058   1.397   2.934   1.145
  705TIP3   OH2 2059   2.656   2.942   1.488
  705TIP3    H1 2060   2.572   2.991   1.469
  705TIP3    H2 2061   2.678   2.978   1.575
  706TIP3   OH2 2062   1.309   2.560   1.748
  706TIP3    H1 2063   1.236   2.611   1.708
  706TIP3    H2 2064   1.277   2.558   1.840
  707TIP3   OH2 2065   1.649   3.413   0.771
  707TIP3    H1 2066   1.608   3.408   0.684
  707TIP3    H2 2067   1.617   3.501   0.799
  708TIP3   OH2 2068   1.422   3.340   1.543
  708TIP3    H1 2069   1.357   3.404   1.580
  708TIP3    H2 2070   1.464   3.393   1.472
  709TIP3   OH2 2071   2.264   2.683   1.163
  709TIP3    H1 2072   2.280   2.591   1.190
  709TIP3    H2 2073   2.347   2.704   1.117
  710TIP3   OH2 2074   1.149   2.700   1.573
  710TIP3    H1 2075   1.220   2.768   1.581
  710TIP3    H2 2076   1.190   2.631   1.520
  711TIP3   OH2 2077   1.243   3.524   1.635
  711TIP3    H1 2078   1.220   3.610   1.591
  711TIP3    H2 2079   1.186   3.536   1.715
  712TIP3   OH2 2080   2.084   3.740   1.116
  712TIP3    H1 2081   1.995   3.732   1.157
  712TIP3    H2 2082   2.076   3.827   1.072
  713TIP3   OH2 2083   2.385   2.632   1.479
  713TIP3    H1 2084   2.304   2.680   1.458
  713TIP3    H2 2085   2.448   2.668   1.413
  714TIP3   OH2 2086   6.602   7.204   6.361
  714TIP3    H1 2087   6.566   7.115   6.368
  714TIP3    H2 2088   6.521   7.258   6.372
  715TIP3   OH2 2089   1.784   3.785   0.791
  715TIP3    H1 2090   1.832   3.702   0.772
  715TIP3    H2 2091   1.847   3.850   0.752
  716TIP3   OH2 2092   1.925   3.569   0.705
  716TIP3    H1 2093   1.931   3.494   0.644
  716TIP3    H2 2094   1.963   3.532   0.788
  717TIP3   OH2 2095   2.310   3.652   1.463
  717TIP3    H1 2096   2.301   3.574   1.404
  717TIP3    H2 2097   2.293   3.726   1.402
  718TIP3   OH2 2098   2.506   3.287   1.306
  718TIP3    H1 2099   2.424   3.340   1.312
  718TIP3    H2 2100   2.538   3.313   1.217
  719TIP3   OH2 2101   1.944   3.129   0.685
  719TIP3    H1 2102   1.893   3.155   0.764
  719TIP3    H2 2103   2.029   3.103   0.725
  720TIP3   OH2 2104   2.183   3.168   1.613
  720TIP3    H1 2105   2.187   3.249   1.668
  720TIP3    H2 2106   2.097   3.181   1.568
  721TIP3   OH2 2107   1.311   3.536   1.251
  721TIP3    H1 2108   1.304   3.505   1.160
  721TIP3    H2 2109   1.399   3.499   1.277
  722TIP3   OH2 2110   1.311   3.100   1.460
  722TIP3    H1 2111   1.350   3.069   1.376
  722TIP3    H2 2112   1.359   3.184   1.478
  723TIP3   OH2 2113   1.845   3.733   1.241
  723TIP3    H1 2114   1.832   3.814   1.293
  723TIP3    H2 2115   1.826   3.662   1.305
  724TIP3   OH2 2116   1.439   3.654   1.785
  724TIP3    H1 2117   1.372   3.689   1.847
  724TIP3    H2 2118   1.379   3.604   1.726
  725TIP3   OH2 2119   1.211   3.214   1.876
  725TIP3    H1 2120   1.218   3.299   1.922
  725TIP3    H2 2121   1.117   3.192   1.893
  726TIP3   OH2 2122   1.534   3.668   0.781
  726TIP3    H1 2123   1.619   3.716   0.796
  726TIP3    H2 2124   1.474   3.741   0.762
  727TIP3   OH2 2125   2.096   3.599   0.109
  727TIP3    H1 2126   2.116   3.694   0.093
  727TIP3    H2 2127   2.185   3.560   0.105
  728TIP3   OH2 2128   0.795   3.345   1.839
  728TIP3    H1 2129   0.784   3.341   1.743
  728TIP3    H2 2130   0.866   3.281   1.859
  729TIP3   OH2 2131   0.725   3.569   1.441
  729TIP3    H1 2132   0.822   3.578   1.447
  729TIP3    H2 2133   0.699   3.636   1.507
  730TIP3   OH2 2134   2.548   3.998   1.510
  730TIP3    H1 2135   2.548   3.902   1.526
  730TIP3    H2 2136   2.465   4.023   1.556
  731TIP3   OH2 2137   1.649   3.778   1.647
  731TIP3    H1 2138   1.648   3.870   1.679
  731TIP3    H2 2139   1.573   3.740   1.698
  732TIP3   OH2 2140   1.418   3.903   0.606
  732TIP3    H1 2141   1.381   3.889   0.516
  732TIP3    H2 2142   1.388   3.993   0.627
  733TIP3   OH2 2143   0.851   3.767   0.974
  733TIP3    H1 2144   0.892   3.744   1.060
  733TIP3    H2 2145   0.807   3.683   0.949
  734TIP3   OH2 2146   1.612   3.803   0.242
  734TIP3    H1 2147   1.671   3.746   0.189
  734TIP3    H2 2148   1.661   3.812   0.326
  735TIP3   OH2 2149   1.672   3.864   0.513
  735TIP3    H1 2150   1.583   3.869   0.552
  735TIP3    H2 2151   1.721   3.821   0.585
  736TIP3   OH2 2152   2.440   3.126   1.789
  736TIP3    H1 2153   2.361   3.135   1.734
  736TIP3    H2 2154   2.458   3.030   1.780
  737TIP3   OH2 2155   1.970   2.477   1.789
  737TIP3    H1 2156   2.039   2.450   1.852
  737TIP3    H2 2157   1.887   2.457   1.838
  738TIP3   OH2 2158   2.200   2.903   1.703
  738TIP3    H1 2159   2.154   2.899   1.790
  738TIP3    H2 2160   2.184   2.995   1.675
  739TIP3   OH2 2161   1.366   2.880   1.615
  739TIP3    H1 2162   1.323   2.901   1.700
  739TIP3    H2 2163   1.346   2.961   1.563
  740TIP3   OH2 2164   1.766   2.867   0.828
  740TIP3    H1 2165   1.676   2.900   0.812
  740TIP3    H2 2166   1.810   2.889   0.745
  741TIP3   OH2 2167   1.914   3.121   1.937
  741TIP3    H1 2168   1.892   3.049   2.002
  741TIP3    H2 2169   2.007   3.137   1.961
  742TIP3   OH2 2170   1.187   2.906   1.826
  742TIP3    H1 2171   1.189   2.962   1.905
  742TIP3    H2 2172   1.165   2.821   1.867
  743TIP3   OH2 2173   1.905   3.110   1.514
  743TIP3    H1 2174   1.930   3.025   1.477
  743TIP3    H2 2175   1.873   3.079   1.602
  744TIP3   OH2 2176   2.024   2.685   1.355
  744TIP3    H1 2177   2.023   2.703   1.452
  744TIP3    H2 2178   1.972   2.601   1.356
  745TIP3   OH2 2179   2.243   4.347   1.610
  745TIP3    H1 2180   2.241   4.370   1.516
  745TIP3    H2 2181   2.323   4.393   1.641
  746TIP3   OH2 2182   1.676   2.904   1.297
  746TIP3    H1 2183   1.702   2.822   1.254
  746TIP3    H2 2184   1.664   2.874   1.390
  747TIP3   OH2 2185   1.636   2.825   1.562
  747TIP3    H1 2186   1.545   2.853   1.587
  747TIP3    H2 2187   1.691   2.876   1.624
  748TIP3   OH2 2188   2.274   3.437   1.296
  748TIP3    H1 2189   2.300   3.488   1.216
  748TIP3    H2 2190   2.185   3.405   1.272
  749TIP3   OH2 2191   1.772   3.516   1.667
  749TIP3    H1 2192   1.799   3.498   1.758
  749TIP3    H2 2193   1.731   3.604   1.675
  750TIP3   OH2 2194   1.052   3.205   1.345
  750TIP3    H1 2195   1.109   3.178   1.271
  750TIP3    H2 2196   1.097   3.162   1.420
  751TIP3   OH2 2197   0.943   3.142   1.947
  751TIP3    H1 2198   0.986   3.163   2.032
  751TIP3    H2 2199   0.933   3.046   1.962
  752TIP3   OH2 2200   1.672   3.256   1.977
  752TIP3    H1 2201   1.609   3.191   1.944
  752TIP3    H2 2202   1.758   3.218   1.948
  753TIP3   OH2 2203   1.929   3.775   1.563
  753TIP3    H1 2204   1.833   3.774   1.579
  753TIP3    H2 2205   1.959   3.827   1.641
  754TIP3   OH2 2206   2.336   2.845   0.465
  754TIP3    H1 2207   2.292   2.782   0.407
  754TIP3    H2 2208   2.321   2.930   0.418
  755TIP3   OH2 2209   2.561   3.709   1.551
  755TIP3    H1 2210   2.464   3.702   1.543
  755TIP3    H2 2211   2.587   3.678   1.461
  756TIP3   OH2 2212   2.047   3.665   0.378
  756TIP3    H1 2213   2.012   3.593   0.434
  756TIP3    H2 2214   2.051   3.623   0.290
  757TIP3   OH2 2215   2.030   3.316   1.222
  757TIP3    H1 2216   1.937   3.288   1.235
  757TIP3    H2 2217   2.066   3.239   1.178
  758TIP3   OH2 2218   1.198   3.535   0.966
  758TIP3    H1 2219   1.174   3.626   0.936
  758TIP3    H2 2220   1.110   3.497   0.986
  759TIP3   OH2 2221   1.366   3.311   0.979
  759TIP3    H1 2222   1.326   3.398   0.961
  759TIP3    H2 2223   1.287   3.253   0.978
  760TIP3   OH2 2224   1.446   3.871   1.433
  760TIP3    H1 2225   1.490   3.942   1.383
  760TIP3    H2 2226   1.520   3.834   1.485
  761TIP3   OH2 2227   1.102   3.771   0.859
  761TIP3    H1 2228   1.009   3.782   0.883
  761TIP3    H2 2229   1.127   3.862   0.834
  762TIP3   OH2 2230   1.821   3.496   1.400
  762TIP3    H1 2231   1.810   3.500   1.497
  762TIP3    H2 2232   1.909   3.457   1.392
  763TIP3   OH2 2233   1.811   3.429   0.293
  763TIP3    H1 2234   1.865   3.399   0.369
  763TIP3    H2 2235   1.746   3.358   0.286
  764TIP3   OH2 2236   2.071   4.032   1.448
  764TIP3    H1 2237   1.991   3.976   1.442
  764TIP3    H2 2238   2.055   4.096   1.375
  765TIP3   OH2 2239   2.139   3.874   0.092
  765TIP3    H1 2240   2.193   3.949   0.059
  765TIP3    H2 2241   2.062   3.923   0.128
  766TIP3   OH2 2242   1.165   2.629   1.976
  766TIP3    H1 2243   1.096   2.685   2.017
  766TIP3    H2 2244   1.202   2.586   2.055
  767TIP3   OH2 2245   1.966   3.358   0.520
  767TIP3    H1 2246   1.943   3.275   0.567
  767TIP3    H2 2247   2.058   3.336   0.492
  768TIP3   OH2 2248   0.888   3.726   1.614
  768TIP3    H1 2249   0.949   3.663   1.659
  768TIP3    H2 2250   0.902   3.798   1.677
  769TIP3   OH2 2251   2.009   2.702   1.629
  769TIP3    H1 2252   2.079   2.749   1.678
  769TIP3    H2 2253   1.990   2.626   1.688
  770TIP3   OH2 2254   1.372   3.563   0.479
  770TIP3    H1 2255   1.355   3.584   0.571
  770TIP3    H2 2256   1.393   3.651   0.442
  771TIP3   OH2 2257   1.838   2.956   1.727
  771TIP3    H1 2258   1.854   3.013   1.805
  771TIP3    H2 2259   1.889   2.877   1.751
  772TIP3   OH2 2260   2.470   2.860   1.710
  772TIP3    H1 2261   2.372   2.858   1.711
  772TIP3    H2 2262   2.488   2.822   1.623
  773TIP3   OH2 2263   2.093   4.012   1.039
  773TIP3    H1 2264   2.050   4.059   0.965
  773TIP3    H2 2265   2.187   4.031   1.019
  774TIP3   OH2 2266   0.868   4.039   2.014
  774TIP3    H1 2267   0.951   4.036   2.066
  774TIP3    H2 2268   0.846   3.944   2.008
  775TIP3   OH2 2269   1.350   4.007   2.064
  775TIP3    H1 2270   1.441   3.982   2.082
  775TIP3    H2 2271   1.326   3.943   1.996
  776TIP3   OH2 2272   1.987   3.908   1.796
  776TIP3    H1 2273   1.978   3.839   1.866
  776TIP3    H2 2274   2.063   3.961   1.828
  777TIP3   OH2 2275   1.771   3.617   0.103
  777TIP3    H1 2276   1.790   3.556   0.178
  777TIP3    H2 2277   1.857   3.622   0.060
  778TIP3   OH2 2278   0.987   3.450   2.251
  778TIP3    H1 2279   1.037   3.373   2.218
  778TIP3    H2 2280   0.911   3.451   2.190
  779TIP3   OH2 2281   1.601   3.533   1.989
  779TIP3    H1 2282   1.553   3.546   1.906
  779TIP3    H2 2283   1.630   3.440   1.984
  780TIP3   OH2 2284   2.093   3.541   1.597
  780TIP3    H1 2285   2.170   3.585   1.556
  780TIP3    H2 2286   2.024   3.610   1.586
  781TIP3   OH2 2287   1.100   3.198   2.183
  781TIP3    H1 2288   1.095   3.100   2.184
  781TIP3    H2 2289   1.147   3.216   2.267
  782TIP3   OH2 2290   1.457   3.070   1.867
  782TIP3    H1 2291   1.373   3.120   1.867
  782TIP3    H2 2292   1.502   3.104   1.787
  783TIP3   OH2 2293   1.967   3.466   1.996
  783TIP3    H1 2294   2.050   3.438   1.955
  783TIP3    H2 2295   1.959   3.403   2.070
  784TIP3   OH2 2296   1.581   2.856   1.984
  784TIP3    H1 2297   1.570   2.775   1.931
  784TIP3    H2 2298   1.531   2.922   1.932
  785TIP3   OH2 2299   1.571   2.637   1.790
  785TIP3    H1 2300   1.597   2.678   1.706
  785TIP3    H2 2301   1.478   2.612   1.773
  786TIP3   OH2 2302   1.598   3.171   1.661
  786TIP3    H1 2303   1.682   3.198   1.622
  786TIP3    H2 2304   1.537   3.238   1.624
  787TIP3   OH2 2305   2.182   3.138   2.048
  787TIP3    H1 2306   2.230   3.055   2.067
  787TIP3    H2 2307   2.253   3.194   2.015
  788TIP3   OH2 2308   2.225   3.393   1.782
  788TIP3    H1 2309   2.167   3.449   1.725
  788TIP3    H2 2310   2.313   3.416   1.745
  789TIP3   OH2 2311   1.464   2.964   2.224
  789TIP3    H1 2312   1.395   2.895   2.239
  789TIP3    H2 2313   1.489   2.944   2.132
  790TIP3   OH2 2314   1.707   2.404   1.865
  790TIP3    H1 2315   1.659   2.486   1.845
  790TIP3    H2 2316   1.639   2.337   1.842
  791TIP3   OH2 2317   1.836   2.904   2.083
  791TIP3    H1 2318   1.819   2.889   2.178
  791TIP3    H2 2319   1.746   2.882   2.048
  792TIP3   OH2 2320   2.069   2.851   1.933
  792TIP3    H1 2321   1.997   2.855   1.999
  792TIP3    H2 2322   2.145   2.823   1.989
  793TIP3   OH2 2323   2.298   2.797   2.083
  793TIP3    H1 2324   2.314   2.701   2.100
  793TIP3    H2 2325   2.296   2.834   2.174
  794TIP3   OH2 2326   1.318   2.742   2.279
  794TIP3    H1 2327   1.289   2.655   2.249
  794TIP3    H2 2328   1.330   2.727   2.374
  795TIP3   OH2 2329   1.804   2.412   2.124
  795TIP3    H1 2330   1.869   2.340   2.117
  795TIP3    H2 2331   1.762   2.406   2.036
  796TIP3   OH2 2332   1.869   2.626   2.284
  796TIP3    H1 2333   1.847   2.555   2.219
  796TIP3    H2 2334   1.791   2.684   2.278
  797TIP3   OH2 2335   0.622   3.726   1.221
  797TIP3    H1 2336   0.660   3.665   1.287
  797TIP3    H2 2337   0.667   3.808   1.248
  798TIP3   OH2 2338   2.348   4.101   1.001
  798TIP3    H1 2339   2.376   4.131   1.089
  798TIP3    H2 2340   2.416   4.139   0.943
  799TIP3   OH2 2341   2.377   4.120   1.283
  799TIP3    H1 2342   2.331   4.033   1.278
  799TIP3    H2 2343   2.451   4.095   1.341
  800TIP3   OH2 2344   2.421   3.797   1.854
  800TIP3    H1 2345   2.350   3.807   1.921
  800TIP3    H2 2346   2.465   3.885   1.859
  801TIP3   OH2 2347   2.240   3.303   0.465
  801TIP3    H1 2348   2.304   3.371   0.436
  801TIP3    H2 2349   2.286   3.269   0.545
  802TIP3   OH2 2350   2.369   3.178   0.673
  802TIP3    H1 2351   2.301   3.139   0.731
  802TIP3    H2 2352   2.434   3.215   0.737
  803TIP3   OH2 2353   2.422   3.571   1.107
  803TIP3    H1 2354   2.476   3.504   1.062
  803TIP3    H2 2355   2.420   3.644   1.041
  804TIP3   OH2 2356   2.250   3.871   1.303
  804TIP3    H1 2357   2.178   3.912   1.354
  804TIP3    H2 2358   2.200   3.825   1.232
  805TIP3   OH2 2359   2.282   3.074   0.313
  805TIP3    H1 2360   2.218   3.094   0.240
  805TIP3    H2 2361   2.263   3.151   0.371
  806TIP3   OH2 2362   2.175   3.036   0.815
  806TIP3    H1 2363   2.178   2.943   0.784
  806TIP3    H2 2364   2.179   3.025   0.911
  807TIP3   OH2 2365   0.828   3.112   1.560
  807TIP3    H1 2366   0.832   3.051   1.486
  807TIP3    H2 2367   0.922   3.110   1.590
  808TIP3   OH2 2368   2.471   3.460   1.680
  808TIP3    H1 2369   2.542   3.392   1.670
  808TIP3    H2 2370   2.499   3.529   1.617
  809TIP3   OH2 2371   2.653   3.261   1.691
  809TIP3    H1 2372   2.579   3.211   1.732
  809TIP3    H2 2373   2.727   3.198   1.707
  810TIP3   OH2 2374   2.183   2.777   0.736
  810TIP3    H1 2375   2.209   2.691   0.775
  810TIP3    H2 2376   2.231   2.776   0.653
  811TIP3   OH2 2377   2.416   3.073   1.459
  811TIP3    H1 2378   2.333   3.108   1.495
  811TIP3    H2 2379   2.444   3.144   1.398
  812TIP3   OH2 2380   2.858   2.660   1.998
  812TIP3    H1 2381   2.919   2.594   1.959
  812TIP3    H2 2382   2.831   2.712   1.920
  813TIP3   OH2 2383   2.244   2.534   0.840
  813TIP3    H1 2384   2.316   2.489   0.888
  813TIP3    H2 2385   2.239   2.481   0.757
  814TIP3   OH2 2386   2.728   2.797   1.801
  814TIP3    H1 2387   2.642   2.838   1.822
  814TIP3    H2 2388   2.697   2.723   1.745
  815TIP3   OH2 2389   1.932   3.969   0.657
  815TIP3    H1 2390   1.981   3.956   0.573
  815TIP3    H2 2391   1.988   4.033   0.703
  816TIP3   OH2 2392   1.209   3.776   1.531
  816TIP3    H1 2393   1.163   3.861   1.544
  816TIP3    H2 2394   1.299   3.809   1.508
  817TIP3   OH2 2395   1.652   4.047   1.724
  817TIP3    H1 2396   1.693   4.045   1.813
  817TIP3    H2 2397   1.718   4.099   1.675
  818TIP3   OH2 2398   1.832   4.202   1.586
  818TIP3    H1 2399   1.902   4.150   1.546
  818TIP3    H2 2400   1.884   4.259   1.648
  819TIP3   OH2 2401   2.630   2.558   1.685
  819TIP3    H1 2402   2.540   2.542   1.652
  819TIP3    H2 2403   2.669   2.467   1.677
  820TIP3   OH2 2404   0.885   4.061   1.605
  820TIP3    H1 2405   0.794   4.096   1.591
  820TIP3    H2 2406   0.900   4.087   1.697
  821TIP3   OH2 2407   1.127   4.049   1.474
  821TIP3    H1 2408   1.039   4.056   1.517
  821TIP3    H2 2409   1.105   4.075   1.383
  822TIP3   OH2 2410   1.551   4.069   1.265
  822TIP3    H1 2411   1.477   4.085   1.204
  822TIP3    H2 2412   1.559   4.156   1.309
  823TIP3   OH2 2413   1.817   4.004   1.320
  823TIP3    H1 2414   1.723   4.024   1.300
  823TIP3    H2 2415   1.862   4.079   1.277
  824TIP3   OH2 2416   2.022   4.197   1.233
  824TIP3    H1 2417   2.009   4.281   1.184
  824TIP3    H2 2418   2.050   4.136   1.160
  825TIP3   OH2 2419   0.812   3.867   1.367
  825TIP3    H1 2420   0.842   3.848   1.458
  825TIP3    H2 2421   0.880   3.817   1.316
  826TIP3   OH2 2422   0.989   3.724   1.212
  826TIP3    H1 2423   1.007   3.640   1.260
  826TIP3    H2 2424   1.079   3.762   1.207
  827TIP3   OH2 2425   1.257   3.821   1.218
  827TIP3    H1 2426   1.288   3.729   1.208
  827TIP3    H2 2427   1.298   3.841   1.304
  828TIP3   OH2 2428   1.840   2.483   1.307
  828TIP3    H1 2429   1.792   2.423   1.367
  828TIP3    H2 2430   1.887   2.420   1.250
  829TIP3   OH2 2431   2.370   2.353   1.218
  829TIP3    H1 2432   2.412   2.397   1.141
  829TIP3    H2 2433   2.274   2.371   1.204
  830TIP3   OH2 2434   2.468   2.467   0.994
  830TIP3    H1 2435   2.529   2.402   0.951
  830TIP3    H2 2436   2.509   2.551   0.963
  831TIP3   OH2 2437   2.098   2.387   1.216
  831TIP3    H1 2438   2.054   2.351   1.136
  831TIP3    H2 2439   2.089   2.308   1.274
  832TIP3   OH2 2440   1.362   3.828   0.345
  832TIP3    H1 2441   1.449   3.825   0.297
  832TIP3    H2 2442   1.302   3.791   0.278
  833TIP3   OH2 2443   2.077   3.933   0.424
  833TIP3    H1 2444   2.071   3.835   0.413
  833TIP3    H2 2445   2.032   3.962   0.342
  834TIP3   OH2 2446   1.279   2.470   2.217
  834TIP3    H1 2447   1.251   2.397   2.275
  834TIP3    H2 2448   1.375   2.473   2.239
  835TIP3   OH2 2449   1.536   2.465   2.330
  835TIP3    H1 2450   1.621   2.437   2.291
  835TIP3    H2 2451   1.523   2.396   2.398
  836TIP3   OH2 2452   2.365   2.527   2.116
  836TIP3    H1 2453   2.383   2.495   2.207
  836TIP3    H2 2454   2.454   2.522   2.076
  837TIP3   OH2 2455   2.300   4.076   1.609
  837TIP3    H1 2456   2.222   4.046   1.559
  837TIP3    H2 2457   2.280   4.172   1.617
  838TIP3   OH2 2458   3.571   3.453   0.371
  838TIP3    H1 2459   3.539   3.542   0.349
  838TIP3    H2 2460   3.495   3.399   0.341
  839TIP3   OH2 2461   3.570   3.450   0.761
  839TIP3    H1 2462   3.605   3.425   0.849
  839TIP3    H2 2463   3.528   3.368   0.732
  840TIP3   OH2 2464   2.864   3.343   1.125
  840TIP3    H1 2465   2.893   3.272   1.186
  840TIP3    H2 2466   2.946   3.394   1.116
  841TIP3   OH2 2467   3.816   3.753   0.440
  841TIP3    H1 2468   3.795   3.686   0.505
  841TIP3    H2 2469   3.844   3.828   0.495
  842TIP3   OH2 2470   2.840   3.755   0.844
  842TIP3    H1 2471   2.832   3.657   0.845
  842TIP3    H2 2472   2.937   3.764   0.838
  843TIP3   OH2 2473   2.544   2.961   0.629
  843TIP3    H1 2474   2.496   3.045   0.643
  843TIP3    H2 2475   2.472   2.905   0.597
  844TIP3   OH2 2476   2.602   3.244   0.809
  844TIP3    H1 2477   2.651   3.165   0.842
  844TIP3    H2 2478   2.663   3.279   0.743
  845TIP3   OH2 2479   3.465   4.214   0.456
  845TIP3    H1 2480   3.508   4.143   0.404
  845TIP3    H2 2481   3.455   4.171   0.542
  846TIP3   OH2 2482   3.366   3.677   0.805
  846TIP3    H1 2483   3.406   3.600   0.762
  846TIP3    H2 2484   3.448   3.724   0.831
  847TIP3   OH2 2485   4.383   2.996   0.804
  847TIP3    H1 2486   4.413   3.079   0.846
  847TIP3    H2 2487   4.400   3.014   0.710
  848TIP3   OH2 2488   3.782   3.176   0.834
  848TIP3    H1 2489   3.822   3.090   0.855
  848TIP3    H2 2490   3.747   3.159   0.744
  849TIP3   OH2 2491   3.121   2.834   0.800
  849TIP3    H1 2492   3.099   2.907   0.738
  849TIP3    H2 2493   3.074   2.760   0.757
  850TIP3   OH2 2494   3.814   2.929   0.422
  850TIP3    H1 2495   3.885   2.912   0.488
  850TIP3    H2 2496   3.868   2.963   0.347
  851TIP3   OH2 2497   2.751   3.037   0.907
  851TIP3    H1 2498   2.832   3.017   0.957
  851TIP3    H2 2499   2.765   2.981   0.828
  852TIP3   OH2 2500   3.190   3.236   0.707
  852TIP3    H1 2501   3.284   3.211   0.718
  852TIP3    H2 2502   3.151   3.152   0.674
  853TIP3   OH2 2503   4.457   3.207   0.970
  853TIP3    H1 2504   4.371   3.250   0.952
  853TIP3    H2 2505   4.466   3.228   1.064
  854TIP3   OH2 2506   3.115   2.820   1.237
  854TIP3    H1 2507   3.054   2.855   1.169
  854TIP3    H2 2508   3.062   2.836   1.318
  855TIP3   OH2 2509   3.458   3.672   0.242
  855TIP3    H1 2510   3.417   3.658   0.156
  855TIP3    H2 2511   3.412   3.754   0.272
  856TIP3   OH2 2512   3.221   3.596   1.027
  856TIP3    H1 2513   3.161   3.664   1.064
  856TIP3    H2 2514   3.263   3.644   0.953
  857TIP3   OH2 2515   4.020   2.933   0.599
  857TIP3    H1 2516   4.002   2.886   0.682
  857TIP3    H2 2517   4.069   3.011   0.630
  858TIP3   OH2 2518   2.985   2.934   1.019
  858TIP3    H1 2519   3.048   3.005   1.043
  858TIP3    H2 2520   3.035   2.893   0.944
  859TIP3   OH2 2521   3.050   3.792   1.129
  859TIP3    H1 2522   3.024   3.879   1.093
  859TIP3    H2 2523   2.971   3.774   1.184
  860TIP3   OH2 2524   2.441   3.480   0.369
  860TIP3    H1 2525   2.403   3.503   0.281
  860TIP3    H2 2526   2.473   3.567   0.400
  861TIP3   OH2 2527   3.882   3.997   0.604
  861TIP3    H1 2528   3.792   3.988   0.644
  861TIP3    H2 2529   3.873   4.083   0.559
  862TIP3   OH2 2530   4.174   2.897   0.970
  862TIP3    H1 2531   4.086   2.921   0.937
  862TIP3    H2 2532   4.233   2.928   0.898
  863TIP3   OH2 2533   3.467   2.535   0.953
  863TIP3    H1 2534   3.452   2.440   0.971
  863TIP3    H2 2535   3.390   2.574   1.000
  864TIP3   OH2 2536   3.583   4.042   0.273
  864TIP3    H1 2537   3.631   3.958   0.256
  864TIP3    H2 2538   3.652   4.105   0.240
  865TIP3   OH2 2539   3.726   3.825   0.188
  865TIP3    H1 2540   3.684   3.746   0.153
  865TIP3    H2 2541   3.765   3.791   0.272
  866TIP3   OH2 2542   4.108   3.906   0.949
  866TIP3    H1 2543   4.094   3.829   0.890
  866TIP3    H2 2544   4.088   3.981   0.888
  867TIP3   OH2 2545   3.401   3.302   0.208
  867TIP3    H1 2546   3.321   3.355   0.189
  867TIP3    H2 2547   3.444   3.297   0.121
  868TIP3   OH2 2548   3.350   3.076  -0.060
  868TIP3    H1 2549   3.422   3.136  -0.036
  868TIP3    H2 2550   3.398   2.997  -0.087
  869TIP3   OH2 2551   4.303   3.548   0.796
  869TIP3    H1 2552   4.218   3.598   0.800
  869TIP3    H2 2553   4.332   3.572   0.705
  870TIP3   OH2 2554   3.747   3.381   0.176
  870TIP3    H1 2555   3.692   3.406   0.253
  870TIP3    H2 2556   3.831   3.357   0.220
  871TIP3   OH2 2557   3.981   3.422   1.093
  871TIP3    H1 2558   3.977   3.505   1.144
  871TIP3    H2 2559   3.894   3.425   1.048
  872TIP3   OH2 2560   2.979   3.380   0.595
  872TIP3    H1 2561   2.940   3.322   0.527
  872TIP3    H2 2562   3.055   3.327   0.626
  873TIP3   OH2 2563   3.108   3.794   0.742
  873TIP3    H1 2564   3.088   3.759   0.654
  873TIP3    H2 2565   3.197   3.757   0.759
  874TIP3   OH2 2566   3.112   3.353   0.950
  874TIP3    H1 2567   3.146   3.327   0.862
  874TIP3    H2 2568   3.157   3.438   0.967
  875TIP3   OH2 2569   3.642   3.991   0.727
  875TIP3    H1 2570   3.629   4.070   0.782
  875TIP3    H2 2571   3.625   3.918   0.790
  876TIP3   OH2 2572   3.255   3.909   1.274
  876TIP3    H1 2573   3.193   3.970   1.320
  876TIP3    H2 2574   3.190   3.856   1.223
  877TIP3   OH2 2575   3.585   3.242  -0.002
  877TIP3    H1 2576   3.642   3.301   0.051
  877TIP3    H2 2577   3.617   3.264  -0.093
  878TIP3   OH2 2578   3.010   3.464   1.378
  878TIP3    H1 2579   3.014   3.553   1.421
  878TIP3    H2 2580   2.916   3.443   1.390
  879TIP3   OH2 2581   3.333   3.917   0.285
  879TIP3    H1 2582   3.412   3.973   0.291
  879TIP3    H2 2583   3.271   3.971   0.234
  880TIP3   OH2 2584   3.047   4.075   1.361
  880TIP3    H1 2585   3.012   4.077   1.270
  880TIP3    H2 2586   2.967   4.054   1.414
  881TIP3   OH2 2587   4.109   2.484   0.054
  881TIP3    H1 2588   4.024   2.502   0.099
  881TIP3    H2 2589   4.119   2.564  -0.002
  882TIP3   OH2 2590   2.849   3.225   0.393
  882TIP3    H1 2591   2.777   3.268   0.343
  882TIP3    H2 2592   2.809   3.139   0.412
  883TIP3   OH2 2593   2.626   3.608   1.308
  883TIP3    H1 2594   2.561   3.585   1.239
  883TIP3    H2 2595   2.665   3.522   1.331
  884TIP3   OH2 2596   2.482   3.801   0.939
  884TIP3    H1 2597   2.578   3.793   0.929
  884TIP3    H2 2598   2.475   3.878   0.997
  885TIP3   OH2 2599   4.345   4.256   0.997
  885TIP3    H1 2600   4.344   4.159   1.012
  885TIP3    H2 2601   4.261   4.281   1.043
  886TIP3   OH2 2602   3.450   4.038   1.131
  886TIP3    H1 2603   3.447   4.130   1.163
  886TIP3    H2 2604   3.379   3.997   1.184
  887TIP3   OH2 2605   3.207   4.165   0.085
  887TIP3    H1 2606   3.163   4.146  -0.000
  887TIP3    H2 2607   3.177   4.255   0.104
  888TIP3   OH2 2608   2.649   4.015   0.469
  888TIP3    H1 2609   2.697   4.006   0.555
  888TIP3    H2 2610   2.602   3.930   0.466
  889TIP3   OH2 2611   3.411   4.030  -0.219
  889TIP3    H1 2612   3.501   4.018  -0.252
  889TIP3    H2 2613   3.431   4.054  -0.125
  890TIP3   OH2 2614   3.466   4.115   0.031
  890TIP3    H1 2615   3.373   4.129   0.062
  890TIP3    H2 2616   3.509   4.082   0.111
  891TIP3   OH2 2617   4.235   3.383   1.270
  891TIP3    H1 2618   4.150   3.392   1.224
  891TIP3    H2 2619   4.251   3.287   1.261
  892TIP3   OH2 2620   2.831   3.792   1.292
  892TIP3    H1 2621   2.880   3.775   1.375
  892TIP3    H2 2622   2.756   3.728   1.300
  893TIP3   OH2 2623   3.230   2.615   1.081
  893TIP3    H1 2624   3.142   2.583   1.053
  893TIP3    H2 2625   3.203   2.694   1.131
  894TIP3   OH2 2626   3.765   2.729   1.276
  894TIP3    H1 2627   3.834   2.700   1.339
  894TIP3    H2 2628   3.682   2.709   1.323
  895TIP3   OH2 2629   4.003   3.160   1.196
  895TIP3    H1 2630   3.951   3.156   1.279
  895TIP3    H2 2631   3.977   3.246   1.159
  896TIP3   OH2 2632   3.675   3.305  -0.251
  896TIP3    H1 2633   3.657   3.269  -0.339
  896TIP3    H2 2634   3.702   3.396  -0.272
  897TIP3   OH2 2635   3.391   2.686   0.056
  897TIP3    H1 2636   3.353   2.673   0.146
  897TIP3    H2 2637   3.357   2.608   0.010
  898TIP3   OH2 2638   3.163   3.131   1.099
  898TIP3    H1 2639   3.112   3.150   1.181
  898TIP3    H2 2640   3.145   3.212   1.047
  899TIP3   OH2 2641   3.044   3.019   0.616
  899TIP3    H1 2642   2.952   2.989   0.634
  899TIP3    H2 2643   3.058   2.977   0.528
  900TIP3   OH2 2644   3.537   3.101   0.344
  900TIP3    H1 2645   3.487   3.172   0.299
  900TIP3    H2 2646   3.592   3.066   0.271
  901TIP3   OH2 2647   3.711   3.377   1.426
  901TIP3    H1 2648   3.688   3.305   1.488
  901TIP3    H2 2649   3.805   3.391   1.449
  902TIP3   OH2 2650   3.693   3.128   0.578
  902TIP3    H1 2651   3.629   3.154   0.508
  902TIP3    H2 2652   3.729   3.048   0.534
  903TIP3   OH2 2653   2.982   3.157   1.307
  903TIP3    H1 2654   3.013   3.219   1.375
  903TIP3    H2 2655   2.970   3.075   1.358
  904TIP3   OH2 2656   3.037   2.619   0.024
  904TIP3    H1 2657   3.040   2.628   0.121
  904TIP3    H2 2658   2.948   2.650   0.005
  905TIP3   OH2 2659   2.575   2.689   0.890
  905TIP3    H1 2660   2.650   2.721   0.946
  905TIP3    H2 2661   2.620   2.656   0.811
  906TIP3   OH2 2662   2.605   2.724   0.454
  906TIP3    H1 2663   2.644   2.737   0.366
  906TIP3    H2 2664   2.528   2.783   0.449
  907TIP3   OH2 2665   3.705   3.374   1.000
  907TIP3    H1 2666   3.738   3.303   0.940
  907TIP3    H2 2667   3.674   3.320   1.075
  908TIP3   OH2 2668   3.379   2.840   0.673
  908TIP3    H1 2669   3.297   2.837   0.727
  908TIP3    H2 2670   3.447   2.830   0.741
  909TIP3   OH2 2671   2.808   2.893   0.678
  909TIP3    H1 2672   2.714   2.899   0.648
  909TIP3    H2 2673   2.832   2.802   0.654
  910TIP3   OH2 2674   3.079   2.894   0.379
  910TIP3    H1 2675   3.173   2.906   0.357
  910TIP3    H2 2676   3.033   2.913   0.294
  911TIP3   OH2 2677   3.866   2.914   0.876
  911TIP3    H1 2678   3.834   2.927   0.969
  911TIP3    H2 2679   3.798   2.853   0.843
  912TIP3   OH2 2680   2.924   2.926   0.161
  912TIP3    H1 2681   2.831   2.901   0.146
  912TIP3    H2 2682   2.956   2.957   0.075
  913TIP3   OH2 2683   4.039   4.603   1.097
  913TIP3    H1 2684   4.036   4.627   1.002
  913TIP3    H2 2685   4.118   4.651   1.127
  914TIP3   OH2 2686   2.993   3.715   1.515
  914TIP3    H1 2687   3.073   3.743   1.564
  914TIP3    H2 2688   2.928   3.711   1.588
  915TIP3   OH2 2689   3.455   3.170   0.773
  915TIP3    H1 2690   3.526   3.126   0.725
  915TIP3    H2 2691   3.457   3.124   0.860
  916TIP3   OH2 2692   2.976   2.652   0.651
  916TIP3    H1 2693   2.935   2.577   0.699
  916TIP3    H2 2694   3.015   2.606   0.576
  917TIP3   OH2 2695   3.432   3.070   1.055
  917TIP3    H1 2696   3.341   3.101   1.073
  917TIP3    H2 2697   3.488   3.129   1.109
  918TIP3   OH2 2698   3.170   3.453   0.155
  918TIP3    H1 2699   3.096   3.389   0.144
  918TIP3    H2 2700   3.150   3.488   0.246
  919TIP3   OH2 2701   4.067   3.690   0.782
  919TIP3    H1 2702   4.090   3.741   0.702
  919TIP3    H2 2703   3.983   3.647   0.757
  920TIP3   OH2 2704   3.650   2.763   0.017
  920TIP3    H1 2705   3.555   2.738   0.018
  920TIP3    H2 2706   3.647   2.858   0.039
  921TIP3   OH2 2707   3.569   3.774   1.153
  921TIP3    H1 2708   3.597   3.753   1.243
  921TIP3    H2 2709   3.529   3.862   1.162
  922TIP3   OH2 2710   3.693   3.017   0.127
  922TIP3    H1 2711   3.790   3.019   0.140
  922TIP3    H2 2712   3.677   3.095   0.072
  923TIP3   OH2 2713   2.862   3.478   0.829
  923TIP3    H1 2714   2.901   3.449   0.744
  923TIP3    H2 2715   2.907   3.419   0.892
  924TIP3   OH2 2716   3.316   3.604  -0.023
  924TIP3    H1 2717   3.269   3.691  -0.015
  924TIP3    H2 2718   3.261   3.549   0.038
  925TIP3   OH2 2719   2.744   3.397   1.446
  925TIP3    H1 2720   2.763   3.383   1.541
  925TIP3    H2 2721   2.677   3.329   1.429
  926TIP3   OH2 2722   3.471   3.514   1.463
  926TIP3    H1 2723   3.409   3.453   1.420
  926TIP3    H2 2724   3.557   3.476   1.435
  927TIP3   OH2 2725   3.728   4.035   1.049
  927TIP3    H1 2726   3.631   4.031   1.063
  927TIP3    H2 2727   3.755   4.086   1.128
  928TIP3   OH2 2728   4.132   3.106  -0.045
  928TIP3    H1 2729   4.071   3.063  -0.110
  928TIP3    H2 2730   4.128   3.197  -0.081
  929TIP3   OH2 2731   4.358   3.966   1.037
  929TIP3    H1 2732   4.260   3.958   1.029
  929TIP3    H2 2733   4.384   3.934   0.947
  930TIP3   OH2 2734   3.868   3.913  -0.145
  930TIP3    H1 2735   3.828   3.864  -0.072
  930TIP3    H2 2736   3.814   3.888  -0.221
  931TIP3   OH2 2737   3.835   3.553   0.699
  931TIP3    H1 2738   3.741   3.529   0.713
  931TIP3    H2 2739   3.867   3.472   0.655
  932TIP3   OH2 2740   2.965   3.783   0.459
  932TIP3    H1 2741   2.963   3.862   0.403
  932TIP3    H2 2742   2.872   3.761   0.466
  933TIP3   OH2 2743   2.530   3.082   0.175
  933TIP3    H1 2744   2.572   3.170   0.188
  933TIP3    H2 2745   2.445   3.094   0.220
  934TIP3   OH2 2746   3.096   3.544   0.398
  934TIP3    H1 2747   3.063   3.635   0.418
  934TIP3    H2 2748   3.061   3.494   0.474
  935TIP3   OH2 2749   3.234   4.123   0.925
  935TIP3    H1 2750   3.276   4.196   0.874
  935TIP3    H2 2751   3.310   4.086   0.972
  936TIP3   OH2 2752   2.881   4.020   0.309
  936TIP3    H1 2753   2.796   4.030   0.356
  936TIP3    H2 2754   2.914   4.113   0.311
  937TIP3   OH2 2755   3.618   3.758   0.885
  937TIP3    H1 2756   3.607   3.757   0.983
  937TIP3    H2 2757   3.696   3.703   0.874
  938TIP3   OH2 2758   3.581   3.610  -0.228
  938TIP3    H1 2759   3.641   3.608  -0.151
  938TIP3    H2 2760   3.496   3.628  -0.186
  939TIP3   OH2 2761   3.868   4.290   0.934
  939TIP3    H1 2762   3.789   4.233   0.929
  939TIP3    H2 2763   3.851   4.353   0.861
  940TIP3   OH2 2764   2.952   2.902   1.450
  940TIP3    H1 2765   2.855   2.900   1.461
  940TIP3    H2 2766   2.982   2.845   1.523
  941TIP3   OH2 2767   3.755   3.585  -0.013
  941TIP3    H1 2768   3.746   3.517   0.057
  941TIP3    H2 2769   3.852   3.583  -0.027
  942TIP3   OH2 2770   2.670   3.985   1.083
  942TIP3    H1 2771   2.725   3.912   1.117
  942TIP3    H2 2772   2.698   4.057   1.141
  943TIP3   OH2 2773   2.963   3.645  -0.224
  943TIP3    H1 2774   2.966   3.561  -0.271
  943TIP3    H2 2775   2.931   3.621  -0.134
  944TIP3   OH2 2776   2.900   3.639   0.050
  944TIP3    H1 2777   2.980   3.616   0.100
  944TIP3    H2 2778   2.906   3.737   0.048
  945TIP3   OH2 2779   2.639   3.331   0.246
  945TIP3    H1 2780   2.574   3.378   0.301
  945TIP3    H2 2781   2.653   3.398   0.176
  946TIP3   OH2 2782   3.794   2.965   1.137
  946TIP3    H1 2783   3.874   3.002   1.178
  946TIP3    H2 2784   3.779   2.884   1.190
  947TIP3   OH2 2785   3.667   2.718   0.301
  947TIP3    H1 2786   3.660   2.736   0.206
  947TIP3    H2 2787   3.709   2.800   0.335
  948TIP3   OH2 2788   3.177   3.833  -0.006
  948TIP3    H1 2789   3.090   3.867   0.024
  948TIP3    H2 2790   3.181   3.868  -0.096
  949TIP3   OH2 2791   3.357   2.899   0.404
  949TIP3    H1 2792   3.422   2.971   0.387
  949TIP3    H2 2793   3.364   2.890   0.502
  950TIP3   OH2 2794   3.631   3.214   1.208
  950TIP3    H1 2795   3.655   3.265   1.287
  950TIP3    H2 2796   3.682   3.132   1.219
  951TIP3   OH2 2797   3.503   2.620   0.504
  951TIP3    H1 2798   3.498   2.699   0.561
  951TIP3    H2 2799   3.564   2.654   0.434
  952TIP3   OH2 2800   2.920   3.910   0.058
  952TIP3    H1 2801   2.891   3.981  -0.004
  952TIP3    H2 2802   2.904   3.953   0.145
  953TIP3   OH2 2803   3.027   2.635   0.304
  953TIP3    H1 2804   3.027   2.725   0.343
  953TIP3    H2 2805   3.122   2.615   0.311
  954TIP3   OH2 2806   4.269   3.115   1.188
  954TIP3    H1 2807   4.171   3.117   1.200
  954TIP3    H2 2808   4.274   3.062   1.107
  955TIP3   OH2 2809   3.920   3.309   0.578
  955TIP3    H1 2810   3.843   3.251   0.590
  955TIP3    H2 2811   3.990   3.260   0.627
  956TIP3   OH2 2812   2.634   3.542   0.055
  956TIP3    H1 2813   2.711   3.601   0.064
  956TIP3    H2 2814   2.674   3.479  -0.010
  957TIP3   OH2 2815   2.623   2.829   0.174
  957TIP3    H1 2816   2.589   2.922   0.171
  957TIP3    H2 2817   2.563   2.784   0.112
  958TIP3   OH2 2818   3.890   4.266   0.528
  958TIP3    H1 2819   3.844   4.316   0.457
  958TIP3    H2 2820   3.984   4.285   0.505
  959TIP3   OH2 2821   2.964   2.536   1.059
  959TIP3    H1 2822   2.933   2.502   0.972
  959TIP3    H2 2823   2.955   2.457   1.115
  960TIP3   OH2 2824   2.504   3.755   0.432
  960TIP3    H1 2825   2.436   3.782   0.496
  960TIP3    H2 2826   2.470   3.797   0.350
  961TIP3   OH2 2827   2.664   4.301   1.507
  961TIP3    H1 2828   2.750   4.301   1.554
  961TIP3    H2 2829   2.644   4.206   1.506
  962TIP3   OH2 2830   3.139   4.256   1.551
  962TIP3    H1 2831   3.234   4.237   1.558
  962TIP3    H2 2832   3.114   4.195   1.479
  963TIP3   OH2 2833   3.143   3.833  -0.295
  963TIP3    H1 2834   3.063   3.778  -0.275
  963TIP3    H2 2835   3.200   3.764  -0.331
  964TIP3   OH2 2836   3.781   4.166   1.285
  964TIP3    H1 2837   3.773   4.096   1.354
  964TIP3    H2 2838   3.858   4.217   1.316
  965TIP3   OH2 2839   2.792   3.703   1.707
  965TIP3    H1 2840   2.808   3.607   1.715
  965TIP3    H2 2841   2.705   3.705   1.662
  966TIP3   OH2 2842   2.780   3.360  -0.078
  966TIP3    H1 2843   2.851   3.328  -0.019
  966TIP3    H2 2844   2.809   3.334  -0.166
  967TIP3   OH2 2845   3.398   3.789   1.481
  967TIP3    H1 2846   3.357   3.808   1.395
  967TIP3    H2 2847   3.429   3.697   1.471
  968TIP3   OH2 2848   3.260   3.546  -0.288
  968TIP3    H1 2849   3.277   3.572  -0.195
  968TIP3    H2 2850   3.282   3.453  -0.286
  969TIP3   OH2 2851   3.891   3.800   1.089
  969TIP3    H1 2852   3.967   3.843   1.045
  969TIP3    H2 2853   3.821   3.865   1.073
  970TIP3   OH2 2854   2.912   3.440   1.690
  970TIP3    H1 2855   2.988   3.385   1.665
  970TIP3    H2 2856   2.940   3.471   1.778
  971TIP3   OH2 2857   2.975   3.256   0.117
  971TIP3    H1 2858   2.948   3.223   0.205
  971TIP3    H2 2859   3.012   3.176   0.075
  972TIP3   OH2 2860   3.246   3.320   1.352
  972TIP3    H1 2861   3.168   3.380   1.352
  972TIP3    H2 2862   3.297   3.355   1.275
  973TIP3   OH2 2863   3.076   3.044  -0.043
  973TIP3    H1 2864   3.078   3.010  -0.133
  973TIP3    H2 2865   3.172   3.060  -0.030
  974TIP3   OH2 2866   3.764   3.723   1.484
  974TIP3    H1 2867   3.841   3.690   1.436
  974TIP3    H2 2868   3.757   3.659   1.557
  975TIP3   OH2 2869   3.371   3.111   1.475
  975TIP3    H1 2870   3.370   3.031   1.418
  975TIP3    H2 2871   3.325   3.177   1.418
  976TIP3   OH2 2872   3.373   2.898   1.285
  976TIP3    H1 2873   3.400   2.936   1.199
  976TIP3    H2 2874   3.280   2.874   1.266
  977TIP3   OH2 2875   3.395   3.430   1.159
  977TIP3    H1 2876   3.481   3.441   1.116
  977TIP3    H2 2877   3.339   3.495   1.111
  978TIP3   OH2 2878   3.977   3.396   1.536
  978TIP3    H1 2879   4.024   3.312   1.551
  978TIP3    H2 2880   4.048   3.452   1.501
  979TIP3   OH2 2881   4.021   3.651   1.274
  979TIP3    H1 2882   3.963   3.706   1.216
  979TIP3    H2 2883   4.108   3.672   1.235
  980TIP3   OH2 2884   3.248   3.216   1.709
  980TIP3    H1 2885   3.181   3.147   1.725
  980TIP3    H2 2886   3.281   3.190   1.621
  981TIP3   OH2 2887   3.504   2.658   1.353
  981TIP3    H1 2888   3.453   2.739   1.331
  981TIP3    H2 2889   3.436   2.588   1.343
  982TIP3   OH2 2890   3.630   3.160   1.569
  982TIP3    H1 2891   3.615   3.144   1.664
  982TIP3    H2 2892   3.541   3.137   1.535
  983TIP3   OH2 2893   3.868   3.112   1.424
  983TIP3    H1 2894   3.793   3.112   1.487
  983TIP3    H2 2895   3.942   3.081   1.480
  984TIP3   OH2 2896   4.101   3.055   1.571
  984TIP3    H1 2897   4.113   2.958   1.588
  984TIP3    H2 2898   4.095   3.091   1.662
  985TIP3   OH2 2899   3.087   2.997   1.764
  985TIP3    H1 2900   3.089   2.905   1.732
  985TIP3    H2 2901   3.126   2.985   1.853
  986TIP3   OH2 2902   3.599   2.670   1.611
  986TIP3    H1 2903   3.663   2.596   1.605
  986TIP3    H2 2904   3.558   2.664   1.522
  987TIP3   OH2 2905   3.666   2.884   1.768
  987TIP3    H1 2906   3.645   2.812   1.705
  987TIP3    H2 2907   3.586   2.940   1.763
  988TIP3   OH2 2908   2.873   4.110  -0.127
  988TIP3    H1 2909   2.967   4.113  -0.156
  988TIP3    H2 2910   2.828   4.136  -0.209
  989TIP3   OH2 2911   2.364   3.499   0.101
  989TIP3    H1 2912   2.453   3.530   0.075
  989TIP3    H2 2913   2.357   3.416   0.052
  990TIP3   OH2 2914   2.280   4.106   0.501
  990TIP3    H1 2915   2.215   4.043   0.462
  990TIP3    H2 2916   2.326   4.047   0.565
  991TIP3   OH2 2917   2.414   3.954   0.688
  991TIP3    H1 2918   2.403   3.882   0.752
  991TIP3    H2 2919   2.468   4.016   0.740
  992TIP3   OH2 2920   4.146   4.352   0.487
  992TIP3    H1 2921   4.170   4.385   0.575
  992TIP3    H2 2922   4.207   4.401   0.430
  993TIP3   OH2 2923   4.172   4.376   0.769
  993TIP3    H1 2924   4.125   4.290   0.765
  993TIP3    H2 2925   4.246   4.351   0.827
  994TIP3   OH2 2926   4.218   4.053   1.342
  994TIP3    H1 2927   4.147   4.063   1.408
  994TIP3    H2 2928   4.261   4.141   1.346
  995TIP3   OH2 2929   4.035   3.560  -0.033
  995TIP3    H1 2930   4.104   3.624  -0.055
  995TIP3    H2 2931   4.074   3.517   0.046
  996TIP3   OH2 2932   4.164   3.429   0.168
  996TIP3    H1 2933   4.096   3.388   0.226
  996TIP3    H2 2934   4.226   3.468   0.233
  997TIP3   OH2 2935   4.222   3.830   0.598
  997TIP3    H1 2936   4.272   3.761   0.550
  997TIP3    H2 2937   4.214   3.901   0.531
  998TIP3   OH2 2938   4.046   4.127   0.790
  998TIP3    H1 2939   3.974   4.169   0.841
  998TIP3    H2 2940   3.997   4.081   0.718
  999TIP3   OH2 2941   4.094   3.345  -0.196
  999TIP3    H1 2942   4.018   3.331  -0.255
  999TIP3    H2 2943   4.062   3.422  -0.144
 1000TIP3   OH2 2944   3.979   3.023  -0.253
 1000TIP3    H1 2945   3.969   3.043  -0.348
 1000TIP3    H2 2946   3.944   2.931  -0.249
 1001TIP3   OH2 2947   3.976   3.290   0.309
 1001TIP3    H1 2948   3.980   3.194   0.301
 1001TIP3    H2 2949   3.960   3.302   0.406
 1002TIP3   OH2 2950   2.600   3.367   1.058
 1002TIP3    H1 2951   2.599   3.331   0.967
 1002TIP3    H2 2952   2.697   3.366   1.076
 1003TIP3   OH2 2953   4.267   3.716   1.168
 1003TIP3    H1 2954   4.337   3.649   1.157
 1003TIP3    H2 2955   4.291   3.784   1.103
 1004TIP3   OH2 2956   4.450   3.517   1.174
 1004TIP3    H1 2957   4.375   3.469   1.215
 1004TIP3    H2 2958   4.523   3.453   1.193
 1005TIP3   OH2 2959   3.913   2.759  -0.226
 1005TIP3    H1 2960   3.997   2.720  -0.196
 1005TIP3    H2 2961   3.847   2.710  -0.175
 1006TIP3   OH2 2962   3.974   3.008   0.202
 1006TIP3    H1 2963   4.013   2.919   0.218
 1006TIP3    H2 2964   4.030   3.038   0.128
 1007TIP3   OH2 2965   4.132   3.176   0.701
 1007TIP3    H1 2966   4.218   3.202   0.659
 1007TIP3    H2 2967   4.146   3.215   0.789
 1008TIP3   OH2 2968   4.204   3.325   0.929
 1008TIP3    H1 2969   4.127   3.357   0.979
 1008TIP3    H2 2970   4.236   3.407   0.886
 1009TIP3   OH2 2971   2.821   3.050   1.731
 1009TIP3    H1 2972   2.919   3.044   1.736
 1009TIP3    H2 2973   2.797   2.963   1.769
 1010TIP3   OH2 2974   4.656   2.920   1.485
 1010TIP3    H1 2975   4.716   2.854   1.443
 1010TIP3    H2 2976   4.625   2.971   1.407
 1011TIP3   OH2 2977   4.082   2.758   0.242
 1011TIP3    H1 2978   4.127   2.741   0.327
 1011TIP3    H2 2979   4.020   2.681   0.239
 1012TIP3   OH2 2980   2.780   2.743   1.065
 1012TIP3    H1 2981   2.841   2.667   1.074
 1012TIP3    H2 2982   2.843   2.816   1.056
 1013TIP3   OH2 2983   2.581   3.007   1.133
 1013TIP3    H1 2984   2.630   3.011   1.049
 1013TIP3    H2 2985   2.602   3.091   1.174
 1014TIP3   OH2 2986   4.524   3.054   1.288
 1014TIP3    H1 2987   4.439   3.097   1.311
 1014TIP3    H2 2988   4.490   2.980   1.232
 1015TIP3   OH2 2989   4.173   2.686  -0.141
 1015TIP3    H1 2990   4.217   2.642  -0.216
 1015TIP3    H2 2991   4.228   2.766  -0.131
 1016TIP3   OH2 2992   2.564   2.535   0.641
 1016TIP3    H1 2993   2.469   2.543   0.650
 1016TIP3    H2 2994   2.585   2.603   0.574
 1017TIP3   OH2 2995   3.747   4.221   0.150
 1017TIP3    H1 2996   3.777   4.207   0.058
 1017TIP3    H2 2997   3.785   4.307   0.170
 1018TIP3   OH2 2998   2.788   2.606   1.450
 1018TIP3    H1 2999   2.736   2.597   1.531
 1018TIP3    H2 3000   2.720   2.639   1.388
 1019TIP3   OH2 3001   2.826   4.032   1.526
 1019TIP3    H1 3002   2.734   4.005   1.510
 1019TIP3    H2 3003   2.839   4.008   1.618
 1020TIP3   OH2 3004   3.007   4.064   1.075
 1020TIP3    H1 3005   2.960   4.140   1.035
 1020TIP3    H2 3006   3.093   4.076   1.030
 1021TIP3   OH2 3007   3.447   4.305   1.212
 1021TIP3    H1 3008   3.489   4.303   1.300
 1021TIP3    H2 3009   3.513   4.357   1.161
 1022TIP3   OH2 3010   3.627   4.459   1.074
 1022TIP3    H1 3011   3.696   4.408   1.030
 1022TIP3    H2 3012   3.680   4.515   1.134
 1023TIP3   OH2 3013   4.424   2.816   1.171
 1023TIP3    H1 3014   4.334   2.804   1.138
 1023TIP3    H2 3015   4.459   2.724   1.162
 1024TIP3   OH2 3016   2.681   4.318   1.098
 1024TIP3    H1 3017   2.590   4.351   1.077
 1024TIP3    H2 3018   2.694   4.360   1.184
 1025TIP3   OH2 3019   2.918   4.298   0.959
 1025TIP3    H1 3020   2.830   4.309   1.001
 1025TIP3    H2 3021   2.900   4.328   0.867
 1026TIP3   OH2 3022   3.343   4.322   0.756
 1026TIP3    H1 3023   3.274   4.340   0.690
 1026TIP3    H2 3024   3.355   4.411   0.797
 1027TIP3   OH2 3025   3.613   4.263   0.809
 1027TIP3    H1 3026   3.519   4.279   0.788
 1027TIP3    H2 3027   3.657   4.335   0.761
 1028TIP3   OH2 3028   3.820   4.454   0.719
 1028TIP3    H1 3029   3.804   4.538   0.671
 1028TIP3    H2 3030   3.845   4.394   0.646
 1029TIP3   OH2 3031   2.592   4.110   0.844
 1029TIP3    H1 3032   2.620   4.082   0.934
 1029TIP3    H2 3033   2.664   4.067   0.792
 1030TIP3   OH2 3034   2.788   3.984   0.703
 1030TIP3    H1 3035   2.803   3.899   0.752
 1030TIP3    H2 3036   2.880   4.018   0.698
 1031TIP3   OH2 3037   3.056   4.075   0.707
 1031TIP3    H1 3038   3.085   3.983   0.695
 1031TIP3    H2 3039   3.104   4.097   0.789
 1032TIP3   OH2 3040   3.628   2.731   0.792
 1032TIP3    H1 3041   3.586   2.660   0.844
 1032TIP3    H2 3042   3.701   2.684   0.748
 1033TIP3   OH2 3043   4.150   2.618   0.696
 1033TIP3    H1 3044   4.184   2.668   0.619
 1033TIP3    H2 3045   4.054   2.631   0.687
 1034TIP3   OH2 3046   4.247   2.715   0.459
 1034TIP3    H1 3047   4.321   2.663   0.420
 1034TIP3    H2 3048   4.279   2.806   0.444
 1035TIP3   OH2 3049   2.873   2.448   0.816
 1035TIP3    H1 3050   2.785   2.410   0.797
 1035TIP3    H2 3051   2.929   2.368   0.804
 1036TIP3   OH2 3052   2.786   2.389   0.534
 1036TIP3    H1 3053   2.736   2.355   0.458
 1036TIP3    H2 3054   2.714   2.429   0.586
 1037TIP3   OH2 3055   3.326   2.472   0.685
 1037TIP3    H1 3056   3.384   2.521   0.625
 1037TIP3    H2 3057   3.348   2.511   0.771
 1038TIP3   OH2 3058   3.868   2.621   0.668
 1038TIP3    H1 3059   3.866   2.578   0.582
 1038TIP3    H2 3060   3.856   2.543   0.728
 1039TIP3   OH2 3061   3.902   2.544   0.236
 1039TIP3    H1 3062   3.811   2.580   0.239
 1039TIP3    H2 3063   3.888   2.458   0.281
 1040TIP3   OH2 3064   2.379   3.887   0.234
 1040TIP3    H1 3065   2.300   3.845   0.196
 1040TIP3    H2 3066   2.362   3.980   0.213
 1041TIP3   OH2 3067   2.781   2.510   0.250
 1041TIP3    H1 3068   2.832   2.430   0.235
 1041TIP3    H2 3069   2.849   2.567   0.291
 1042TIP3   OH2 3070   3.300   2.647   0.315
 1042TIP3    H1 3071   3.358   2.600   0.378
 1042TIP3    H2 3072   3.321   2.739   0.341
 1043TIP3   OH2 3073   3.142   4.084  -0.187
 1043TIP3    H1 3074   3.238   4.087  -0.204
 1043TIP3    H2 3075   3.122   4.006  -0.243
 1044TIP3   OH2 3076   3.872   4.185  -0.099
 1044TIP3    H1 3077   3.866   4.089  -0.117
 1044TIP3    H2 3078   3.855   4.223  -0.187
 1045TIP3   OH2 3079   3.084   2.724   1.701
 1045TIP3    H1 3080   3.049   2.651   1.755
 1045TIP3    H2 3081   3.179   2.722   1.728
 1046TIP3   OH2 3082   3.336   2.722   1.816
 1046TIP3    H1 3083   3.420   2.691   1.778
 1046TIP3    H2 3084   3.321   2.654   1.886
 1047TIP3   OH2 3085   2.449   3.917  -0.100
 1047TIP3    H1 3086   2.458   3.951  -0.011
 1047TIP3    H2 3087   2.535   3.880  -0.119
 1048TIP3   OH2 3088   4.162   2.783   1.603
 1048TIP3    H1 3089   4.178   2.752   1.695
 1048TIP3    H2 3090   4.251   2.777   1.564
 1049TIP3   OH2 3091   4.097   4.333   1.096
 1049TIP3    H1 3092   4.018   4.302   1.046
 1049TIP3    H2 3093   4.076   4.428   1.103
 1050TIP3   OH2 3094   5.360   3.701   0.248
 1050TIP3    H1 3095   5.399   3.688   0.336
 1050TIP3    H2 3096   5.315   3.616   0.233
 1051TIP3   OH2 3097   4.664   3.599   0.607
 1051TIP3    H1 3098   4.691   3.528   0.668
 1051TIP3    H2 3099   4.737   3.661   0.618
 1052TIP3   OH2 3100   4.637   4.009   0.335
 1052TIP3    H1 3101   4.627   3.911   0.337
 1052TIP3    H2 3102   4.734   4.016   0.330
 1053TIP3   OH2 3103   4.345   3.219   0.107
 1053TIP3    H1 3104   4.291   3.297   0.131
 1053TIP3    H2 3105   4.275   3.159   0.075
 1054TIP3   OH2 3106   4.399   3.501   0.297
 1054TIP3    H1 3107   4.447   3.422   0.330
 1054TIP3    H2 3108   4.465   3.541   0.238
 1055TIP3   OH2 3109   5.168   3.930   0.284
 1055TIP3    H1 3110   5.210   3.850   0.249
 1055TIP3    H2 3111   5.248   3.976   0.316
 1056TIP3   OH2 3112   6.181   3.256   0.287
 1056TIP3    H1 3113   6.202   3.330   0.348
 1056TIP3    H2 3114   6.261   3.254   0.233
 1057TIP3   OH2 3115   5.587   3.434   0.350
 1057TIP3    H1 3116   5.624   3.346   0.372
 1057TIP3    H2 3117   5.543   3.413   0.265
 1058TIP3   OH2 3118   4.922   3.088   0.291
 1058TIP3    H1 3119   4.889   3.167   0.243
 1058TIP3    H2 3120   4.870   3.017   0.246
 1059TIP3   OH2 3121   5.591   3.167  -0.036
 1059TIP3    H1 3122   5.673   3.157   0.017
 1059TIP3    H2 3123   5.631   3.173  -0.125
 1060TIP3   OH2 3124   4.547   3.295   0.396
 1060TIP3    H1 3125   4.630   3.274   0.444
 1060TIP3    H2 3126   4.556   3.233   0.320
 1061TIP3   OH2 3127   4.994   3.502   0.193
 1061TIP3    H1 3128   5.087   3.474   0.208
 1061TIP3    H2 3129   4.950   3.416   0.178
 1062TIP3   OH2 3130   6.247   3.459   0.460
 1062TIP3    H1 3131   6.160   3.504   0.448
 1062TIP3    H2 3132   6.268   3.487   0.550
 1063TIP3   OH2 3133   4.911   3.076   0.724
 1063TIP3    H1 3134   4.849   3.113   0.658
 1063TIP3    H2 3135   4.859   3.091   0.806
 1064TIP3   OH2 3136   5.017   3.855   0.515
 1064TIP3    H1 3137   4.955   3.920   0.554
 1064TIP3    H2 3138   5.054   3.906   0.440
 1065TIP3   OH2 3139   5.831   3.188   0.091
 1065TIP3    H1 3140   5.834   3.125   0.163
 1065TIP3    H2 3141   5.868   3.268   0.133
 1066TIP3   OH2 3142   4.783   3.191   0.506
 1066TIP3    H1 3143   4.844   3.264   0.531
 1066TIP3    H2 3144   4.836   3.147   0.437
 1067TIP3   OH2 3145   4.846   4.048   0.617
 1067TIP3    H1 3146   4.821   4.134   0.578
 1067TIP3    H2 3147   4.766   4.032   0.672
 1068TIP3   OH2 3148   4.231   3.739  -0.130
 1068TIP3    H1 3149   4.159   3.760  -0.191
 1068TIP3    H2 3150   4.235   3.819  -0.072
 1069TIP3   OH2 3151   5.970   3.156   0.459
 1069TIP3    H1 3152   5.880   3.177   0.429
 1069TIP3    H2 3153   6.024   3.183   0.383
 1070TIP3   OH2 3154   5.262   2.792   0.439
 1070TIP3    H1 3155   5.248   2.697   0.460
 1070TIP3    H2 3156   5.185   2.832   0.487
 1071TIP3   OH2 3157   5.902   4.172   0.445
 1071TIP3    H1 3158   5.895   4.096   0.384
 1071TIP3    H2 3159   5.877   4.247   0.387
 1072TIP3   OH2 3160   6.096   3.803   0.322
 1072TIP3    H1 3161   6.018   3.859   0.303
 1072TIP3    H2 3162   6.129   3.780   0.232
 1073TIP3   OH2 3163   5.775   3.679   0.581
 1073TIP3    H1 3164   5.776   3.760   0.636
 1073TIP3    H2 3165   5.688   3.688   0.537
 1074TIP3   OH2 3166   4.771   3.619   0.087
 1074TIP3    H1 3167   4.732   3.548   0.033
 1074TIP3    H2 3168   4.852   3.576   0.123
 1075TIP3   OH2 3169   4.902   4.026   0.254
 1075TIP3    H1 3170   4.876   4.010   0.162
 1075TIP3    H2 3171   4.996   3.999   0.255
 1076TIP3   OH2 3172   4.916   3.610   0.437
 1076TIP3    H1 3173   4.951   3.591   0.348
 1076TIP3    H2 3174   4.956   3.698   0.457
 1077TIP3   OH2 3175   5.457   4.226   0.208
 1077TIP3    H1 3176   5.435   4.307   0.257
 1077TIP3    H2 3177   5.427   4.156   0.270
 1078TIP3   OH2 3178   5.051   4.165   0.761
 1078TIP3    H1 3179   4.989   4.227   0.807
 1078TIP3    H2 3180   4.986   4.112   0.710
 1079TIP3   OH2 3181   4.804   3.720   0.861
 1079TIP3    H1 3182   4.810   3.808   0.904
 1079TIP3    H2 3183   4.710   3.699   0.880
 1080TIP3   OH2 3184   4.844   4.332   0.848
 1080TIP3    H1 3185   4.809   4.335   0.757
 1080TIP3    H2 3186   4.763   4.310   0.901
 1081TIP3   OH2 3187   4.598   3.464  -0.085
 1081TIP3    H1 3188   4.514   3.509  -0.070
 1081TIP3    H2 3189   4.573   3.371  -0.071
 1082TIP3   OH2 3190   4.423   3.865   0.794
 1082TIP3    H1 3191   4.354   3.845   0.728
 1082TIP3    H2 3192   4.459   3.776   0.815
 1083TIP3   OH2 3193   4.276   4.061   0.422
 1083TIP3    H1 3194   4.372   4.056   0.420
 1083TIP3    H2 3195   4.262   4.138   0.480
 1084TIP3   OH2 3196   6.145   4.499   0.508
 1084TIP3    H1 3197   6.144   4.403   0.524
 1084TIP3    H2 3198   6.063   4.526   0.556
 1085TIP3   OH2 3199   5.247   4.293   0.618
 1085TIP3    H1 3200   5.244   4.385   0.650
 1085TIP3    H2 3201   5.175   4.252   0.672
 1086TIP3   OH2 3202   4.430   4.253  -0.030
 1086TIP3    H1 3203   4.502   4.257   0.037
 1086TIP3    H2 3204   4.356   4.226   0.028
 1087TIP3   OH2 3205   6.029   3.637   0.760
 1087TIP3    H1 3206   5.943   3.647   0.717
 1087TIP3    H2 3207   6.046   3.541   0.751
 1088TIP3   OH2 3208   4.627   4.048   0.779
 1088TIP3    H1 3209   4.676   4.031   0.862
 1088TIP3    H2 3210   4.552   3.985   0.787
 1089TIP3   OH2 3211   5.026   2.872   0.568
 1089TIP3    H1 3212   4.938   2.840   0.539
 1089TIP3    H2 3213   4.998   2.950   0.620
 1090TIP3   OH2 3214   5.561   2.984   0.763
 1090TIP3    H1 3215   5.631   2.957   0.827
 1090TIP3    H2 3216   5.479   2.965   0.812
 1091TIP3   OH2 3217   5.796   3.417   0.682
 1091TIP3    H1 3218   5.746   3.412   0.766
 1091TIP3    H2 3219   5.769   3.504   0.646
 1092TIP3   OH2 3220   4.959   3.387   0.586
 1092TIP3    H1 3221   4.909   3.406   0.667
 1092TIP3    H2 3222   4.943   3.470   0.534
 1093TIP3   OH2 3223   4.827   3.290   0.137
 1093TIP3    H1 3224   4.734   3.264   0.156
 1093TIP3    H2 3225   4.844   3.230   0.061
 1094TIP3   OH2 3226   5.507   3.633   0.911
 1094TIP3    H1 3227   5.485   3.562   0.974
 1094TIP3    H2 3228   5.600   3.650   0.935
 1095TIP3   OH2 3229   5.493   3.387   0.100
 1095TIP3    H1 3230   5.458   3.422   0.016
 1095TIP3    H2 3231   5.529   3.301   0.069
 1096TIP3   OH2 3232   4.779   3.413   0.793
 1096TIP3    H1 3233   4.802   3.477   0.862
 1096TIP3    H2 3234   4.765   3.331   0.845
 1097TIP3   OH2 3235   4.369   2.941   0.373
 1097TIP3    H1 3236   4.447   2.966   0.425
 1097TIP3    H2 3237   4.406   2.898   0.294
 1098TIP3   OH2 3238   4.335   2.919  -0.097
 1098TIP3    H1 3239   4.382   2.949  -0.178
 1098TIP3    H2 3240   4.273   2.993  -0.083
 1099TIP3   OH2 3241   5.490   3.639   0.491
 1099TIP3    H1 3242   5.532   3.567   0.438
 1099TIP3    H2 3243   5.462   3.586   0.569
 1100TIP3   OH2 3244   5.174   3.099   0.166
 1100TIP3    H1 3245   5.092   3.093   0.219
 1100TIP3    H2 3246   5.242   3.090   0.235
 1101TIP3   OH2 3247   4.600   3.148   0.170
 1101TIP3    H1 3248   4.506   3.156   0.139
 1101TIP3    H2 3249   4.622   3.056   0.146
 1102TIP3   OH2 3250   4.868   3.136  -0.078
 1102TIP3    H1 3251   4.963   3.115  -0.088
 1102TIP3    H2 3252   4.862   3.210  -0.141
 1103TIP3   OH2 3253   5.663   3.166   0.361
 1103TIP3    H1 3254   5.634   3.175   0.455
 1103TIP3    H2 3255   5.595   3.106   0.327
 1104TIP3   OH2 3256   5.842   4.850   0.595
 1104TIP3    H1 3257   5.825   4.880   0.502
 1104TIP3    H2 3258   5.914   4.912   0.617
 1105TIP3   OH2 3259   4.790   3.969   1.001
 1105TIP3    H1 3260   4.869   3.999   1.051
 1105TIP3    H2 3261   4.725   3.966   1.074
 1106TIP3   OH2 3262   5.251   3.427   0.266
 1106TIP3    H1 3263   5.329   3.388   0.224
 1106TIP3    H2 3264   5.249   3.383   0.353
 1107TIP3   OH2 3265   4.774   2.907   0.145
 1107TIP3    H1 3266   4.732   2.832   0.194
 1107TIP3    H2 3267   4.831   2.859   0.084
 1108TIP3   OH2 3268   5.229   3.331   0.537
 1108TIP3    H1 3269   5.138   3.361   0.560
 1108TIP3    H2 3270   5.285   3.387   0.594
 1109TIP3   OH2 3271   5.864   3.955   0.280
 1109TIP3    H1 3272   5.824   3.997   0.201
 1109TIP3    H2 3273   5.787   3.901   0.307
 1110TIP3   OH2 3274   5.364   4.030   0.642
 1110TIP3    H1 3275   5.393   4.013   0.732
 1110TIP3    H2 3276   5.327   4.119   0.647
 1111TIP3   OH2 3277   4.655   3.730   0.320
 1111TIP3    H1 3278   4.697   3.697   0.238
 1111TIP3    H2 3279   4.697   3.676   0.388
 1112TIP3   OH2 3280   4.542   3.649   0.931
 1112TIP3    H1 3281   4.556   3.636   1.027
 1112TIP3    H2 3282   4.470   3.586   0.913
 1113TIP3   OH2 3283   5.266   3.770   0.950
 1113TIP3    H1 3284   5.204   3.707   0.910
 1113TIP3    H2 3285   5.353   3.733   0.921
 1114TIP3   OH2 3286   5.525   4.284   0.539
 1114TIP3    H1 3287   5.429   4.288   0.549
 1114TIP3    H2 3288   5.554   4.338   0.616
 1115TIP3   OH2 3289   6.152   4.219   0.537
 1115TIP3    H1 3290   6.054   4.218   0.531
 1115TIP3    H2 3291   6.175   4.190   0.446
 1116TIP3   OH2 3292   5.633   3.801   0.234
 1116TIP3    H1 3293   5.536   3.797   0.220
 1116TIP3    H2 3294   5.660   3.716   0.195
 1117TIP3   OH2 3295   4.746   4.021   0.001
 1117TIP3    H1 3296   4.793   4.104  -0.023
 1117TIP3    H2 3297   4.664   4.056   0.038
 1118TIP3   OH2 3298   4.343   3.329  -0.306
 1118TIP3    H1 3299   4.341   3.412  -0.357
 1118TIP3    H2 3300   4.257   3.332  -0.260
 1119TIP3   OH2 3301   4.891   3.806  -0.081
 1119TIP3    H1 3302   4.831   3.875  -0.046
 1119TIP3    H2 3303   4.863   3.730  -0.027
 1120TIP3   OH2 3304   5.034   4.371   0.414
 1120TIP3    H1 3305   5.071   4.448   0.366
 1120TIP3    H2 3306   5.112   4.341   0.464
 1121TIP3   OH2 3307   5.417   4.004   0.376
 1121TIP3    H1 3308   5.400   4.009   0.473
 1121TIP3    H2 3309   5.503   3.960   0.375
 1122TIP3   OH2 3310   5.660   4.552   0.424
 1122TIP3    H1 3311   5.581   4.494   0.423
 1122TIP3    H2 3312   5.639   4.611   0.349
 1123TIP3   OH2 3313   4.748   3.158   0.936
 1123TIP3    H1 3314   4.651   3.162   0.949
 1123TIP3    H2 3315   4.775   3.102   1.011
 1124TIP3   OH2 3316   4.469   4.240   0.570
 1124TIP3    H1 3317   4.522   4.169   0.610
 1124TIP3    H2 3318   4.493   4.316   0.624
 1125TIP3   OH2 3319   5.596   3.215   0.618
 1125TIP3    H1 3320   5.669   3.259   0.664
 1125TIP3    H2 3321   5.580   3.136   0.676
 1126TIP3   OH2 3322   5.145   3.140  -0.100
 1126TIP3    H1 3323   5.182   3.224  -0.127
 1126TIP3    H2 3324   5.163   3.137  -0.003
 1127TIP3   OH2 3325   5.428   3.471   0.697
 1127TIP3    H1 3326   5.449   3.526   0.775
 1127TIP3    H2 3327   5.480   3.391   0.715
 1128TIP3   OH2 3328   5.311   2.884   0.006
 1128TIP3    H1 3329   5.298   2.950   0.077
 1128TIP3    H2 3330   5.378   2.929  -0.046
 1129TIP3   OH2 3331   4.807   2.887  -0.228
 1129TIP3    H1 3332   4.786   2.952  -0.159
 1129TIP3    H2 3333   4.897   2.861  -0.198
 1130TIP3   OH2 3334   6.061   3.369   0.677
 1130TIP3    H1 3335   5.963   3.373   0.687
 1130TIP3    H2 3336   6.067   3.313   0.599
 1131TIP3   OH2 3337   5.713   3.568   0.107
 1131TIP3    H1 3338   5.636   3.509   0.121
 1131TIP3    H2 3339   5.785   3.515   0.149
 1132TIP3   OH2 3340   4.388   3.060  -0.333
 1132TIP3    H1 3341   4.369   3.155  -0.319
 1132TIP3    H2 3342   4.313   3.032  -0.387
 1133TIP3   OH2 3343   4.764   2.790   0.539
 1133TIP3    H1 3344   4.731   2.754   0.453
 1133TIP3    H2 3345   4.753   2.713   0.598
 1134TIP3   OH2 3346   4.265   3.988  -0.024
 1134TIP3    H1 3347   4.225   4.050   0.040
 1134TIP3    H2 3348   4.300   4.049  -0.090
 1135TIP3   OH2 3349   4.460   4.557   0.994
 1135TIP3    H1 3350   4.546   4.555   1.040
 1135TIP3    H2 3351   4.438   4.462   0.992
 1136TIP3   OH2 3352   4.937   4.513   1.038
 1136TIP3    H1 3353   5.031   4.491   1.044
 1136TIP3    H2 3354   4.909   4.452   0.966
 1137TIP3   OH2 3355   5.579   4.421   0.771
 1137TIP3    H1 3356   5.570   4.352   0.841
 1137TIP3    H2 3357   5.655   4.474   0.803
 1138TIP3   OH2 3358   4.588   3.960   1.193
 1138TIP3    H1 3359   4.603   3.864   1.202
 1138TIP3    H2 3360   4.501   3.962   1.148
 1139TIP3   OH2 3361   5.195   4.046   0.968
 1139TIP3    H1 3362   5.152   4.066   0.882
 1139TIP3    H2 3363   5.225   3.954   0.957
 1140TIP3   OH2 3364   5.685   4.053   0.569
 1140TIP3    H1 3365   5.762   4.103   0.536
 1140TIP3    H2 3366   5.615   4.120   0.560
 1141TIP3   OH2 3367   4.710   3.697   1.177
 1141TIP3    H1 3368   4.783   3.639   1.155
 1141TIP3    H2 3369   4.736   3.729   1.266
 1142TIP3   OH2 3370   5.044   3.579   0.838
 1142TIP3    H1 3371   4.964   3.636   0.838
 1142TIP3    H2 3372   5.094   3.613   0.760
 1143TIP3   OH2 3373   5.559   3.979   0.971
 1143TIP3    H1 3374   5.641   3.950   0.928
 1143TIP3    H2 3375   5.552   3.915   1.044
 1144TIP3   OH2 3376   5.167   3.368   0.961
 1144TIP3    H1 3377   5.166   3.289   0.904
 1144TIP3    H2 3378   5.122   3.434   0.905
 1145TIP3   OH2 3379   5.169   3.155   0.769
 1145TIP3    H1 3380   5.195   3.193   0.684
 1145TIP3    H2 3381   5.075   3.131   0.753
 1146TIP3   OH2 3382   5.192   3.685   0.641
 1146TIP3    H1 3383   5.278   3.704   0.602
 1146TIP3    H2 3384   5.135   3.752   0.597
 1147TIP3   OH2 3385   5.773   3.652   1.022
 1147TIP3    H1 3386   5.822   3.571   1.043
 1147TIP3    H2 3387   5.843   3.710   0.991
 1148TIP3   OH2 3388   5.816   3.905   0.756
 1148TIP3    H1 3389   5.758   3.960   0.698
 1148TIP3    H2 3390   5.904   3.928   0.718
 1149TIP3   OH2 3391   5.045   3.472   1.196
 1149TIP3    H1 3392   4.977   3.404   1.213
 1149TIP3    H2 3393   5.078   3.446   1.108
 1150TIP3   OH2 3394   5.299   2.914   0.839
 1150TIP3    H1 3395   5.249   2.995   0.818
 1150TIP3    H2 3396   5.230   2.845   0.830
 1151TIP3   OH2 3397   5.427   3.417   1.055
 1151TIP3    H1 3398   5.413   3.402   1.151
 1151TIP3    H2 3399   5.337   3.394   1.023
 1152TIP3   OH2 3400   5.662   3.363   0.908
 1152TIP3    H1 3401   5.589   3.368   0.973
 1152TIP3    H2 3402   5.737   3.336   0.964
 1153TIP3   OH2 3403   5.893   3.310   1.056
 1153TIP3    H1 3404   5.907   3.214   1.074
 1153TIP3    H2 3405   5.888   3.347   1.147
 1154TIP3   OH2 3406   4.884   3.253   1.250
 1154TIP3    H1 3407   4.886   3.161   1.219
 1154TIP3    H2 3408   4.921   3.242   1.340
 1155TIP3   OH2 3409   5.394   2.926   1.098
 1155TIP3    H1 3410   5.460   2.853   1.092
 1155TIP3    H2 3411   5.354   2.919   1.009
 1156TIP3   OH2 3412   5.462   3.140   1.256
 1156TIP3    H1 3413   5.440   3.069   1.192
 1156TIP3    H2 3414   5.382   3.197   1.250
 1157TIP3   OH2 3415   4.069   4.353  -0.010
 1157TIP3    H1 3416   4.002   4.295  -0.054
 1157TIP3    H2 3417   4.110   4.291   0.053
 1158TIP3   OH2 3418   4.225   4.203   0.166
 1158TIP3    H1 3419   4.201   4.140   0.237
 1158TIP3    H2 3420   4.265   4.273   0.221
 1159TIP3   OH2 3421   5.974   4.631   0.313
 1159TIP3    H1 3422   5.936   4.543   0.332
 1159TIP3    H2 3423   6.049   4.632   0.376
 1160TIP3   OH2 3424   6.014   4.309   0.828
 1160TIP3    H1 3425   5.942   4.320   0.895
 1160TIP3    H2 3426   6.057   4.397   0.833
 1161TIP3   OH2 3427   5.830   4.386   0.289
 1161TIP3    H1 3428   5.764   4.433   0.344
 1161TIP3    H2 3429   5.783   4.388   0.204
 1162TIP3   OH2 3430   4.398   3.620   0.547
 1162TIP3    H1 3431   4.393   3.587   0.455
 1162TIP3    H2 3432   4.495   3.621   0.561
 1163TIP3   OH2 3433   6.061   3.972   0.655
 1163TIP3    H1 3434   6.132   3.905   0.644
 1163TIP3    H2 3435   6.092   4.044   0.597
 1164TIP3   OH2 3436   6.243   3.772   0.664
 1164TIP3    H1 3437   6.169   3.722   0.706
 1164TIP3    H2 3438   6.317   3.709   0.681
 1165TIP3   OH2 3439   5.932   3.429   0.193
 1165TIP3    H1 3440   6.012   3.453   0.142
 1165TIP3    H2 3441   5.954   3.468   0.281
 1166TIP3   OH2 3442   5.993   3.573   0.421
 1166TIP3    H1 3443   5.915   3.600   0.473
 1166TIP3    H2 3444   6.029   3.661   0.396
 1167TIP3   OH2 3445   4.618   3.307   1.221
 1167TIP3    H1 3446   4.716   3.300   1.225
 1167TIP3    H2 3447   4.593   3.220   1.257
 1168TIP3   OH2 3448   6.448   3.175   0.972
 1168TIP3    H1 3449   6.511   3.111   0.932
 1168TIP3    H2 3450   6.420   3.228   0.894
 1169TIP3   OH2 3451   4.579   2.998   0.544
 1169TIP3    H1 3452   4.640   2.922   0.555
 1169TIP3    H2 3453   4.642   3.072   0.540
 1170TIP3   OH2 3454   4.378   3.271   0.622
 1170TIP3    H1 3455   4.428   3.270   0.537
 1170TIP3    H2 3456   4.405   3.356   0.659
 1171TIP3   OH2 3457   6.319   3.311   0.775
 1171TIP3    H1 3458   6.236   3.354   0.803
 1171TIP3    H2 3459   6.283   3.238   0.721
 1172TIP3   OH2 3460   4.366   2.780   0.133
 1172TIP3    H1 3461   4.272   2.767   0.156
 1172TIP3    H2 3462   4.360   2.835   0.052
 1173TIP3   OH2 3463   4.585   2.856   0.936
 1173TIP3    H1 3464   4.533   2.850   1.018
 1173TIP3    H2 3465   4.518   2.894   0.876
 1174TIP3   OH2 3466   4.623   4.287   1.013
 1174TIP3    H1 3467   4.530   4.262   0.997
 1174TIP3    H2 3468   4.634   4.264   1.106
 1175TIP3   OH2 3469   4.804   4.321   0.562
 1175TIP3    H1 3470   4.756   4.396   0.521
 1175TIP3    H2 3471   4.891   4.333   0.517
 1176TIP3   OH2 3472   5.241   4.558   0.701
 1176TIP3    H1 3473   5.284   4.557   0.789
 1176TIP3    H2 3474   5.303   4.616   0.651
 1177TIP3   OH2 3475   5.413   4.726   0.570
 1177TIP3    H1 3476   5.475   4.670   0.521
 1177TIP3    H2 3477   5.474   4.778   0.627
 1178TIP3   OH2 3478   6.219   3.071   0.660
 1178TIP3    H1 3479   6.128   3.057   0.629
 1178TIP3    H2 3480   6.254   2.979   0.652
 1179TIP3   OH2 3481   4.476   4.571   0.587
 1179TIP3    H1 3482   4.387   4.605   0.563
 1179TIP3    H2 3483   4.487   4.615   0.673
 1180TIP3   OH2 3484   4.713   4.555   0.448
 1180TIP3    H1 3485   4.626   4.566   0.492
 1180TIP3    H2 3486   4.693   4.589   0.359
 1181TIP3   OH2 3487   5.136   4.574   0.258
 1181TIP3    H1 3488   5.055   4.586   0.204
 1181TIP3    H2 3489   5.151   4.665   0.290
 1182TIP3   OH2 3490   5.397   4.523   0.329
 1182TIP3    H1 3491   5.301   4.528   0.309
 1182TIP3    H2 3492   5.429   4.594   0.272
 1183TIP3   OH2 3493   4.390   4.363   0.330
 1183TIP3    H1 3494   4.414   4.335   0.421
 1183TIP3    H2 3495   4.462   4.320   0.280
 1184TIP3   OH2 3496   4.586   4.232   0.192
 1184TIP3    H1 3497   4.599   4.152   0.249
 1184TIP3    H2 3498   4.673   4.277   0.206
 1185TIP3   OH2 3499   4.834   4.340   0.214
 1185TIP3    H1 3500   4.876   4.298   0.137
 1185TIP3    H2 3501   4.901   4.327   0.285
 1186TIP3   OH2 3502   5.420   2.982   0.271
 1186TIP3    H1 3503   5.381   2.913   0.329
 1186TIP3    H2 3504   5.498   2.936   0.234
 1187TIP3   OH2 3505   5.942   2.895   0.188
 1187TIP3    H1 3506   5.973   2.899   0.096
 1187TIP3    H2 3507   5.845   2.891   0.176
 1188TIP3   OH2 3508   4.673   2.696   0.292
 1188TIP3    H1 3509   4.580   2.664   0.295
 1188TIP3    H2 3510   4.720   2.610   0.288
 1189TIP3   OH2 3511   4.457   2.559  -0.056
 1189TIP3    H1 3512   4.498   2.615  -0.127
 1189TIP3    H2 3513   4.430   2.627   0.007
 1190TIP3   OH2 3514   5.118   2.729   0.179
 1190TIP3    H1 3515   5.182   2.778   0.125
 1190TIP3    H2 3516   5.138   2.761   0.268
 1191TIP3   OH2 3517   5.662   2.872   0.152
 1191TIP3    H1 3518   5.669   2.824   0.069
 1191TIP3    H2 3519   5.652   2.798   0.217
 1192TIP3   OH2 3520   4.580   2.711  -0.247
 1192TIP3    H1 3521   4.578   2.671  -0.335
 1192TIP3    H2 3522   4.659   2.768  -0.249
 1193TIP3   OH2 3523   5.059   2.877  -0.133
 1193TIP3    H1 3524   5.130   2.828  -0.088
 1193TIP3    H2 3525   5.102   2.964  -0.141
 1194TIP3   OH2 3526   4.881   2.980   1.185
 1194TIP3    H1 3527   4.844   2.909   1.241
 1194TIP3    H2 3528   4.975   2.978   1.214
 1195TIP3   OH2 3529   5.132   2.976   1.304
 1195TIP3    H1 3530   5.217   2.948   1.266
 1195TIP3    H2 3531   5.117   2.906   1.371
 1196TIP3   OH2 3532   5.957   3.039   1.091
 1196TIP3    H1 3533   5.975   3.008   1.182
 1196TIP3    H2 3534   6.047   3.035   1.052
 1197TIP3   OH2 3535   5.891   4.582   0.595
 1197TIP3    H1 3536   5.809   4.561   0.546
 1197TIP3    H2 3537   5.884   4.680   0.599
 1198TIP3   OH2 3538   6.723   3.294   0.254
 1198TIP3    H1 3539   6.670   3.294   0.172
 1198TIP3    H2 3540   6.661   3.335   0.317
 1199TIP3   OH2 3541   6.613   3.966   0.385
 1199TIP3    H1 3542   6.619   4.055   0.426
 1199TIP3    H2 3543   6.516   3.958   0.378
 1200TIP3   OH2 3544   6.231   4.115   0.298
 1200TIP3    H1 3545   6.250   4.110   0.204
 1200TIP3    H2 3546   6.275   4.034   0.332
 1201TIP3   OH2 3547   6.448   4.297   0.293
 1201TIP3    H1 3548   6.515   4.302   0.364
 1201TIP3    H2 3549   6.382   4.240   0.336
 1202TIP3   OH2 3550   7.330   3.255   0.262
 1202TIP3    H1 3551   7.398   3.192   0.291
 1202TIP3    H2 3552   7.249   3.213   0.297
 1203TIP3   OH2 3553   7.301   3.907   0.395
 1203TIP3    H1 3554   7.269   3.824   0.438
 1203TIP3    H2 3555   7.396   3.890   0.407
 1204TIP3   OH2 3556   6.564   3.672   0.296
 1204TIP3    H1 3557   6.577   3.745   0.360
 1204TIP3    H2 3558   6.556   3.595   0.355
 1205TIP3   OH2 3559   6.605   4.210   0.517
 1205TIP3    H1 3560   6.680   4.250   0.565
 1205TIP3    H2 3561   6.533   4.223   0.582
 1206TIP3   OH2 3562   6.342   3.906   0.432
 1206TIP3    H1 3563   6.366   3.895   0.527
 1206TIP3    H2 3564   6.264   3.848   0.425
 1207TIP3   OH2 3565   7.058   4.026   0.452
 1207TIP3    H1 3566   6.993   3.957   0.427
 1207TIP3    H2 3567   7.143   3.982   0.428
 1208TIP3   OH2 3568   6.541   3.424   0.433
 1208TIP3    H1 3569   6.444   3.424   0.448
 1208TIP3    H2 3570   6.571   3.368   0.507
 1209TIP3   OH2 3571   6.233   4.778   0.504
 1209TIP3    H1 3572   6.323   4.803   0.536
 1209TIP3    H2 3573   6.241   4.682   0.498
 1210TIP3   OH2 3574   6.724   4.764   0.567
 1210TIP3    H1 3575   6.807   4.745   0.612
 1210TIP3    H2 3576   6.722   4.693   0.500
 1211TIP3   OH2 3577   6.384   4.212   0.690
 1211TIP3    H1 3578   6.395   4.115   0.695
 1211TIP3    H2 3579   6.297   4.220   0.646
 1212TIP3   OH2 3580   6.988   4.303   0.453
 1212TIP3    H1 3581   6.955   4.301   0.362
 1212TIP3    H2 3582   7.029   4.214   0.460
 1213TIP3   OH2 3583   6.503   3.940   0.671
 1213TIP3    H1 3584   6.586   3.897   0.645
 1213TIP3    H2 3585   6.530   3.980   0.757
 1214TIP3   OH2 3586   6.861   3.862   0.351
 1214TIP3    H1 3587   6.774   3.895   0.383
 1214TIP3    H2 3588   6.861   3.902   0.262
 1215TIP3   OH2 3589   7.289   4.224   0.481
 1215TIP3    H1 3590   7.369   4.278   0.477
 1215TIP3    H2 3591   7.307   4.167   0.559
 1216TIP3   OH2 3592   6.954   3.619   0.462
 1216TIP3    H1 3593   6.963   3.537   0.408
 1216TIP3    H2 3594   6.931   3.687   0.397
 1217TIP3   OH2 3595   6.972   3.400   0.293
 1217TIP3    H1 3596   7.008   3.436   0.210
 1217TIP3    H2 3597   6.883   3.366   0.267
 1218TIP3   OH2 3598   7.559   3.895   0.547
 1218TIP3    H1 3599   7.570   3.815   0.490
 1218TIP3    H2 3600   7.642   3.943   0.529
 1219TIP3   OH2 3601   6.834   3.732   0.682
 1219TIP3    H1 3602   6.767   3.664   0.702
 1219TIP3    H2 3603   6.872   3.698   0.599
 1220TIP3   OH2 3604   7.086   3.154   0.343
 1220TIP3    H1 3605   7.038   3.237   0.327
 1220TIP3    H2 3606   7.020   3.087   0.318
 1221TIP3   OH2 3607   7.210   3.690   0.539
 1221TIP3    H1 3608   7.212   3.673   0.635
 1221TIP3    H2 3609   7.122   3.654   0.517
 1222TIP3   OH2 3610   7.470   3.663   0.413
 1222TIP3    H1 3611   7.386   3.632   0.452
 1222TIP3    H2 3612   7.535   3.600   0.450
 1223TIP3   OH2 3613   7.671   3.538   0.556
 1223TIP3    H1 3614   7.708   3.454   0.586
 1223TIP3    H2 3615   7.675   3.593   0.636
 1224TIP3   OH2 3616   6.678   3.510   0.739
 1224TIP3    H1 3617   6.685   3.419   0.706
 1224TIP3    H2 3618   6.717   3.500   0.829
 1225TIP3   OH2 3619   7.185   3.176   0.596
 1225TIP3    H1 3620   7.252   3.106   0.586
 1225TIP3    H2 3621   7.144   3.171   0.507
 1226TIP3   OH2 3622   7.258   3.399   0.742
 1226TIP3    H1 3623   7.236   3.326   0.681
 1226TIP3    H2 3624   7.179   3.456   0.736
 1227TIP3   OH2 3625   6.412   3.560   0.698
 1227TIP3    H1 3626   6.510   3.558   0.707
 1227TIP3    H2 3627   6.389   3.475   0.741
 1228TIP3   OH2 3628   6.381   3.120   0.434
 1228TIP3    H1 3629   6.338   3.107   0.520
 1228TIP3    H2 3630   6.303   3.133   0.377
 1229TIP3   OH2 3631   6.421   4.508   0.522
 1229TIP3    H1 3632   6.326   4.494   0.508
 1229TIP3    H2 3633   6.423   4.545   0.611
 1230TIP3   OH2 3634   6.676   3.234   0.670
 1230TIP3    H1 3635   6.642   3.165   0.730
 1230TIP3    H2 3636   6.771   3.234   0.697
 1231TIP3   OH2 3637   6.927   3.232   0.789
 1231TIP3    H1 3638   7.013   3.210   0.750
 1231TIP3    H2 3639   6.917   3.161   0.856
 1232TIP3   OH2 3640   0.429   4.294   1.468
 1232TIP3    H1 3641   0.459   4.377   1.512
 1232TIP3    H2 3642   0.447   4.315   1.375
 1233TIP3   OH2 3643  -0.112   4.489   1.495
 1233TIP3    H1 3644  -0.094   4.395   1.514
 1233TIP3    H2 3645  -0.045   4.507   1.426
 1234TIP3   OH2 3646   0.502   4.503   1.636
 1234TIP3    H1 3647   0.416   4.546   1.617
 1234TIP3    H2 3648   0.514   4.527   1.729
 1235TIP3   OH2 3649   0.055   4.244   1.256
 1235TIP3    H1 3650   0.089   4.182   1.323
 1235TIP3    H2 3651   0.094   4.329   1.286
 1236TIP3   OH2 3652   0.225   4.207   1.641
 1236TIP3    H1 3653   0.140   4.227   1.598
 1236TIP3    H2 3654   0.288   4.230   1.569
 1237TIP3   OH2 3655   0.159   5.246   1.603
 1237TIP3    H1 3656   0.170   5.156   1.566
 1237TIP3    H2 3657   0.121   5.293   1.528
 1238TIP3   OH2 3658   0.357   4.838   1.472
 1238TIP3    H1 3659   0.281   4.900   1.477
 1238TIP3    H2 3660   0.389   4.858   1.382
 1239TIP3   OH2 3661   0.050   4.725   1.769
 1239TIP3    H1 3662   0.045   4.813   1.811
 1239TIP3    H2 3663  -0.040   4.720   1.730
 1240TIP3   OH2 3664   0.413   5.538   1.674
 1240TIP3    H1 3665   0.418   5.439   1.678
 1240TIP3    H2 3666   0.319   5.549   1.709
 1241TIP3   OH2 3667   0.279   4.685   1.934
 1241TIP3    H1 3668   0.197   4.692   1.882
 1241TIP3    H2 3669   0.297   4.589   1.927
 1242TIP3   OH2 3670  -0.180   4.028   1.935
 1242TIP3    H1 3671  -0.118   4.001   2.005
 1242TIP3    H2 3672  -0.266   3.996   1.968
 1243TIP3   OH2 3673   0.044   4.456   1.856
 1243TIP3    H1 3674  -0.002   4.455   1.942
 1243TIP3    H2 3675   0.029   4.548   1.825
 1244TIP3   OH2 3676  -0.218   4.684   2.102
 1244TIP3    H1 3677  -0.245   4.608   2.158
 1244TIP3    H2 3678  -0.122   4.689   2.124
 1245TIP3   OH2 3679  -0.201   4.677   1.676
 1245TIP3    H1 3680  -0.179   4.596   1.625
 1245TIP3    H2 3681  -0.255   4.639   1.749
 1246TIP3   OH2 3682  -0.102   4.220   1.544
 1246TIP3    H1 3683  -0.132   4.240   1.636
 1246TIP3    H2 3684  -0.146   4.136   1.528
 1247TIP3   OH2 3685  -0.476   4.347   1.803
 1247TIP3    H1 3686  -0.496   4.420   1.739
 1247TIP3    H2 3687  -0.389   4.378   1.833
 1248TIP3   OH2 3688   0.149   5.015   1.462
 1248TIP3    H1 3689   0.132   5.060   1.378
 1248TIP3    H2 3690   0.060   4.997   1.496
 1249TIP3   OH2 3691  -0.449   4.790   2.198
 1249TIP3    H1 3692  -0.505   4.762   2.123
 1249TIP3    H2 3693  -0.360   4.771   2.161
 1250TIP3   OH2 3694   0.410   5.256   1.702
 1250TIP3    H1 3695   0.312   5.267   1.697
 1250TIP3    H2 3696   0.429   5.225   1.611
 1251TIP3   OH2 3697  -0.162   4.268   1.802
 1251TIP3    H1 3698  -0.080   4.308   1.836
 1251TIP3    H2 3699  -0.170   4.186   1.856
 1252TIP3   OH2 3700  -0.282   4.528   1.891
 1252TIP3    H1 3701  -0.272   4.595   1.962
 1252TIP3    H2 3702  -0.227   4.456   1.925
 1253TIP3   OH2 3703   0.311   4.419   1.852
 1253TIP3    H1 3704   0.213   4.417   1.860
 1253TIP3    H2 3705   0.321   4.366   1.771
 1254TIP3   OH2 3706  -0.182   5.549   2.094
 1254TIP3    H1 3707  -0.166   5.453   2.107
 1254TIP3    H2 3708  -0.105   5.576   2.040
 1255TIP3   OH2 3709  -0.015   5.059   1.724
 1255TIP3    H1 3710   0.030   5.144   1.716
 1255TIP3    H2 3711  -0.110   5.085   1.715
 1256TIP3   OH2 3712  -0.189   5.011   2.160
 1256TIP3    H1 3713  -0.118   4.977   2.105
 1256TIP3    H2 3714  -0.192   4.944   2.232
 1257TIP3   OH2 3715  -0.613   4.142   1.903
 1257TIP3    H1 3716  -0.552   4.211   1.869
 1257TIP3    H2 3717  -0.683   4.197   1.942
 1258TIP3   OH2 3718   0.037   4.692   2.200
 1258TIP3    H1 3719   0.085   4.612   2.226
 1258TIP3    H2 3720   0.106   4.745   2.160
 1259TIP3   OH2 3721   0.078   4.951   1.953
 1259TIP3    H1 3722   0.026   4.997   1.884
 1259TIP3    H2 3723   0.167   4.964   1.915
 1260TIP3   OH2 3724  -0.446   3.951   2.014
 1260TIP3    H1 3725  -0.495   4.027   1.977
 1260TIP3    H2 3726  -0.510   3.881   1.998
 1261TIP3   OH2 3727  -0.314   4.467   2.241
 1261TIP3    H1 3728  -0.284   4.461   2.334
 1261TIP3    H2 3729  -0.402   4.427   2.246
 1262TIP3   OH2 3730  -0.089   4.409   2.084
 1262TIP3    H1 3731  -0.160   4.410   2.152
 1262TIP3    H2 3732  -0.011   4.381   2.139
 1263TIP3   OH2 3733   0.134   4.351   2.235
 1263TIP3    H1 3734   0.153   4.257   2.253
 1263TIP3    H2 3735   0.134   4.391   2.325
 1264TIP3   OH2 3736  -0.356   3.966   2.275
 1264TIP3    H1 3737  -0.284   3.900   2.264
 1264TIP3    H2 3738  -0.396   3.964   2.185
 1265TIP3   OH2 3739  -0.275   4.180   2.422
 1265TIP3    H1 3740  -0.298   4.101   2.368
 1265TIP3    H2 3741  -0.362   4.226   2.424
 1266TIP3   OH2 3742   0.266   5.352   2.001
 1266TIP3    H1 3743   0.195   5.363   2.067
 1266TIP3    H2 3744   0.311   5.439   2.006
 1267TIP3   OH2 3745   0.315   5.017   1.829
 1267TIP3    H1 3746   0.384   4.948   1.821
 1267TIP3    H2 3747   0.350   5.087   1.772
 1268TIP3   OH2 3748   0.496   4.819   1.844
 1268TIP3    H1 3749   0.421   4.768   1.881
 1268TIP3    H2 3750   0.569   4.755   1.860
 1269TIP3   OH2 3751   0.173   4.465   1.372
 1269TIP3    H1 3752   0.252   4.494   1.322
 1269TIP3    H2 3753   0.193   4.508   1.457
 1270TIP3   OH2 3754   0.249   4.617   1.592
 1270TIP3    H1 3755   0.179   4.656   1.648
 1270TIP3    H2 3756   0.288   4.697   1.549
 1271TIP3   OH2 3757   0.690   4.207   2.144
 1271TIP3    H1 3758   0.757   4.146   2.108
 1271TIP3    H2 3759   0.674   4.267   2.069
 1272TIP3   OH2 3760   0.571   4.360   1.947
 1272TIP3    H1 3761   0.485   4.398   1.974
 1272TIP3    H2 3762   0.540   4.282   1.897
 1273TIP3   OH2 3763   0.473   4.119   1.837
 1273TIP3    H1 3764   0.382   4.106   1.804
 1273TIP3    H2 3765   0.510   4.028   1.828
 1274TIP3   OH2 3766   0.146   4.013   1.388
 1274TIP3    H1 3767   0.222   4.028   1.329
 1274TIP3    H2 3768   0.095   3.952   1.334
 1275TIP3   OH2 3769   0.319   4.026   1.172
 1275TIP3    H1 3770   0.295   4.003   1.079
 1275TIP3    H2 3771   0.355   4.115   1.154
 1276TIP3   OH2 3772   0.205   4.083   2.267
 1276TIP3    H1 3773   0.224   4.053   2.358
 1276TIP3    H2 3774   0.294   4.082   2.227
 1277TIP3   OH2 3775   0.150   5.570   1.740
 1277TIP3    H1 3776   0.066   5.523   1.755
 1277TIP3    H2 3777   0.120   5.663   1.750
 1278TIP3   OH2 3778   1.409   4.994   0.533
 1278TIP3    H1 3779   1.384   5.085   0.508
 1278TIP3    H2 3780   1.330   4.947   0.502
 1279TIP3   OH2 3781   1.410   5.007   0.913
 1279TIP3    H1 3782   1.446   4.983   1.000
 1279TIP3    H2 3783   1.368   4.923   0.886
 1280TIP3   OH2 3784   0.717   4.904   1.277
 1280TIP3    H1 3785   0.749   4.835   1.338
 1280TIP3    H2 3786   0.799   4.948   1.252
 1281TIP3   OH2 3787   1.652   5.310   0.595
 1281TIP3    H1 3788   1.643   5.241   0.662
 1281TIP3    H2 3789   1.684   5.385   0.649
 1282TIP3   OH2 3790   0.696   5.297   1.076
 1282TIP3    H1 3791   0.690   5.200   1.061
 1282TIP3    H2 3792   0.790   5.309   1.051
 1283TIP3   OH2 3793   0.555   4.805   0.935
 1283TIP3    H1 3794   0.569   4.728   0.993
 1283TIP3    H2 3795   0.505   4.766   0.863
 1284TIP3   OH2 3796   1.350   5.743   0.668
 1284TIP3    H1 3797   1.423   5.708   0.612
 1284TIP3    H2 3798   1.364   5.691   0.749
 1285TIP3   OH2 3799   1.218   5.229   0.958
 1285TIP3    H1 3800   1.262   5.150   0.921
 1285TIP3    H2 3801   1.299   5.280   0.980
 1286TIP3   OH2 3802   2.223   4.553   0.953
 1286TIP3    H1 3803   2.253   4.636   0.995
 1286TIP3    H2 3804   2.248   4.568   0.860
 1287TIP3   OH2 3805   1.622   4.735   0.985
 1287TIP3    H1 3806   1.664   4.649   1.007
 1287TIP3    H2 3807   1.588   4.716   0.895
 1288TIP3   OH2 3808   0.967   4.393   0.953
 1288TIP3    H1 3809   0.943   4.468   0.894
 1288TIP3    H2 3810   0.917   4.321   0.909
 1289TIP3   OH2 3811   1.654   4.487   0.571
 1289TIP3    H1 3812   1.723   4.471   0.638
 1289TIP3    H2 3813   1.709   4.519   0.497
 1290TIP3   OH2 3814   0.596   4.583   1.083
 1290TIP3    H1 3815   0.683   4.566   1.124
 1290TIP3    H2 3816   0.604   4.525   1.004
 1291TIP3   OH2 3817   1.035   4.802   0.851
 1291TIP3    H1 3818   1.128   4.774   0.867
 1291TIP3    H2 3819   0.993   4.717   0.825
 1292TIP3   OH2 3820   2.297   4.763   1.122
 1292TIP3    H1 3821   2.211   4.807   1.104
 1292TIP3    H2 3822   2.311   4.788   1.214
 1293TIP3   OH2 3823   0.958   4.375   1.390
 1293TIP3    H1 3824   0.899   4.412   1.322
 1293TIP3    H2 3825   0.904   4.391   1.470
 1294TIP3   OH2 3826   1.314   5.207   0.394
 1294TIP3    H1 3827   1.287   5.190   0.303
 1294TIP3    H2 3828   1.317   5.304   0.397
 1295TIP3   OH2 3829   1.066   5.152   1.181
 1295TIP3    H1 3830   1.005   5.219   1.218
 1295TIP3    H2 3831   1.101   5.197   1.102
 1296TIP3   OH2 3832   1.858   4.493   0.749
 1296TIP3    H1 3833   1.847   4.444   0.832
 1296TIP3    H2 3834   1.911   4.569   0.778
 1297TIP3   OH2 3835   0.835   4.488   1.173
 1297TIP3    H1 3836   0.897   4.561   1.196
 1297TIP3    H2 3837   0.884   4.448   1.097
 1298TIP3   OH2 3838   0.901   5.344   1.291
 1298TIP3    H1 3839   0.874   5.428   1.249
 1298TIP3    H2 3840   0.819   5.323   1.340
 1299TIP3   OH2 3841   1.717   5.549   0.756
 1299TIP3    H1 3842   1.626   5.543   0.794
 1299TIP3    H2 3843   1.712   5.636   0.711
 1300TIP3   OH2 3844   2.016   4.453   1.120
 1300TIP3    H1 3845   1.929   4.480   1.086
 1300TIP3    H2 3846   2.076   4.486   1.049
 1301TIP3   OH2 3847   1.306   4.091   1.101
 1301TIP3    H1 3848   1.292   3.997   1.124
 1301TIP3    H2 3849   1.230   4.132   1.148
 1302TIP3   OH2 3850   1.515   5.632   0.478
 1302TIP3    H1 3851   1.557   5.551   0.442
 1302TIP3    H2 3852   1.536   5.698   0.412
 1303TIP3   OH2 3853   1.562   5.394   0.349
 1303TIP3    H1 3854   1.576   5.323   0.282
 1303TIP3    H2 3855   1.591   5.347   0.430
 1304TIP3   OH2 3856   1.948   5.465   1.099
 1304TIP3    H1 3857   1.936   5.387   1.041
 1304TIP3    H2 3858   1.931   5.539   1.037
 1305TIP3   OH2 3859   1.236   4.852   0.336
 1305TIP3    H1 3860   1.159   4.903   0.305
 1305TIP3    H2 3861   1.296   4.874   0.262
 1306TIP3   OH2 3862   1.140   4.587   0.195
 1306TIP3    H1 3863   1.195   4.644   0.251
 1306TIP3    H2 3864   1.206   4.547   0.136
 1307TIP3   OH2 3865   2.143   5.106   0.946
 1307TIP3    H1 3866   2.059   5.156   0.949
 1307TIP3    H2 3867   2.173   5.128   0.855
 1308TIP3   OH2 3868   1.599   4.948   0.343
 1308TIP3    H1 3869   1.545   4.966   0.423
 1308TIP3    H2 3870   1.684   4.920   0.385
 1309TIP3   OH2 3871   1.822   4.979   1.245
 1309TIP3    H1 3872   1.818   5.062   1.296
 1309TIP3    H2 3873   1.735   4.983   1.199
 1310TIP3   OH2 3874   0.805   4.924   0.754
 1310TIP3    H1 3875   0.794   4.869   0.675
 1310TIP3    H2 3876   0.890   4.890   0.789
 1311TIP3   OH2 3877   0.940   5.294   0.939
 1311TIP3    H1 3878   0.926   5.352   0.862
 1311TIP3    H2 3879   1.036   5.280   0.935
 1312TIP3   OH2 3880   0.966   4.907   1.106
 1312TIP3    H1 3881   0.987   4.890   1.012
 1312TIP3    H2 3882   1.000   4.998   1.119
 1313TIP3   OH2 3883   1.471   5.555   0.876
 1313TIP3    H1 3884   1.475   5.628   0.940
 1313TIP3    H2 3885   1.464   5.476   0.934
 1314TIP3   OH2 3886   1.101   5.469   1.428
 1314TIP3    H1 3887   1.037   5.532   1.470
 1314TIP3    H2 3888   1.038   5.414   1.376
 1315TIP3   OH2 3889   1.456   4.828   0.147
 1315TIP3    H1 3890   1.507   4.867   0.222
 1315TIP3    H2 3891   1.454   4.904   0.087
 1316TIP3   OH2 3892   0.854   5.021   1.532
 1316TIP3    H1 3893   0.856   5.109   1.573
 1316TIP3    H2 3894   0.759   5.000   1.539
 1317TIP3   OH2 3895   0.895   5.637   1.512
 1317TIP3    H1 3896   0.861   5.637   1.421
 1317TIP3    H2 3897   0.816   5.609   1.564
 1318TIP3   OH2 3898   1.947   4.044   0.201
 1318TIP3    H1 3899   1.865   4.060   0.252
 1318TIP3    H2 3900   1.955   4.126   0.150
 1319TIP3   OH2 3901   0.470   5.157   1.456
 1319TIP3    H1 3902   0.446   5.125   1.368
 1319TIP3    H2 3903   0.513   5.077   1.494
 1320TIP3   OH2 3904   2.184   5.813   1.146
 1320TIP3    H1 3905   2.185   5.716   1.161
 1320TIP3    H2 3906   2.101   5.836   1.193
 1321TIP3   OH2 3907   1.298   5.593   1.285
 1321TIP3    H1 3908   1.291   5.686   1.315
 1321TIP3    H2 3909   1.223   5.553   1.334
 1322TIP3   OH2 3910   2.074   4.940   1.421
 1322TIP3    H1 3911   1.991   4.948   1.373
 1322TIP3    H2 3912   2.092   4.845   1.413
 1323TIP3   OH2 3913   0.678   5.342   1.453
 1323TIP3    H1 3914   0.729   5.321   1.535
 1323TIP3    H2 3915   0.603   5.279   1.459
 1324TIP3   OH2 3916   1.071   4.174   1.230
 1324TIP3    H1 3917   0.982   4.145   1.202
 1324TIP3    H2 3918   1.046   4.252   1.283
 1325TIP3   OH2 3919   1.608   4.287   1.426
 1325TIP3    H1 3920   1.676   4.258   1.490
 1325TIP3    H2 3921   1.524   4.267   1.474
 1326TIP3   OH2 3922   1.842   4.716   1.344
 1326TIP3    H1 3923   1.791   4.713   1.429
 1326TIP3    H2 3924   1.818   4.804   1.308
 1327TIP3   OH2 3925   1.218   4.280   0.207
 1327TIP3    H1 3926   1.205   4.243   0.297
 1327TIP3    H2 3927   1.190   4.204   0.151
 1328TIP3   OH2 3928   1.007   4.686   1.252
 1328TIP3    H1 3929   0.955   4.708   1.332
 1328TIP3    H2 3930   0.994   4.768   1.199
 1329TIP3   OH2 3931   0.887   4.581   0.775
 1329TIP3    H1 3932   0.794   4.554   0.790
 1329TIP3    H2 3933   0.905   4.540   0.687
 1330TIP3   OH2 3934   1.381   4.669   0.490
 1330TIP3    H1 3935   1.331   4.738   0.442
 1330TIP3    H2 3936   1.439   4.634   0.418
 1331TIP3   OH2 3937   1.553   4.936   1.577
 1331TIP3    H1 3938   1.530   4.863   1.638
 1331TIP3    H2 3939   1.647   4.948   1.599
 1332TIP3   OH2 3940   1.534   4.685   0.729
 1332TIP3    H1 3941   1.473   4.714   0.658
 1332TIP3    H2 3942   1.570   4.606   0.684
 1333TIP3   OH2 3943   0.824   4.716   1.458
 1333TIP3    H1 3944   0.859   4.774   1.527
 1333TIP3    H2 3945   0.811   4.632   1.508
 1334TIP3   OH2 3946   0.417   4.244   1.046
 1334TIP3    H1 3947   0.492   4.274   1.101
 1334TIP3    H2 3948   0.454   4.247   0.956
 1335TIP3   OH2 3949   1.544   4.933   1.149
 1335TIP3    H1 3950   1.578   4.861   1.090
 1335TIP3    H2 3951   1.514   4.879   1.226
 1336TIP3   OH2 3952   1.222   4.402   0.827
 1336TIP3    H1 3953   1.140   4.397   0.880
 1336TIP3    H2 3954   1.291   4.387   0.894
 1337TIP3   OH2 3955   0.656   4.439   0.858
 1337TIP3    H1 3956   0.576   4.446   0.802
 1337TIP3    H2 3957   0.695   4.354   0.828
 1338TIP3   OH2 3958   0.955   4.473   0.538
 1338TIP3    H1 3959   1.052   4.461   0.540
 1338TIP3    H2 3960   0.935   4.454   0.444
 1339TIP3   OH2 3961   1.707   4.473   1.028
 1339TIP3    H1 3962   1.674   4.485   1.120
 1339TIP3    H2 3963   1.640   4.412   0.993
 1340TIP3   OH2 3964   1.879   6.162   1.246
 1340TIP3    H1 3965   1.877   6.182   1.150
 1340TIP3    H2 3966   1.959   6.211   1.274
 1341TIP3   OH2 3967   0.836   5.268   1.669
 1341TIP3    H1 3968   0.915   5.301   1.716
 1341TIP3    H2 3969   0.771   5.268   1.741
 1342TIP3   OH2 3970   1.297   4.728   0.923
 1342TIP3    H1 3971   1.369   4.684   0.876
 1342TIP3    H2 3972   1.298   4.683   1.010
 1343TIP3   OH2 3973   0.822   4.215   0.804
 1343TIP3    H1 3974   0.787   4.134   0.848
 1343TIP3    H2 3975   0.882   4.177   0.738
 1344TIP3   OH2 3976   1.274   4.628   1.204
 1344TIP3    H1 3977   1.184   4.659   1.224
 1344TIP3    H2 3978   1.330   4.687   1.259
 1345TIP3   OH2 3979   1.908   5.249   0.932
 1345TIP3    H1 3980   1.932   5.299   0.852
 1345TIP3    H2 3981   1.824   5.206   0.905
 1346TIP3   OH2 3982   1.489   4.329   0.166
 1346TIP3    H1 3983   1.392   4.315   0.165
 1346TIP3    H2 3984   1.496   4.424   0.182
 1347TIP3   OH2 3985   1.414   5.333   1.300
 1347TIP3    H1 3986   1.436   5.308   1.390
 1347TIP3    H2 3987   1.371   5.420   1.310
 1348TIP3   OH2 3988   1.536   4.583   0.274
 1348TIP3    H1 3989   1.633   4.578   0.292
 1348TIP3    H2 3990   1.529   4.660   0.215
 1349TIP3   OH2 3991   0.709   5.045   0.985
 1349TIP3    H1 3992   0.744   5.011   0.900
 1349TIP3    H2 3993   0.697   4.961   1.032
 1350TIP3   OH2 3994   0.586   4.956   1.598
 1350TIP3    H1 3995   0.606   4.939   1.692
 1350TIP3    H2 3996   0.521   4.886   1.579
 1351TIP3   OH2 3997   1.312   5.071   1.614
 1351TIP3    H1 3998   1.250   5.012   1.568
 1351TIP3    H2 3999   1.398   5.034   1.585
 1352TIP3   OH2 4000   1.569   5.597   1.197
 1352TIP3    H1 4001   1.474   5.587   1.215
 1352TIP3    H2 4002   1.597   5.646   1.277
 1353TIP3   OH2 4003   1.977   4.663   0.115
 1353TIP3    H1 4004   1.918   4.621   0.047
 1353TIP3    H2 4005   1.979   4.753   0.075
 1354TIP3   OH2 4006   2.199   5.525   1.186
 1354TIP3    H1 4007   2.101   5.516   1.179
 1354TIP3    H2 4008   2.225   5.493   1.097
 1355TIP3   OH2 4009   1.675   5.112   0.846
 1355TIP3    H1 4010   1.582   5.086   0.862
 1355TIP3    H2 4011   1.709   5.030   0.805
 1356TIP3   OH2 4012   1.072   5.695   1.110
 1356TIP3    H1 4013   1.082   5.712   1.015
 1356TIP3    H2 4014   1.159   5.656   1.133
 1357TIP3   OH2 4015   1.469   5.321   1.033
 1357TIP3    H1 4016   1.453   5.319   1.131
 1357TIP3    H2 4017   1.545   5.262   1.026
 1358TIP3   OH2 4018   1.713   5.847   1.089
 1358TIP3    H1 4019   1.633   5.792   1.085
 1358TIP3    H2 4020   1.696   5.910   1.015
 1359TIP3   OH2 4021   0.793   4.460   1.601
 1359TIP3    H1 4022   0.697   4.461   1.615
 1359TIP3    H2 4023   0.824   4.405   1.675
 1360TIP3   OH2 4024   1.626   5.179   0.188
 1360TIP3    H1 4025   1.607   5.099   0.241
 1360TIP3    H2 4026   1.713   5.156   0.151
 1361TIP3   OH2 4027   0.562   5.533   1.290
 1361TIP3    H1 4028   0.570   5.448   1.241
 1361TIP3    H2 4029   0.623   5.512   1.364
 1362TIP3   OH2 4030   1.634   4.524   1.287
 1362TIP3    H1 4031   1.715   4.561   1.325
 1362TIP3    H2 4032   1.621   4.443   1.341
 1363TIP3   OH2 4033   1.510   4.275   0.450
 1363TIP3    H1 4034   1.503   4.296   0.355
 1363TIP3    H2 4035   1.552   4.356   0.486
 1364TIP3   OH2 4036   1.225   4.453   0.560
 1364TIP3    H1 4037   1.285   4.528   0.542
 1364TIP3    H2 4038   1.229   4.447   0.658
 1365TIP3   OH2 4039   1.472   4.772   1.358
 1365TIP3    H1 4040   1.496   4.822   1.438
 1365TIP3    H2 4041   1.524   4.690   1.368
 1366TIP3   OH2 4042   1.355   4.175   0.660
 1366TIP3    H1 4043   1.354   4.251   0.721
 1366TIP3    H2 4044   1.413   4.210   0.588
 1367TIP3   OH2 4045   0.882   4.165   0.475
 1367TIP3    H1 4046   0.867   4.259   0.456
 1367TIP3    H2 4047   0.979   4.159   0.461
 1368TIP3   OH2 4048   2.109   4.674   1.341
 1368TIP3    H1 4049   2.011   4.674   1.349
 1368TIP3    H2 4050   2.118   4.624   1.259
 1369TIP3   OH2 4051   1.760   4.868   0.731
 1369TIP3    H1 4052   1.684   4.808   0.744
 1369TIP3    H2 4053   1.832   4.820   0.779
 1370TIP3   OH2 4054   1.741   5.817   0.686
 1370TIP3    H1 4055   1.708   5.869   0.609
 1370TIP3    H2 4056   1.837   5.831   0.672
 1371TIP3   OH2 4057   0.805   4.096   1.206
 1371TIP3    H1 4058   0.778   4.057   1.120
 1371TIP3    H2 4059   0.804   4.019   1.267
 1372TIP3   OH2 4060   0.496   5.812   1.630
 1372TIP3    H1 4061   0.457   5.723   1.635
 1372TIP3    H2 4062   0.579   5.796   1.690
 1373TIP3   OH2 4063   0.993   5.802   1.711
 1373TIP3    H1 4064   1.087   5.789   1.701
 1373TIP3    H2 4065   0.960   5.751   1.634
 1374TIP3   OH2 4066   1.620   5.725   1.437
 1374TIP3    H1 4067   1.613   5.654   1.505
 1374TIP3    H2 4068   1.699   5.774   1.467
 1375TIP3   OH2 4069   0.635   5.257   1.863
 1375TIP3    H1 4070   0.655   5.161   1.862
 1375TIP3    H2 4071   0.550   5.259   1.815
 1376TIP3   OH2 4072   1.228   5.345   1.639
 1376TIP3    H1 4073   1.195   5.368   1.550
 1376TIP3    H2 4074   1.264   5.255   1.625
 1377TIP3   OH2 4075   1.733   5.357   1.239
 1377TIP3    H1 4076   1.808   5.401   1.195
 1377TIP3    H2 4077   1.661   5.421   1.222
 1378TIP3   OH2 4078   0.752   4.997   1.835
 1378TIP3    H1 4079   0.824   4.938   1.808
 1378TIP3    H2 4080   0.777   5.017   1.927
 1379TIP3   OH2 4081   1.087   4.877   1.501
 1379TIP3    H1 4082   1.009   4.937   1.502
 1379TIP3    H2 4083   1.139   4.913   1.425
 1380TIP3   OH2 4084   1.606   5.281   1.635
 1380TIP3    H1 4085   1.682   5.248   1.585
 1380TIP3    H2 4086   1.599   5.215   1.707
 1381TIP3   OH2 4087   1.211   4.669   1.626
 1381TIP3    H1 4088   1.212   4.589   1.569
 1381TIP3    H2 4089   1.166   4.735   1.569
 1382TIP3   OH2 4090   1.214   4.458   1.436
 1382TIP3    H1 4091   1.241   4.494   1.349
 1382TIP3    H2 4092   1.122   4.431   1.418
 1383TIP3   OH2 4093   1.239   4.990   1.313
 1383TIP3    H1 4094   1.323   4.998   1.265
 1383TIP3    H2 4095   1.181   5.052   1.264
 1384TIP3   OH2 4096   1.819   4.954   1.686
 1384TIP3    H1 4097   1.864   4.869   1.703
 1384TIP3    H2 4098   1.890   5.007   1.650
 1385TIP3   OH2 4099   1.861   5.210   1.426
 1385TIP3    H1 4100   1.804   5.264   1.366
 1385TIP3    H2 4101   1.950   5.230   1.387
 1386TIP3   OH2 4102   1.090   4.775   1.860
 1386TIP3    H1 4103   1.022   4.707   1.877
 1386TIP3    H2 4104   1.123   4.748   1.772
 1387TIP3   OH2 4105   1.347   4.218   1.503
 1387TIP3    H1 4106   1.296   4.298   1.482
 1387TIP3    H2 4107   1.278   4.148   1.495
 1388TIP3   OH2 4108   1.470   4.719   1.719
 1388TIP3    H1 4109   1.456   4.701   1.814
 1388TIP3    H2 4110   1.381   4.695   1.686
 1389TIP3   OH2 4111   1.709   4.672   1.575
 1389TIP3    H1 4112   1.635   4.670   1.638
 1389TIP3    H2 4113   1.784   4.640   1.630
 1390TIP3   OH2 4114   1.939   4.611   1.722
 1390TIP3    H1 4115   1.952   4.516   1.738
 1390TIP3    H2 4116   1.935   4.648   1.813
 1391TIP3   OH2 4117   0.929   4.556   1.912
 1391TIP3    H1 4118   0.931   4.463   1.881
 1391TIP3    H2 4119   0.968   4.545   2.002
 1392TIP3   OH2 4120   1.440   4.227   1.761
 1392TIP3    H1 4121   1.506   4.154   1.756
 1392TIP3    H2 4122   1.399   4.221   1.673
 1393TIP3   OH2 4123   1.508   4.442   1.917
 1393TIP3    H1 4124   1.486   4.369   1.855
 1393TIP3    H2 4125   1.427   4.498   1.912
 1394TIP3   OH2 4126   1.994   5.905   0.643
 1394TIP3    H1 4127   2.019   5.942   0.730
 1394TIP3    H2 4128   2.049   5.957   0.582
 1395TIP3   OH2 4129   2.012   5.935   0.923
 1395TIP3    H1 4130   1.966   5.848   0.917
 1395TIP3    H2 4131   2.089   5.908   0.977
 1396TIP3   OH2 4132   2.058   5.612   1.491
 1396TIP3    H1 4133   1.988   5.621   1.559
 1396TIP3    H2 4134   2.102   5.700   1.498
 1397TIP3   OH2 4135   1.883   5.117   0.104
 1397TIP3    H1 4136   1.950   5.183   0.077
 1397TIP3    H2 4137   1.926   5.080   0.185
 1398TIP3   OH2 4138   2.004   4.993   0.317
 1398TIP3    H1 4139   1.941   4.948   0.377
 1398TIP3    H2 4140   2.072   5.027   0.378
 1399TIP3   OH2 4141   2.060   5.386   0.745
 1399TIP3    H1 4142   2.114   5.317   0.701
 1399TIP3    H2 4143   2.055   5.456   0.677
 1400TIP3   OH2 4144   1.887   5.685   0.939
 1400TIP3    H1 4145   1.815   5.725   0.992
 1400TIP3    H2 4146   1.837   5.638   0.869
 1401TIP3   OH2 4147   1.946   4.890  -0.037
 1401TIP3    H1 4148   1.867   4.866  -0.087
 1401TIP3    H2 4149   1.917   4.971   0.010
 1402TIP3   OH2 4150   1.817   4.587  -0.088
 1402TIP3    H1 4151   1.744   4.637  -0.131
 1402TIP3    H2 4152   1.786   4.494  -0.096
 1403TIP3   OH2 4153   1.825   4.846   0.465
 1403TIP3    H1 4154   1.830   4.749   0.456
 1403TIP3    H2 4155   1.809   4.857   0.562
 1404TIP3   OH2 4156   0.454   4.903   1.228
 1404TIP3    H1 4157   0.450   4.889   1.132
 1404TIP3    H2 4158   0.552   4.905   1.242
 1405TIP3   OH2 4159   2.108   5.274   1.319
 1405TIP3    H1 4160   2.178   5.206   1.308
 1405TIP3    H2 4161   2.134   5.340   1.252
 1406TIP3   OH2 4162   2.290   5.075   1.327
 1406TIP3    H1 4163   2.215   5.025   1.367
 1406TIP3    H2 4164   2.363   5.012   1.345
 1407TIP3   OH2 4165   1.749   4.322  -0.081
 1407TIP3    H1 4166   1.837   4.287  -0.056
 1407TIP3    H2 4167   1.690   4.268  -0.027
 1408TIP3   OH2 4168   1.813   4.564   0.351
 1408TIP3    H1 4169   1.853   4.475   0.366
 1408TIP3    H2 4170   1.872   4.597   0.280
 1409TIP3   OH2 4171   1.973   4.736   0.850
 1409TIP3    H1 4172   2.059   4.761   0.808
 1409TIP3    H2 4173   1.988   4.773   0.939
 1410TIP3   OH2 4174   2.046   4.883   1.080
 1410TIP3    H1 4175   1.969   4.916   1.129
 1410TIP3    H2 4176   2.078   4.964   1.036
 1411TIP3   OH2 4177   0.665   4.612   1.886
 1411TIP3    H1 4178   0.763   4.603   1.888
 1411TIP3    H2 4179   0.639   4.524   1.921
 1412TIP3   OH2 4180   2.494   4.476   1.635
 1412TIP3    H1 4181   2.556   4.411   1.595
 1412TIP3    H2 4182   2.466   4.528   1.557
 1413TIP3   OH2 4183   1.922   4.316   0.392
 1413TIP3    H1 4184   1.970   4.300   0.476
 1413TIP3    H2 4185   1.861   4.238   0.391
 1414TIP3   OH2 4186   0.622   4.302   1.214
 1414TIP3    H1 4187   0.684   4.226   1.222
 1414TIP3    H2 4188   0.686   4.375   1.205
 1415TIP3   OH2 4189   0.413   4.572   1.287
 1415TIP3    H1 4190   0.472   4.567   1.209
 1415TIP3    H2 4191   0.439   4.658   1.323
 1416TIP3   OH2 4192   2.364   4.612   1.437
 1416TIP3    H1 4193   2.279   4.654   1.458
 1416TIP3    H2 4194   2.333   4.537   1.382
 1417TIP3   OH2 4195   2.010   4.250   0.008
 1417TIP3    H1 4196   2.079   4.189  -0.021
 1417TIP3    H2 4197   2.063   4.332   0.019
 1418TIP3   OH2 4198   0.628   4.154   1.599
 1418TIP3    H1 4199   0.580   4.154   1.683
 1418TIP3    H2 4200   0.563   4.194   1.539
 1419TIP3   OH2 4201   0.681   5.574   1.675
 1419TIP3    H1 4202   0.590   5.555   1.656
 1419TIP3    H2 4203   0.679   5.593   1.770
 1420TIP3   OH2 4204   0.847   5.611   1.237
 1420TIP3    H1 4205   0.779   5.633   1.171
 1420TIP3    H2 4206   0.929   5.645   1.192
 1421TIP3   OH2 4207   1.291   5.861   1.364
 1421TIP3    H1 4208   1.334   5.859   1.452
 1421TIP3    H2 4209   1.358   5.911   1.312
 1422TIP3   OH2 4210   1.469   6.016   1.225
 1422TIP3    H1 4211   1.536   5.965   1.178
 1422TIP3    H2 4212   1.525   6.071   1.285
 1423TIP3   OH2 4213   2.265   4.373   1.322
 1423TIP3    H1 4214   2.175   4.361   1.288
 1423TIP3    H2 4215   2.301   4.282   1.313
 1424TIP3   OH2 4216   1.213   5.895   0.893
 1424TIP3    H1 4217   1.118   5.878   0.876
 1424TIP3    H2 4218   1.209   5.974   0.951
 1425TIP3   OH2 4219   1.466   5.821   0.964
 1425TIP3    H1 4220   1.373   5.840   0.937
 1425TIP3    H2 4221   1.513   5.889   0.913
 1426TIP3   OH2 4222   1.662   6.005   0.872
 1426TIP3    H1 4223   1.652   6.090   0.825
 1426TIP3    H2 4224   1.691   5.945   0.799
 1427TIP3   OH2 4225   1.466   4.287   0.938
 1427TIP3    H1 4226   1.426   4.216   0.992
 1427TIP3    H2 4227   1.543   4.243   0.898
 1428TIP3   OH2 4228   1.990   4.174   0.847
 1428TIP3    H1 4229   2.026   4.224   0.770
 1428TIP3    H2 4230   1.894   4.190   0.838
 1429TIP3   OH2 4231   2.086   4.271   0.609
 1429TIP3    H1 4232   2.160   4.218   0.572
 1429TIP3    H2 4233   2.121   4.362   0.595
 1430TIP3   OH2 4234   0.721   4.003   0.956
 1430TIP3    H1 4235   0.632   3.965   0.954
 1430TIP3    H2 4236   0.776   3.921   0.951
 1431TIP3   OH2 4237   1.158   4.044   0.834
 1431TIP3    H1 4238   1.224   4.085   0.776
 1431TIP3    H2 4239   1.191   4.069   0.922
 1432TIP3   OH2 4240   1.705   4.179   0.820
 1432TIP3    H1 4241   1.710   4.136   0.733
 1432TIP3    H2 4242   1.694   4.101   0.879
 1433TIP3   OH2 4243   1.742   4.101   0.385
 1433TIP3    H1 4244   1.653   4.139   0.391
 1433TIP3    H2 4245   1.728   4.016   0.432
 1434TIP3   OH2 4246   1.158   4.205   0.466
 1434TIP3    H1 4247   1.212   4.157   0.531
 1434TIP3    H2 4248   1.182   4.297   0.493
 1435TIP3   OH2 4249   0.925   4.283   1.850
 1435TIP3    H1 4250   0.891   4.209   1.902
 1435TIP3    H2 4251   1.020   4.281   1.878
 1436TIP3   OH2 4252   1.177   4.278   1.968
 1436TIP3    H1 4253   1.262   4.247   1.931
 1436TIP3    H2 4254   1.160   4.209   2.037
 1437TIP3   OH2 4255   2.003   4.341   1.754
 1437TIP3    H1 4256   2.020   4.310   1.845
 1437TIP3    H2 4257   2.092   4.335   1.714
 1438TIP3   OH2 4258   1.937   5.891   1.249
 1438TIP3    H1 4259   1.860   5.859   1.198
 1438TIP3    H2 4260   1.916   5.986   1.254
 1439TIP3   OH2 4261   3.221   5.273   0.071
 1439TIP3    H1 4262   3.198   5.360   0.032
 1439TIP3    H2 4263   3.138   5.226   0.056
 1440TIP3   OH2 4264   3.202   5.272   0.404
 1440TIP3    H1 4265   3.240   5.238   0.488
 1440TIP3    H2 4266   3.170   5.191   0.363
 1441TIP3   OH2 4267   2.501   5.157   0.762
 1441TIP3    H1 4268   2.531   5.087   0.824
 1441TIP3    H2 4269   2.583   5.207   0.751
 1442TIP3   OH2 4270   3.464   5.558   0.068
 1442TIP3    H1 4271   3.435   5.489   0.130
 1442TIP3    H2 4272   3.482   5.633   0.128
 1443TIP3   OH2 4273   2.477   5.569   0.480
 1443TIP3    H1 4274   2.470   5.471   0.482
 1443TIP3    H2 4275   2.574   5.579   0.471
 1444TIP3   OH2 4276   2.184   4.770   0.264
 1444TIP3    H1 4277   2.136   4.853   0.283
 1444TIP3    H2 4278   2.112   4.716   0.228
 1445TIP3   OH2 4279   2.240   5.057   0.444
 1445TIP3    H1 4280   2.289   4.979   0.479
 1445TIP3    H2 4281   2.303   5.092   0.380
 1446TIP3   OH2 4282   3.064   5.987   0.130
 1446TIP3    H1 4283   3.128   5.995   0.057
 1446TIP3    H2 4284   3.120   5.979   0.208
 1447TIP3   OH2 4285   3.004   5.491   0.442
 1447TIP3    H1 4286   3.045   5.411   0.405
 1447TIP3    H2 4287   3.086   5.539   0.467
 1448TIP3   OH2 4288   4.018   4.805   0.443
 1448TIP3    H1 4289   4.047   4.893   0.475
 1448TIP3    H2 4290   4.060   4.803   0.354
 1449TIP3   OH2 4291   3.416   4.989   0.475
 1449TIP3    H1 4292   3.461   4.905   0.495
 1449TIP3    H2 4293   3.385   4.971   0.383
 1450TIP3   OH2 4294   2.757   4.651   0.438
 1450TIP3    H1 4295   2.738   4.723   0.374
 1450TIP3    H2 4296   2.710   4.577   0.394
 1451TIP3   OH2 4297   3.449   4.745   0.059
 1451TIP3    H1 4298   3.522   4.728   0.122
 1451TIP3    H2 4299   3.501   4.772  -0.019
 1452TIP3   OH2 4300   2.389   4.852   0.546
 1452TIP3    H1 4301   2.471   4.833   0.594
 1452TIP3    H2 4302   2.403   4.796   0.466
 1453TIP3   OH2 4303   2.827   5.050   0.345
 1453TIP3    H1 4304   2.922   5.025   0.356
 1453TIP3    H2 4305   2.790   4.966   0.310
 1454TIP3   OH2 4306   4.096   5.021   0.608
 1454TIP3    H1 4307   4.010   5.063   0.585
 1454TIP3    H2 4308   4.100   5.043   0.703
 1455TIP3   OH2 4309   2.751   4.635   0.874
 1455TIP3    H1 4310   2.691   4.671   0.806
 1455TIP3    H2 4311   2.699   4.651   0.954
 1456TIP3   OH2 4312   3.111   5.470  -0.083
 1456TIP3    H1 4313   3.058   5.467  -0.164
 1456TIP3    H2 4314   3.082   5.555  -0.046
 1457TIP3   OH2 4315   2.858   5.411   0.664
 1457TIP3    H1 4316   2.798   5.479   0.701
 1457TIP3    H2 4317   2.900   5.459   0.590
 1458TIP3   OH2 4318   3.653   4.749   0.237
 1458TIP3    H1 4319   3.651   4.692   0.315
 1458TIP3    H2 4320   3.704   4.826   0.268
 1459TIP3   OH2 4321   2.623   4.749   0.657
 1459TIP3    H1 4322   2.686   4.821   0.681
 1459TIP3    H2 4323   2.672   4.708   0.581
 1460TIP3   OH2 4324   2.687   5.607   0.767
 1460TIP3    H1 4325   2.661   5.694   0.729
 1460TIP3    H2 4326   2.608   5.589   0.822
 1461TIP3   OH2 4327   2.077   5.292  -0.002
 1461TIP3    H1 4328   2.035   5.315  -0.087
 1461TIP3    H2 4329   2.095   5.382   0.033
 1462TIP3   OH2 4330   3.521   5.799   0.244
 1462TIP3    H1 4331   3.433   5.784   0.286
 1462TIP3    H2 4332   3.508   5.890   0.212
 1463TIP3   OH2 4333   3.811   4.712   0.609
 1463TIP3    H1 4334   3.723   4.734   0.572
 1463TIP3    H2 4335   3.871   4.742   0.537
 1464TIP3   OH2 4336   3.103   4.349   0.589
 1464TIP3    H1 4337   3.088   4.254   0.608
 1464TIP3    H2 4338   3.026   4.388   0.636
 1465TIP3   OH2 4339   3.745   5.719   0.589
 1465TIP3    H1 4340   3.732   5.642   0.530
 1465TIP3    H2 4341   3.729   5.795   0.529
 1466TIP3   OH2 4342   3.050   5.138  -0.111
 1466TIP3    H1 4343   2.973   5.195  -0.135
 1466TIP3    H2 4344   3.123   5.183  -0.157
 1467TIP3   OH2 4345   3.941   5.367   0.438
 1467TIP3    H1 4346   3.855   5.415   0.443
 1467TIP3    H2 4347   3.965   5.382   0.344
 1468TIP3   OH2 4348   3.339   5.139  -0.137
 1468TIP3    H1 4349   3.312   5.184  -0.055
 1468TIP3    H2 4350   3.432   5.166  -0.142
 1469TIP3   OH2 4351   3.618   5.236   0.731
 1469TIP3    H1 4352   3.614   5.320   0.782
 1469TIP3    H2 4353   3.531   5.238   0.686
 1470TIP3   OH2 4354   2.617   5.195   0.234
 1470TIP3    H1 4355   2.575   5.136   0.167
 1470TIP3    H2 4356   2.693   5.142   0.264
 1471TIP3   OH2 4357   2.744   5.602   0.381
 1471TIP3    H1 4358   2.724   5.573   0.291
 1471TIP3    H2 4359   2.833   5.565   0.396
 1472TIP3   OH2 4360   2.747   5.169   0.587
 1472TIP3    H1 4361   2.782   5.141   0.500
 1472TIP3    H2 4362   2.794   5.253   0.603
 1473TIP3   OH2 4363   3.281   5.803   0.362
 1473TIP3    H1 4364   3.265   5.884   0.414
 1473TIP3    H2 4365   3.262   5.732   0.426
 1474TIP3   OH2 4366   2.892   5.724   0.911
 1474TIP3    H1 4367   2.830   5.785   0.957
 1474TIP3    H2 4368   2.828   5.670   0.860
 1475TIP3   OH2 4369   2.647   5.279   1.016
 1475TIP3    H1 4370   2.651   5.367   1.058
 1475TIP3    H2 4371   2.552   5.258   1.027
 1476TIP3   OH2 4372   2.980   5.733  -0.049
 1476TIP3    H1 4373   3.031   5.785   0.015
 1476TIP3    H2 4374   2.897   5.782  -0.048
 1477TIP3   OH2 4375   2.684   5.890   0.997
 1477TIP3    H1 4376   2.651   5.892   0.906
 1477TIP3    H2 4377   2.603   5.869   1.049
 1478TIP3   OH2 4378   2.479   5.036   0.044
 1478TIP3    H1 4379   2.407   5.067  -0.014
 1478TIP3    H2 4380   2.460   4.942   0.050
 1479TIP3   OH2 4381   2.264   5.423   0.944
 1479TIP3    H1 4382   2.197   5.401   0.877
 1479TIP3    H2 4383   2.302   5.336   0.967
 1480TIP3   OH2 4384   2.117   5.620   0.569
 1480TIP3    H1 4385   2.213   5.610   0.568
 1480TIP3    H2 4386   2.107   5.696   0.629
 1481TIP3   OH2 4387   3.988   6.068   0.642
 1481TIP3    H1 4388   3.981   5.971   0.653
 1481TIP3    H2 4389   3.903   6.096   0.682
 1482TIP3   OH2 4390   3.088   5.852   0.769
 1482TIP3    H1 4391   3.084   5.945   0.801
 1482TIP3    H2 4392   3.016   5.811   0.822
 1483TIP3   OH2 4393   2.265   5.806   0.119
 1483TIP3    H1 4394   2.344   5.807   0.178
 1483TIP3    H2 4395   2.197   5.786   0.186
 1484TIP3   OH2 4396   3.871   5.197   0.908
 1484TIP3    H1 4397   3.788   5.207   0.859
 1484TIP3    H2 4398   3.888   5.101   0.898
 1485TIP3   OH2 4399   2.467   5.608   0.931
 1485TIP3    H1 4400   2.518   5.588   1.012
 1485TIP3    H2 4401   2.393   5.543   0.938
 1486TIP3   OH2 4402   2.867   4.428   0.720
 1486TIP3    H1 4403   2.779   4.398   0.689
 1486TIP3    H2 4404   2.840   4.508   0.768
 1487TIP3   OH2 4405   3.403   4.543   0.913
 1487TIP3    H1 4406   3.472   4.514   0.976
 1487TIP3    H2 4407   3.320   4.523   0.961
 1488TIP3   OH2 4408   3.640   4.974   0.833
 1488TIP3    H1 4409   3.588   4.971   0.916
 1488TIP3    H2 4410   3.615   5.060   0.795
 1489TIP3   OH2 4411   3.017   4.508  -0.303
 1489TIP3    H1 4412   2.976   4.475  -0.221
 1489TIP3    H2 4413   2.989   4.441  -0.368
 1490TIP3   OH2 4414   2.799   4.946   0.736
 1490TIP3    H1 4415   2.749   4.966   0.818
 1490TIP3    H2 4416   2.782   5.027   0.683
 1491TIP3   OH2 4417   2.683   4.832   0.249
 1491TIP3    H1 4418   2.591   4.803   0.268
 1491TIP3    H2 4419   2.696   4.792   0.161
 1492TIP3   OH2 4420   3.178   4.917  -0.020
 1492TIP3    H1 4421   3.122   4.992  -0.049
 1492TIP3    H2 4422   3.256   4.931  -0.077
 1493TIP3   OH2 4423   3.349   5.192   1.063
 1493TIP3    H1 4424   3.326   5.119   1.125
 1493TIP3    H2 4425   3.443   5.205   1.085
 1494TIP3   OH2 4426   3.333   4.942   0.217
 1494TIP3    H1 4427   3.270   4.967   0.147
 1494TIP3    H2 4428   3.370   4.862   0.173
 1495TIP3   OH2 4429   2.618   4.972   0.944
 1495TIP3    H1 4430   2.652   5.033   1.012
 1495TIP3    H2 4431   2.607   4.890   0.995
 1496TIP3   OH2 4432   2.690   4.382  -0.325
 1496TIP3    H1 4433   2.665   4.426  -0.242
 1496TIP3    H2 4434   2.649   4.436  -0.394
 1497TIP3   OH2 4435   2.212   4.494   0.525
 1497TIP3    H1 4436   2.287   4.526   0.580
 1497TIP3    H2 4437   2.254   4.461   0.445
 1498TIP3   OH2 4438   2.173   4.475   0.040
 1498TIP3    H1 4439   2.232   4.507  -0.030
 1498TIP3    H2 4440   2.120   4.555   0.059
 1499TIP3   OH2 4441   3.343   5.188   0.639
 1499TIP3    H1 4442   3.375   5.116   0.579
 1499TIP3    H2 4443   3.311   5.134   0.714
 1500TIP3   OH2 4444   3.016   4.656   0.312
 1500TIP3    H1 4445   2.936   4.652   0.367
 1500TIP3    H2 4446   3.087   4.643   0.377
 1501TIP3   OH2 4447   2.446   4.709   0.318
 1501TIP3    H1 4448   2.352   4.715   0.289
 1501TIP3    H2 4449   2.470   4.617   0.296
 1502TIP3   OH2 4450   2.714   4.710   0.008
 1502TIP3    H1 4451   2.811   4.718  -0.007
 1502TIP3    H2 4452   2.676   4.742  -0.077
 1503TIP3   OH2 4453   3.505   4.730   0.520
 1503TIP3    H1 4454   3.467   4.742   0.609
 1503TIP3    H2 4455   3.440   4.669   0.480
 1504TIP3   OH2 4456   2.536   4.761  -0.200
 1504TIP3    H1 4457   2.461   4.700  -0.208
 1504TIP3    H2 4458   2.595   4.734  -0.274
 1505TIP3   OH2 4459   3.678   6.418   0.736
 1505TIP3    H1 4460   3.676   6.443   0.642
 1505TIP3    H2 4461   3.759   6.464   0.767
 1506TIP3   OH2 4462   2.629   5.530   1.152
 1506TIP3    H1 4463   2.710   5.557   1.200
 1506TIP3    H2 4464   2.566   5.524   1.226
 1507TIP3   OH2 4465   3.093   4.982   0.409
 1507TIP3    H1 4466   3.165   4.940   0.360
 1507TIP3    H2 4467   3.097   4.937   0.495
 1508TIP3   OH2 4468   2.612   4.469   0.290
 1508TIP3    H1 4469   2.577   4.390   0.339
 1508TIP3    H2 4470   2.654   4.427   0.214
 1509TIP3   OH2 4471   3.069   4.882   0.695
 1509TIP3    H1 4472   2.979   4.916   0.712
 1509TIP3    H2 4473   3.126   4.942   0.747
 1510TIP3   OH2 4474   2.828   5.262  -0.191
 1510TIP3    H1 4475   2.748   5.211  -0.215
 1510TIP3    H2 4476   2.795   5.309  -0.111
 1511TIP3   OH2 4477   3.702   5.504   0.422
 1511TIP3    H1 4478   3.724   5.552   0.340
 1511TIP3    H2 4479   3.618   5.459   0.397
 1512TIP3   OH2 4480   3.206   5.589   0.788
 1512TIP3    H1 4481   3.235   5.567   0.878
 1512TIP3    H2 4482   3.166   5.677   0.799
 1513TIP3   OH2 4483   2.498   5.291   0.466
 1513TIP3    H1 4484   2.537   5.263   0.381
 1513TIP3    H2 4485   2.545   5.234   0.529
 1514TIP3   OH2 4486   2.381   5.212   1.083
 1514TIP3    H1 4487   2.399   5.197   1.178
 1514TIP3    H2 4488   2.313   5.144   1.065
 1515TIP3   OH2 4489   3.108   5.328   1.101
 1515TIP3    H1 4490   3.047   5.267   1.056
 1515TIP3    H2 4491   3.195   5.291   1.073
 1516TIP3   OH2 4492   3.363   5.852   0.685
 1516TIP3    H1 4493   3.268   5.846   0.701
 1516TIP3    H2 4494   3.392   5.901   0.765
 1517TIP3   OH2 4495   3.996   5.778   0.677
 1517TIP3    H1 4496   3.898   5.772   0.671
 1517TIP3    H2 4497   4.020   5.746   0.587
 1518TIP3   OH2 4498   3.471   5.370   0.337
 1518TIP3    H1 4499   3.377   5.346   0.350
 1518TIP3    H2 4500   3.504   5.288   0.296
 1519TIP3   OH2 4501   2.609   5.589   0.111
 1519TIP3    H1 4502   2.600   5.665   0.049
 1519TIP3    H2 4503   2.516   5.566   0.120
 1520TIP3   OH2 4504   2.163   4.900  -0.208
 1520TIP3    H1 4505   2.210   4.982  -0.184
 1520TIP3    H2 4506   2.088   4.901  -0.145
 1521TIP3   OH2 4507   2.742   5.362   0.044
 1521TIP3    H1 4508   2.703   5.450   0.061
 1521TIP3    H2 4509   2.703   5.309   0.116
 1522TIP3   OH2 4510   2.870   5.937   0.563
 1522TIP3    H1 4511   2.909   6.011   0.512
 1522TIP3    H2 4512   2.948   5.901   0.607
 1523TIP3   OH2 4513   2.516   5.798  -0.032
 1523TIP3    H1 4514   2.424   5.821  -0.017
 1523TIP3    H2 4515   2.558   5.886  -0.025
 1524TIP3   OH2 4516   3.256   5.575   0.521
 1524TIP3    H1 4517   3.244   5.573   0.619
 1524TIP3    H2 4518   3.330   5.513   0.510
 1525TIP3   OH2 4519   3.507   6.094   0.582
 1525TIP3    H1 4520   3.429   6.035   0.578
 1525TIP3    H2 4521   3.487   6.159   0.511
 1526TIP3   OH2 4522   2.589   4.717   1.087
 1526TIP3    H1 4523   2.492   4.718   1.099
 1526TIP3    H2 4524   2.618   4.660   1.160
 1527TIP3   OH2 4525   2.307   5.798   0.720
 1527TIP3    H1 4526   2.362   5.727   0.756
 1527TIP3    H2 4527   2.337   5.874   0.772
 1528TIP3   OH2 4528   2.277   5.140  -0.120
 1528TIP3    H1 4529   2.210   5.190  -0.068
 1528TIP3    H2 4530   2.336   5.209  -0.151
 1529TIP3   OH2 4531   3.426   4.784   0.779
 1529TIP3    H1 4532   3.511   4.818   0.812
 1529TIP3    H2 4533   3.415   4.701   0.830
 1530TIP3   OH2 4534   3.292   4.546  -0.061
 1530TIP3    H1 4535   3.270   4.589  -0.146
 1530TIP3    H2 4536   3.350   4.614  -0.020
 1531TIP3   OH2 4537   2.991   4.713   0.040
 1531TIP3    H1 4538   3.061   4.778   0.018
 1531TIP3    H2 4539   3.002   4.704   0.137
 1532TIP3   OH2 4540   3.267   5.027   0.845
 1532TIP3    H1 4541   3.293   5.076   0.925
 1532TIP3    H2 4542   3.319   4.945   0.852
 1533TIP3   OH2 4543   3.141   4.433   0.138
 1533TIP3    H1 4544   3.139   4.510   0.197
 1533TIP3    H2 4545   3.199   4.468   0.066
 1534TIP3   OH2 4546   2.647   4.446  -0.052
 1534TIP3    H1 4547   2.657   4.538  -0.021
 1534TIP3    H2 4548   2.742   4.420  -0.054
 1535TIP3   OH2 4549   3.906   4.930   0.825
 1535TIP3    H1 4550   3.809   4.931   0.836
 1535TIP3    H2 4551   3.913   4.879   0.743
 1536TIP3   OH2 4552   3.554   5.126   0.227
 1536TIP3    H1 4553   3.478   5.064   0.232
 1536TIP3    H2 4554   3.624   5.076   0.274
 1537TIP3   OH2 4555   2.234   4.638  -0.188
 1537TIP3    H1 4556   2.219   4.735  -0.197
 1537TIP3    H2 4557   2.153   4.603  -0.225
 1538TIP3   OH2 4558   3.535   6.071   0.184
 1538TIP3    H1 4559   3.489   6.080   0.098
 1538TIP3    H2 4560   3.628   6.063   0.156
 1539TIP3   OH2 4561   2.601   4.349   0.691
 1539TIP3    H1 4562   2.572   4.314   0.604
 1539TIP3    H2 4563   2.591   4.270   0.748
 1540TIP3   OH2 4564   2.115   5.559   0.055
 1540TIP3    H1 4565   2.079   5.602   0.133
 1540TIP3    H2 4566   2.179   5.624   0.024
 1541TIP3   OH2 4567   2.301   6.110   1.148
 1541TIP3    H1 4568   2.389   6.106   1.190
 1541TIP3    H2 4569   2.280   6.015   1.142
 1542TIP3   OH2 4570   2.774   6.070   1.188
 1542TIP3    H1 4571   2.869   6.052   1.196
 1542TIP3    H2 4572   2.751   6.008   1.116
 1543TIP3   OH2 4573   3.416   5.981   0.923
 1543TIP3    H1 4574   3.410   5.911   0.992
 1543TIP3    H2 4575   3.494   6.031   0.953
 1544TIP3   OH2 4576   2.428   5.518   1.344
 1544TIP3    H1 4577   2.445   5.422   1.353
 1544TIP3    H2 4578   2.341   5.519   1.298
 1545TIP3   OH2 4579   3.034   5.603   1.119
 1545TIP3    H1 4580   2.994   5.623   1.032
 1545TIP3    H2 4581   3.066   5.511   1.108
 1546TIP3   OH2 4582   3.528   5.614   0.727
 1546TIP3    H1 4583   3.604   5.657   0.684
 1546TIP3    H2 4584   3.458   5.679   0.709
 1547TIP3   OH2 4585   2.549   5.256   1.327
 1547TIP3    H1 4586   2.624   5.200   1.301
 1547TIP3    H2 4587   2.578   5.285   1.416
 1548TIP3   OH2 4588   2.622   5.070  -0.235
 1548TIP3    H1 4589   2.587   5.024  -0.158
 1548TIP3    H2 4590   2.693   5.009  -0.264
 1549TIP3   OH2 4591   2.882   5.134   0.988
 1549TIP3    H1 4592   2.805   5.194   0.988
 1549TIP3    H2 4593   2.934   5.169   0.912
 1550TIP3   OH2 4594   3.402   5.537   1.121
 1550TIP3    H1 4595   3.478   5.504   1.072
 1550TIP3    H2 4596   3.395   5.472   1.194
 1551TIP3   OH2 4597   3.007   4.925   1.113
 1551TIP3    H1 4598   3.008   4.846   1.055
 1551TIP3    H2 4599   2.962   4.991   1.055
 1552TIP3   OH2 4600   3.010   4.712   0.923
 1552TIP3    H1 4601   3.038   4.751   0.838
 1552TIP3    H2 4602   2.917   4.688   0.903
 1553TIP3   OH2 4603   3.032   5.245   0.797
 1553TIP3    H1 4604   3.118   5.254   0.753
 1553TIP3    H2 4605   2.977   5.310   0.748
 1554TIP3   OH2 4606   3.615   5.211   1.173
 1554TIP3    H1 4607   3.661   5.126   1.186
 1554TIP3    H2 4608   3.685   5.266   1.136
 1555TIP3   OH2 4609   3.657   5.466   0.913
 1555TIP3    H1 4610   3.600   5.521   0.854
 1555TIP3    H2 4611   3.745   5.486   0.873
 1556TIP3   OH2 4612   2.885   5.031   1.347
 1556TIP3    H1 4613   2.818   4.961   1.362
 1556TIP3    H2 4614   2.919   5.005   1.258
 1557TIP3   OH2 4615   3.141   4.473   0.991
 1557TIP3    H1 4616   3.091   4.554   0.968
 1557TIP3    H2 4617   3.073   4.403   0.980
 1558TIP3   OH2 4618   3.266   4.975   1.206
 1558TIP3    H1 4619   3.252   4.959   1.301
 1558TIP3    H2 4620   3.177   4.951   1.172
 1559TIP3   OH2 4621   3.507   4.929   1.063
 1559TIP3    H1 4622   3.431   4.927   1.125
 1559TIP3    H2 4623   3.581   4.897   1.118
 1560TIP3   OH2 4624   3.738   4.869   1.209
 1560TIP3    H1 4625   3.750   4.773   1.225
 1560TIP3    H2 4626   3.732   4.905   1.300
 1561TIP3   OH2 4627   2.724   4.811   1.401
 1561TIP3    H1 4628   2.727   4.719   1.368
 1561TIP3    H2 4629   2.763   4.799   1.491
 1562TIP3   OH2 4630   3.234   4.483   1.249
 1562TIP3    H1 4631   3.300   4.411   1.243
 1562TIP3    H2 4632   3.195   4.478   1.160
 1563TIP3   OH2 4633   3.303   4.698   1.406
 1563TIP3    H1 4634   3.281   4.626   1.343
 1563TIP3    H2 4635   3.223   4.755   1.399
 1564TIP3   OH2 4636   1.999   5.311  -0.269
 1564TIP3    H1 4637   2.079   5.305  -0.323
 1564TIP3    H2 4638   1.957   5.224  -0.279
 1565TIP3   OH2 4639   1.921   5.901   0.127
 1565TIP3    H1 4640   1.834   5.937   0.154
 1565TIP3    H2 4641   1.950   5.851   0.206
 1566TIP3   OH2 4642   2.068   5.761   0.320
 1566TIP3    H1 4643   2.049   5.694   0.389
 1566TIP3    H2 4644   2.116   5.826   0.377
 1567TIP3   OH2 4645   3.802   6.194   0.407
 1567TIP3    H1 4646   3.767   6.103   0.402
 1567TIP3    H2 4647   3.892   6.175   0.438
 1568TIP3   OH2 4648   3.856   5.867   0.980
 1568TIP3    H1 4649   3.784   5.877   1.045
 1568TIP3    H2 4650   3.898   5.955   0.983
 1569TIP3   OH2 4651   3.859   5.635   0.233
 1569TIP3    H1 4652   3.902   5.565   0.181
 1569TIP3    H2 4653   3.814   5.689   0.166
 1570TIP3   OH2 4654   3.683   5.937   0.431
 1570TIP3    H1 4655   3.616   5.983   0.486
 1570TIP3    H2 4656   3.628   5.888   0.367
 1571TIP3   OH2 4657   3.620   5.088  -0.042
 1571TIP3    H1 4658   3.620   4.991  -0.053
 1571TIP3    H2 4659   3.605   5.099   0.055
 1572TIP3   OH2 4660   2.237   5.181   0.695
 1572TIP3    H1 4661   2.236   5.145   0.603
 1572TIP3    H2 4662   2.334   5.181   0.712
 1573TIP3   OH2 4663   3.903   5.530   0.806
 1573TIP3    H1 4664   3.974   5.463   0.795
 1573TIP3    H2 4665   3.929   5.599   0.742
 1574TIP3   OH2 4666   4.087   5.332   0.814
 1574TIP3    H1 4667   4.011   5.283   0.853
 1574TIP3    H2 4668   4.159   5.269   0.833
 1575TIP3   OH2 4669   3.609   4.817  -0.155
 1575TIP3    H1 4670   3.649   4.728  -0.137
 1575TIP3    H2 4671   3.675   4.852  -0.217
 1576TIP3   OH2 4672   3.759   4.988   0.347
 1576TIP3    H1 4673   3.844   5.017   0.306
 1576TIP3    H2 4674   3.775   5.021   0.437
 1577TIP3   OH2 4675   3.842   5.140   0.571
 1577TIP3    H1 4676   3.764   5.174   0.618
 1577TIP3    H2 4677   3.875   5.219   0.524
 1578TIP3   OH2 4678   2.458   4.865   1.371
 1578TIP3    H1 4679   2.556   4.859   1.374
 1578TIP3    H2 4680   2.434   4.778   1.408
 1579TIP3   OH2 4681   4.293   4.735   1.122
 1579TIP3    H1 4682   4.353   4.669   1.081
 1579TIP3    H2 4683   4.262   4.786   1.044
 1580TIP3   OH2 4684   3.703   4.573  -0.108
 1580TIP3    H1 4685   3.760   4.547  -0.033
 1580TIP3    H2 4686   3.651   4.491  -0.119
 1581TIP3   OH2 4687   2.417   4.558   0.701
 1581TIP3    H1 4688   2.478   4.482   0.708
 1581TIP3    H2 4689   2.481   4.631   0.691
 1582TIP3   OH2 4690   2.218   4.831   0.769
 1582TIP3    H1 4691   2.269   4.825   0.686
 1582TIP3    H2 4692   2.252   4.912   0.808
 1583TIP3   OH2 4693   4.160   4.868   0.925
 1583TIP3    H1 4694   4.074   4.911   0.943
 1583TIP3    H2 4695   4.130   4.794   0.869
 1584TIP3   OH2 4696   2.207   4.338   0.273
 1584TIP3    H1 4697   2.114   4.330   0.303
 1584TIP3    H2 4698   2.199   4.394   0.193
 1585TIP3   OH2 4699   2.426   4.417   1.088
 1585TIP3    H1 4700   2.374   4.409   1.170
 1585TIP3    H2 4701   2.359   4.452   1.026
 1586TIP3   OH2 4702   2.462   5.851   1.164
 1586TIP3    H1 4703   2.372   5.819   1.147
 1586TIP3    H2 4704   2.478   5.819   1.254
 1587TIP3   OH2 4705   2.644   5.879   0.713
 1587TIP3    H1 4706   2.598   5.955   0.672
 1587TIP3    H2 4707   2.730   5.890   0.667
 1588TIP3   OH2 4708   3.084   6.120   0.849
 1588TIP3    H1 4709   3.127   6.118   0.938
 1588TIP3    H2 4710   3.151   6.170   0.798
 1589TIP3   OH2 4711   3.267   6.271   0.710
 1589TIP3    H1 4712   3.340   6.219   0.672
 1589TIP3    H2 4713   3.317   6.330   0.771
 1590TIP3   OH2 4714   4.061   4.630   0.809
 1590TIP3    H1 4715   3.971   4.620   0.773
 1590TIP3    H2 4716   4.095   4.538   0.799
 1591TIP3   OH2 4717   2.315   6.128   0.736
 1591TIP3    H1 4718   2.227   6.164   0.713
 1591TIP3    H2 4719   2.330   6.173   0.820
 1592TIP3   OH2 4720   2.555   6.112   0.596
 1592TIP3    H1 4721   2.467   6.124   0.637
 1592TIP3    H2 4722   2.540   6.143   0.505
 1593TIP3   OH2 4723   2.980   6.136   0.403
 1593TIP3    H1 4724   2.920   6.147   0.327
 1593TIP3    H2 4725   2.986   6.228   0.436
 1594TIP3   OH2 4726   3.246   6.071   0.437
 1594TIP3    H1 4727   3.151   6.095   0.428
 1594TIP3    H2 4728   3.290   6.154   0.411
 1595TIP3   OH2 4729   3.455   6.261   0.374
 1595TIP3    H1 4730   3.435   6.342   0.322
 1595TIP3    H2 4731   3.487   6.200   0.304
 1596TIP3   OH2 4732   2.232   5.922   0.477
 1596TIP3    H1 4733   2.255   5.895   0.569
 1596TIP3    H2 4734   2.308   5.880   0.429
 1597TIP3   OH2 4735   2.427   5.797   0.337
 1597TIP3    H1 4736   2.444   5.714   0.387
 1597TIP3    H2 4737   2.518   5.835   0.333
 1598TIP3   OH2 4738   2.688   5.887   0.350
 1598TIP3    H1 4739   2.722   5.797   0.334
 1598TIP3    H2 4740   2.740   5.912   0.428
 1599TIP3   OH2 4741   3.263   4.546   0.427
 1599TIP3    H1 4742   3.224   4.473   0.478
 1599TIP3    H2 4743   3.339   4.502   0.383
 1600TIP3   OH2 4744   3.780   4.441   0.352
 1600TIP3    H1 4745   3.818   4.480   0.270
 1600TIP3    H2 4746   3.684   4.447   0.335
 1601TIP3   OH2 4747   3.878   4.510   0.105
 1601TIP3    H1 4748   3.948   4.459   0.059
 1601TIP3    H2 4749   3.911   4.601   0.086
 1602TIP3   OH2 4750   2.513   4.255   0.443
 1602TIP3    H1 4751   2.421   4.221   0.447
 1602TIP3    H2 4752   2.562   4.169   0.439
 1603TIP3   OH2 4753   2.282   4.126   0.091
 1603TIP3    H1 4754   2.333   4.174   0.022
 1603TIP3    H2 4755   2.273   4.196   0.159
 1604TIP3   OH2 4756   2.960   4.288   0.327
 1604TIP3    H1 4757   3.015   4.332   0.260
 1604TIP3    H2 4758   2.993   4.326   0.409
 1605TIP3   OH2 4759   3.500   4.435   0.305
 1605TIP3    H1 4760   3.504   4.400   0.215
 1605TIP3    H2 4761   3.488   4.353   0.359
 1606TIP3   OH2 4762   3.535   4.362  -0.074
 1606TIP3    H1 4763   3.450   4.387  -0.112
 1606TIP3    H2 4764   3.520   4.269  -0.047
 1607TIP3   OH2 4765   2.427   4.271  -0.093
 1607TIP3    H1 4766   2.449   4.233  -0.179
 1607TIP3    H2 4767   2.503   4.331  -0.077
 1608TIP3   OH2 4768   2.925   4.458  -0.041
 1608TIP3    H1 4769   2.989   4.410   0.014
 1608TIP3    H2 4770   2.950   4.550  -0.020
 1609TIP3   OH2 4771   2.722   4.537   1.336
 1609TIP3    H1 4772   2.686   4.466   1.392
 1609TIP3    H2 4773   2.816   4.536   1.364
 1610TIP3   OH2 4774   2.972   4.534   1.454
 1610TIP3    H1 4775   3.057   4.507   1.415
 1610TIP3    H2 4776   2.959   4.464   1.521
 1611TIP3   OH2 4777   3.799   4.598   1.241
 1611TIP3    H1 4778   3.816   4.566   1.332
 1611TIP3    H2 4779   3.888   4.591   1.201
 1612TIP3   OH2 4780   3.735   6.146   0.737
 1612TIP3    H1 4781   3.657   6.117   0.686
 1612TIP3    H2 4782   3.719   6.243   0.740
 1613TIP3   OH2 4783   4.312   5.416   0.241
 1613TIP3    H1 4784   4.339   5.348   0.306
 1613TIP3    H2 4785   4.353   5.496   0.279
 1614TIP3   OH2 4786   4.189   5.053   0.101
 1614TIP3    H1 4787   4.286   5.042   0.096
 1614TIP3    H2 4788   4.171   5.113   0.026
 1615TIP3   OH2 4789   4.547   4.892   0.374
 1615TIP3    H1 4790   4.496   4.924   0.296
 1615TIP3    H2 4791   4.485   4.913   0.447
 1616TIP3   OH2 4792   4.454   4.980   0.131
 1616TIP3    H1 4793   4.501   5.065   0.127
 1616TIP3    H2 4794   4.484   4.937   0.049
 1617TIP3   OH2 4795   4.487   5.840   0.300
 1617TIP3    H1 4796   4.476   5.908   0.231
 1617TIP3    H2 4797   4.398   5.839   0.340
 1618TIP3   OH2 4798   4.892   4.593   0.132
 1618TIP3    H1 4799   4.859   4.506   0.164
 1618TIP3    H2 4800   4.813   4.649   0.153
 1619TIP3   OH2 4801   4.648   5.940   0.497
 1619TIP3    H1 4802   4.604   6.028   0.496
 1619TIP3    H2 4803   4.598   5.896   0.425
 1620TIP3   OH2 4804   4.432   5.537   0.494
 1620TIP3    H1 4805   4.439   5.627   0.533
 1620TIP3    H2 4806   4.341   5.513   0.524
 1621TIP3   OH2 4807   4.474   6.157   0.487
 1621TIP3    H1 4808   4.436   6.173   0.399
 1621TIP3    H2 4809   4.395   6.134   0.541
 1622TIP3   OH2 4810   4.054   5.674   0.434
 1622TIP3    H1 4811   3.986   5.654   0.366
 1622TIP3    H2 4812   4.090   5.586   0.456
 1623TIP3   OH2 4813   5.618   5.477   0.439
 1623TIP3    H1 4814   5.688   5.506   0.377
 1623TIP3    H2 4815   5.616   5.381   0.427
 1624TIP3   OH2 4816   4.247   5.863   0.431
 1624TIP3    H1 4817   4.301   5.847   0.511
 1624TIP3    H2 4818   4.180   5.792   0.437
 1625TIP3   OH2 4819   4.656   4.695   0.217
 1625TIP3    H1 4820   4.567   4.664   0.189
 1625TIP3    H2 4821   4.627   4.772   0.271
 1626TIP3   OH2 4822   5.200   4.802   0.397
 1626TIP3    H1 4823   5.269   4.780   0.463
 1626TIP3    H2 4824   5.117   4.782   0.445
 1627TIP3   OH2 4825   5.462   5.232   0.342
 1627TIP3    H1 4826   5.401   5.215   0.416
 1627TIP3    H2 4827   5.401   5.244   0.267
 1628TIP3   OH2 4828   4.608   5.227   0.213
 1628TIP3    H1 4829   4.553   5.232   0.293
 1628TIP3    H2 4830   4.544   5.253   0.144
 1629TIP3   OH2 4831   5.146   5.458   0.566
 1629TIP3    H1 4832   5.124   5.374   0.614
 1629TIP3    H2 4833   5.243   5.453   0.568
 1630TIP3   OH2 4834   4.414   5.226   0.424
 1630TIP3    H1 4835   4.459   5.281   0.489
 1630TIP3    H2 4836   4.398   5.144   0.474
 1631TIP3   OH2 4837   4.009   4.736   0.031
 1631TIP3    H1 4838   4.078   4.765   0.092
 1631TIP3    H2 4839   4.021   4.798  -0.045
 1632TIP3   OH2 4840   4.417   5.781   0.635
 1632TIP3    H1 4841   4.498   5.825   0.668
 1632TIP3    H2 4842   4.362   5.781   0.715
 1633TIP3   OH2 4843   4.860   5.094   0.206
 1633TIP3    H1 4844   4.780   5.147   0.189
 1633TIP3    H2 4845   4.927   5.163   0.221
 1634TIP3   OH2 4846   4.997   5.820   0.333
 1634TIP3    H1 4847   5.014   5.822   0.429
 1634TIP3    H2 4848   4.915   5.874   0.326
 1635TIP3   OH2 4849   4.178   5.463   0.570
 1635TIP3    H1 4850   4.191   5.447   0.666
 1635TIP3    H2 4851   4.106   5.400   0.550
 1636TIP3   OH2 4852   4.901   5.575   0.611
 1636TIP3    H1 4853   4.843   5.530   0.548
 1636TIP3    H2 4854   4.989   5.540   0.582
 1637TIP3   OH2 4855   4.379   4.977   0.577
 1637TIP3    H1 4856   4.282   4.979   0.586
 1637TIP3    H2 4857   4.405   4.916   0.648
 1638TIP3   OH2 4858   4.076   6.040   0.295
 1638TIP3    H1 4859   4.108   5.951   0.318
 1638TIP3    H2 4860   4.148   6.092   0.331
 1639TIP3   OH2 4861   5.202   5.064   0.299
 1639TIP3    H1 4862   5.291   5.065   0.262
 1639TIP3    H2 4863   5.196   4.972   0.332
 1640TIP3   OH2 4864   5.043   5.289   0.335
 1640TIP3    H1 4865   5.096   5.333   0.403
 1640TIP3    H2 4866   5.098   5.209   0.318
 1641TIP3   OH2 4867   4.399   4.610   0.201
 1641TIP3    H1 4868   4.363   4.577   0.115
 1641TIP3    H2 4869   4.390   4.529   0.256
 1642TIP3   OH2 4870   4.082   6.352   0.670
 1642TIP3    H1 4871   4.176   6.359   0.694
 1642TIP3    H2 4872   4.072   6.258   0.648
 1643TIP3   OH2 4873   4.576   6.325   0.682
 1643TIP3    H1 4874   4.671   6.307   0.674
 1643TIP3    H2 4875   4.543   6.272   0.607
 1644TIP3   OH2 4876   4.224   5.773   0.835
 1644TIP3    H1 4877   4.240   5.676   0.837
 1644TIP3    H2 4878   4.138   5.777   0.788
 1645TIP3   OH2 4879   4.863   5.852   0.623
 1645TIP3    H1 4880   4.791   5.875   0.559
 1645TIP3    H2 4881   4.873   5.755   0.611
 1646TIP3   OH2 4882   4.346   5.512   0.815
 1646TIP3    H1 4883   4.420   5.456   0.788
 1646TIP3    H2 4884   4.375   5.542   0.904
 1647TIP3   OH2 4885   4.655   5.381   0.495
 1647TIP3    H1 4886   4.580   5.445   0.495
 1647TIP3    H2 4887   4.711   5.421   0.425
 1648TIP3   OH2 4888   5.197   5.800   0.612
 1648TIP3    H1 4889   5.291   5.800   0.590
 1648TIP3    H2 4890   5.188   5.718   0.663
 1649TIP3   OH2 4891   4.806   5.178   0.601
 1649TIP3    H1 4892   4.807   5.095   0.548
 1649TIP3    H2 4893   4.754   5.238   0.545
 1650TIP3   OH2 4894   4.804   4.956   0.435
 1650TIP3    H1 4895   4.832   4.999   0.350
 1650TIP3    H2 4896   4.711   4.934   0.414
 1651TIP3   OH2 4897   4.823   5.512   0.329
 1651TIP3    H1 4898   4.911   5.470   0.321
 1651TIP3    H2 4899   4.831   5.582   0.261
 1652TIP3   OH2 4900   5.423   5.470   0.668
 1652TIP3    H1 4901   5.437   5.374   0.658
 1652TIP3    H2 4902   5.501   5.504   0.619
 1653TIP3   OH2 4903   4.686   5.288   0.829
 1653TIP3    H1 4904   4.617   5.221   0.847
 1653TIP3    H2 4905   4.715   5.262   0.740
 1654TIP3   OH2 4906   4.941   4.723   0.480
 1654TIP3    H1 4907   4.890   4.805   0.464
 1654TIP3    H2 4908   4.872   4.655   0.468
 1655TIP3   OH2 4909   5.058   5.233   0.694
 1655TIP3    H1 4910   5.032   5.214   0.786
 1655TIP3    H2 4911   4.973   5.211   0.650
 1656TIP3   OH2 4912   5.310   5.210   0.569
 1656TIP3    H1 4913   5.228   5.186   0.616
 1656TIP3    H2 4914   5.379   5.158   0.616
 1657TIP3   OH2 4915   5.534   5.122   0.703
 1657TIP3    H1 4916   5.549   5.026   0.716
 1657TIP3    H2 4917   5.532   5.157   0.794
 1658TIP3   OH2 4918   4.522   5.070   0.887
 1658TIP3    H1 4919   4.523   4.979   0.851
 1658TIP3    H2 4920   4.559   5.055   0.977
 1659TIP3   OH2 4921   5.032   4.739   0.738
 1659TIP3    H1 4922   5.096   4.666   0.732
 1659TIP3    H2 4923   4.992   4.734   0.648
 1660TIP3   OH2 4924   5.097   4.956   0.893
 1660TIP3    H1 4925   5.078   4.883   0.830
 1660TIP3    H2 4926   5.019   5.014   0.881
 1661TIP3   OH2 4927   4.043   5.426   0.180
 1661TIP3    H1 4928   4.050   5.408   0.085
 1661TIP3    H2 4929   4.138   5.433   0.203
 1662TIP3   OH2 4930   4.255   5.124   0.865
 1662TIP3    H1 4931   4.353   5.115   0.862
 1662TIP3    H2 4932   4.230   5.036   0.897
 1663TIP3   OH2 4933   6.112   4.986   0.626
 1663TIP3    H1 4934   6.157   4.913   0.578
 1663TIP3    H2 4935   6.073   5.035   0.551
 1664TIP3   OH2 4936   4.199   4.797   0.233
 1664TIP3    H1 4937   4.274   4.734   0.227
 1664TIP3    H2 4938   4.235   4.875   0.188
 1665TIP3   OH2 4939   3.999   5.098   0.285
 1665TIP3    H1 4940   4.062   5.068   0.216
 1665TIP3    H2 4941   4.040   5.180   0.314
 1666TIP3   OH2 4942   5.912   5.098   0.471
 1666TIP3    H1 4943   5.838   5.160   0.472
 1666TIP3    H2 4944   5.978   5.136   0.410
 1667TIP3   OH2 4945   4.223   4.672   0.576
 1667TIP3    H1 4946   4.168   4.667   0.656
 1667TIP3    H2 4947   4.159   4.710   0.512
 1668TIP3   OH2 4948   4.262   6.097   0.651
 1668TIP3    H1 4949   4.169   6.073   0.633
 1668TIP3    H2 4950   4.265   6.088   0.747
 1669TIP3   OH2 4951   5.809   4.862   0.312
 1669TIP3    H1 4952   5.732   4.824   0.267
 1669TIP3    H2 4953   5.874   4.789   0.310
 1670TIP3   OH2 4954   4.092   6.392   0.332
 1670TIP3    H1 4955   4.030   6.454   0.292
 1670TIP3    H2 4956   4.070   6.311   0.282
 1671TIP3   OH2 4957   4.299   4.499  -0.020
 1671TIP3    H1 4958   4.205   4.470  -0.026
 1671TIP3    H2 4959   4.345   4.418  -0.047
 1672TIP3   OH2 4960   4.517   4.795   0.825
 1672TIP3    H1 4961   4.482   4.723   0.879
 1672TIP3    H2 4962   4.612   4.793   0.851
 1673TIP3   OH2 4963   4.770   4.792   0.942
 1673TIP3    H1 4964   4.853   4.764   0.900
 1673TIP3    H2 4965   4.757   4.721   1.008
 1674TIP3   OH2 4966   5.601   4.855   0.731
 1674TIP3    H1 4967   5.617   4.823   0.822
 1674TIP3    H2 4968   5.690   4.847   0.691
 1675TIP3   OH2 4969   0.479   6.027   1.826
 1675TIP3    H1 4970   0.509   5.992   1.740
 1675TIP3    H2 4971   0.489   6.120   1.816
 1676TIP3   OH2 4972   1.852   6.359   0.587
 1676TIP3    H1 4973   1.890   6.445   0.612
 1676TIP3    H2 4974   1.848   6.367   0.489
 1677TIP3   OH2 4975   1.939   6.582   0.743
 1677TIP3    H1 4976   1.871   6.634   0.696
 1677TIP3    H2 4977   1.923   6.606   0.836
 1678TIP3   OH2 4978   1.677   6.268   0.780
 1678TIP3    H1 4979   1.586   6.291   0.758
 1678TIP3    H2 4980   1.727   6.296   0.700
 1679TIP3   OH2 4981   1.714   6.753   1.064
 1679TIP3    H1 4982   1.626   6.764   1.026
 1679TIP3    H2 4983   1.729   6.657   1.050
 1680TIP3   OH2 4984   1.245   6.090   1.082
 1680TIP3    H1 4985   1.317   6.058   1.141
 1680TIP3    H2 4986   1.165   6.068   1.134
 1681TIP3   OH2 4987   1.496   6.551   0.990
 1681TIP3    H1 4988   1.449   6.517   1.069
 1681TIP3    H2 4989   1.431   6.617   0.960
 1682TIP3   OH2 4990   1.184   6.783   1.248
 1682TIP3    H1 4991   1.158   6.691   1.266
 1682TIP3    H2 4992   1.276   6.782   1.282
 1683TIP3   OH2 4993   1.356   6.287   0.931
 1683TIP3    H1 4994   1.398   6.327   1.009
 1683TIP3    H2 4995   1.314   6.208   0.973
 1684TIP3   OH2 4996   1.757   6.489   0.970
 1684TIP3    H1 4997   1.659   6.499   0.978
 1684TIP3    H2 4998   1.761   6.424   0.898
 1685TIP3   OH2 4999   1.242   7.115   1.335
 1685TIP3    H1 5000   1.282   7.101   1.248
 1685TIP3    H2 5001   1.263   7.034   1.384
 1686TIP3   OH2 5002   1.461   6.768   1.318
 1686TIP3    H1 5003   1.514   6.689   1.333
 1686TIP3    H2 5004   1.529   6.833   1.292
 1687TIP3   OH2 5005   1.517   7.017   1.060
 1687TIP3    H1 5006   1.449   7.081   1.032
 1687TIP3    H2 5007   1.591   7.048   1.006
 1688TIP3   OH2 5008   0.986   6.014   1.150
 1688TIP3    H1 5009   0.957   6.059   1.067
 1688TIP3    H2 5010   0.955   5.924   1.134
 1689TIP3   OH2 5011   1.104   6.542   1.358
 1689TIP3    H1 5012   1.127   6.548   1.453
 1689TIP3    H2 5013   1.043   6.467   1.361
 1690TIP3   OH2 5014   1.356   6.473   1.205
 1690TIP3    H1 5015   1.279   6.478   1.264
 1690TIP3    H2 5016   1.428   6.450   1.267
 1691TIP3   OH2 5017   1.580   6.425   1.359
 1691TIP3    H1 5018   1.592   6.329   1.376
 1691TIP3    H2 5019   1.573   6.462   1.450
 1692TIP3   OH2 5020   1.082   6.040   1.409
 1692TIP3    H1 5021   1.146   5.966   1.400
 1692TIP3    H2 5022   1.034   6.032   1.324
 1693TIP3   OH2 5023   1.149   6.260   1.552
 1693TIP3    H1 5024   1.130   6.180   1.498
 1693TIP3    H2 5025   1.062   6.304   1.554
 1694TIP3   OH2 5026   1.711   7.448   1.138
 1694TIP3    H1 5027   1.635   7.435   1.200
 1694TIP3    H2 5028   1.734   7.541   1.159
 1695TIP3   OH2 5029   1.776   7.106   0.933
 1695TIP3    H1 5030   1.832   7.027   0.953
 1695TIP3    H2 5031   1.796   7.114   0.838
 1696TIP3   OH2 5032   1.929   6.890   0.980
 1696TIP3    H1 5033   1.854   6.837   1.015
 1696TIP3    H2 5034   2.002   6.825   0.992
 1697TIP3   OH2 5035   2.144   6.292   1.274
 1697TIP3    H1 5036   2.201   6.226   1.228
 1697TIP3    H2 5037   2.107   6.342   1.198
 1698TIP3   OH2 5038   2.003   6.422   1.081
 1698TIP3    H1 5039   1.917   6.468   1.091
 1698TIP3    H2 5040   1.975   6.350   1.022
 1699TIP3   OH2 5041   1.902   6.188   0.960
 1699TIP3    H1 5042   1.814   6.180   0.919
 1699TIP3    H2 5043   1.936   6.096   0.951
 1700TIP3   OH2 5044   1.690   5.992   0.490
 1700TIP3    H1 5045   1.713   6.070   0.439
 1700TIP3    H2 5046   1.597   5.976   0.461
 1701TIP3   OH2 5047   6.784   2.709   8.158
 1701TIP3    H1 5048   6.880   2.677   8.163
 1701TIP3    H2 5049   6.796   2.800   8.143
 1702TIP3   OH2 5050   0.841   6.085   1.667
 1702TIP3    H1 5051   0.887   6.069   1.598
 1702TIP3    H2 5052   0.775   6.007   1.677
 1703TIP3   OH2 5053   1.640   6.156   1.391
 1703TIP3    H1 5054   1.657   6.123   1.482
 1703TIP3    H2 5055   1.729   6.148   1.351
 1704TIP3   OH2 5056   2.175   6.978   0.433
 1704TIP3    H1 5057   2.203   6.904   0.492
 1704TIP3    H2 5058   2.260   7.020   0.415
 1705TIP3   OH2 5059   2.412   6.474   0.081
 1705TIP3    H1 5060   2.347   6.509   0.016
 1705TIP3    H2 5061   2.404   6.378   0.061
 1706TIP3   OH2 5062   3.717   6.831   0.252
 1706TIP3    H1 5063   3.681   6.917   0.221
 1706TIP3    H2 5064   3.778   6.861   0.322
 1707TIP3   OH2 5065   2.391   6.443   0.521
 1707TIP3    H1 5066   2.340   6.482   0.446
 1707TIP3    H2 5067   2.332   6.465   0.595
 1708TIP3   OH2 5068   2.538   7.234   0.293
 1708TIP3    H1 5069   2.445   7.257   0.312
 1708TIP3    H2 5070   2.565   7.311   0.240
 1709TIP3   OH2 5071   2.266   6.545   0.305
 1709TIP3    H1 5072   2.287   6.640   0.313
 1709TIP3    H2 5073   2.317   6.523   0.224
 1710TIP3   OH2 5074   3.411   6.489   0.233
 1710TIP3    H1 5075   3.314   6.493   0.221
 1710TIP3    H2 5076   3.435   6.579   0.200
 1711TIP3   OH2 5077   2.753   6.180   0.233
 1711TIP3    H1 5078   2.737   6.084   0.227
 1711TIP3    H2 5079   2.670   6.208   0.278
 1712TIP3   OH2 5080   3.262   7.072   0.382
 1712TIP3    H1 5081   3.241   7.134   0.454
 1712TIP3    H2 5082   3.172   7.054   0.345
 1713TIP3   OH2 5083   2.442   6.978   0.227
 1713TIP3    H1 5084   2.418   6.967   0.133
 1713TIP3    H2 5085   2.487   7.064   0.227
 1714TIP3   OH2 5086   2.546   7.435   0.550
 1714TIP3    H1 5087   2.507   7.524   0.560
 1714TIP3    H2 5088   2.494   7.399   0.476
 1715TIP3   OH2 5089   2.292   7.106   0.665
 1715TIP3    H1 5090   2.293   7.192   0.711
 1715TIP3    H2 5091   2.197   7.086   0.664
 1716TIP3   OH2 5092   3.497   7.006   0.528
 1716TIP3    H1 5093   3.421   7.017   0.467
 1716TIP3    H2 5094   3.509   6.909   0.529
 1717TIP3   OH2 5095   2.068   7.433   0.638
 1717TIP3    H1 5096   2.155   7.408   0.676
 1717TIP3    H2 5097   2.036   7.348   0.607
 1718TIP3   OH2 5098   2.509   6.243   0.357
 1718TIP3    H1 5099   2.422   6.211   0.326
 1718TIP3    H2 5100   2.481   6.324   0.403
 1719TIP3   OH2 5101   3.040   6.364   0.552
 1719TIP3    H1 5102   3.109   6.331   0.613
 1719TIP3    H2 5103   2.957   6.339   0.598
 1720TIP3   OH2 5104   3.274   6.789   0.465
 1720TIP3    H1 5105   3.225   6.791   0.550
 1720TIP3    H2 5106   3.250   6.873   0.424
 1721TIP3   OH2 5107   2.438   6.760   0.386
 1721TIP3    H1 5108   2.381   6.784   0.461
 1721TIP3    H2 5109   2.434   6.839   0.328
 1722TIP3   OH2 5110   2.990   7.006   0.701
 1722TIP3    H1 5111   2.967   6.932   0.762
 1722TIP3    H2 5112   3.085   7.017   0.721
 1723TIP3   OH2 5113   2.267   6.782   0.613
 1723TIP3    H1 5114   2.325   6.822   0.679
 1723TIP3    H2 5115   2.251   6.693   0.650
 1724TIP3   OH2 5116   3.010   7.000   0.310
 1724TIP3    H1 5117   2.990   6.991   0.215
 1724TIP3    H2 5118   2.960   6.927   0.350
 1725TIP3   OH2 5119   2.667   6.470  -0.025
 1725TIP3    H1 5120   2.581   6.495   0.016
 1725TIP3    H2 5121   2.726   6.469   0.051
 1726TIP3   OH2 5122   3.141   6.508   0.202
 1726TIP3    H1 5123   3.101   6.566   0.270
 1726TIP3    H2 5124   3.063   6.461   0.168
 1727TIP3   OH2 5125   2.276   7.347   0.799
 1727TIP3    H1 5126   2.357   7.369   0.850
 1727TIP3    H2 5127   2.210   7.340   0.870
 1728TIP3   OH2 5128   2.839   6.762   0.127
 1728TIP3    H1 5129   2.778   6.724   0.063
 1728TIP3    H2 5130   2.804   6.726   0.212
 1729TIP3   OH2 5131   2.339   6.227  -0.022
 1729TIP3    H1 5132   2.262   6.171  -0.003
 1729TIP3    H2 5133   2.303   6.294  -0.083
 1730TIP3   OH2 5134   2.700   6.686   0.354
 1730TIP3    H1 5135   2.608   6.718   0.360
 1730TIP3    H2 5136   2.750   6.750   0.410
 1731TIP3   OH2 5137   2.865   7.444   0.433
 1731TIP3    H1 5138   2.882   7.368   0.489
 1731TIP3    H2 5139   2.777   7.472   0.464
 1732TIP3   OH2 5140   2.004   7.053   0.740
 1732TIP3    H1 5141   2.039   7.029   0.827
 1732TIP3    H2 5142   1.988   6.967   0.699
 1733TIP3   OH2 5143   2.750   7.130   0.745
 1733TIP3    H1 5144   2.689   7.083   0.686
 1733TIP3    H2 5145   2.836   7.095   0.713
 1734TIP3   OH2 5146   2.225   6.527   0.732
 1734TIP3    H1 5147   2.128   6.530   0.737
 1734TIP3    H2 5148   2.248   6.464   0.801
 1735TIP3   OH2 5149   3.050   6.616   0.441
 1735TIP3    H1 5150   3.141   6.643   0.462
 1735TIP3    H2 5151   3.045   6.527   0.483
 1736TIP3   OH2 5152   2.887   6.831   0.492
 1736TIP3    H1 5153   2.927   6.881   0.565
 1736TIP3    H2 5154   2.946   6.752   0.486
 1737TIP3   OH2 5155   3.540   6.736   0.480
 1737TIP3    H1 5156   3.442   6.732   0.475
 1737TIP3    H2 5157   3.564   6.736   0.386
 1738TIP3   OH2 5158   2.246   6.158   0.327
 1738TIP3    H1 5159   2.219   6.120   0.241
 1738TIP3    H2 5160   2.237   6.081   0.387
 1739TIP3   OH2 5161   2.055   7.312   0.975
 1739TIP3    H1 5162   2.099   7.225   0.968
 1739TIP3    H2 5163   1.964   7.283   0.994
 1740TIP3   OH2 5164   2.681   7.393   0.781
 1740TIP3    H1 5165   2.639   7.403   0.693
 1740TIP3    H2 5166   2.720   7.303   0.772
 1741TIP3   OH2 5167   3.146   7.434   0.392
 1741TIP3    H1 5168   3.177   7.494   0.322
 1741TIP3    H2 5169   3.052   7.461   0.400
 1742TIP3   OH2 5170   2.190   7.071   0.963
 1742TIP3    H1 5171   2.266   7.018   0.933
 1742TIP3    H2 5172   2.217   7.095   1.054
 1743TIP3   OH2 5173   2.517   6.948   0.630
 1743TIP3    H1 5174   2.444   7.014   0.631
 1743TIP3    H2 5175   2.573   6.982   0.556
 1744TIP3   OH2 5176   3.046   7.345   0.757
 1744TIP3    H1 5177   3.119   7.314   0.700
 1744TIP3    H2 5178   3.043   7.277   0.826
 1745TIP3   OH2 5179   2.642   6.739   0.754
 1745TIP3    H1 5180   2.644   6.659   0.697
 1745TIP3    H2 5181   2.601   6.805   0.694
 1746TIP3   OH2 5182   2.645   6.522   0.572
 1746TIP3    H1 5183   2.672   6.564   0.488
 1746TIP3    H2 5184   2.552   6.497   0.553
 1747TIP3   OH2 5185   2.681   7.063   0.453
 1747TIP3    H1 5186   2.766   7.048   0.408
 1747TIP3    H2 5187   2.636   7.125   0.392
 1748TIP3   OH2 5188   3.255   7.027   0.814
 1748TIP3    H1 5189   3.302   6.942   0.814
 1748TIP3    H2 5190   3.322   7.086   0.776
 1749TIP3   OH2 5191   3.270   7.279   0.573
 1749TIP3    H1 5192   3.223   7.339   0.510
 1749TIP3    H2 5193   3.362   7.290   0.542
 1750TIP3   OH2 5194   2.521   6.846   0.986
 1750TIP3    H1 5195   2.456   6.774   0.999
 1750TIP3    H2 5196   2.556   6.826   0.897
 1751TIP3   OH2 5197   2.780   6.286   0.630
 1751TIP3    H1 5198   2.729   6.367   0.608
 1751TIP3    H2 5199   2.713   6.216   0.616
 1752TIP3   OH2 5200   2.903   6.789   0.842
 1752TIP3    H1 5201   2.887   6.773   0.937
 1752TIP3    H2 5202   2.815   6.766   0.806
 1753TIP3   OH2 5203   3.149   6.752   0.703
 1753TIP3    H1 5204   3.072   6.745   0.762
 1753TIP3    H2 5205   3.222   6.717   0.757
 1754TIP3   OH2 5206   3.372   6.682   0.850
 1754TIP3    H1 5207   3.387   6.586   0.864
 1754TIP3    H2 5208   3.371   6.718   0.941
 1755TIP3   OH2 5209   2.363   6.625   1.039
 1755TIP3    H1 5210   2.365   6.535   1.001
 1755TIP3    H2 5211   2.400   6.609   1.128
 1756TIP3   OH2 5212   2.869   6.296   0.889
 1756TIP3    H1 5213   2.937   6.225   0.881
 1756TIP3    H2 5214   2.832   6.292   0.798
 1757TIP3   OH2 5215   2.938   6.511   1.045
 1757TIP3    H1 5216   2.918   6.439   0.981
 1757TIP3    H2 5217   2.860   6.569   1.035
 1758TIP3   OH2 5218   3.515   7.707   0.581
 1758TIP3    H1 5219   3.443   7.685   0.645
 1758TIP3    H2 5220   3.565   7.773   0.631
 1759TIP3   OH2 5221   3.532   7.334   0.499
 1759TIP3    H1 5222   3.605   7.269   0.513
 1759TIP3    H2 5223   3.551   7.356   0.406
 1760TIP3   OH2 5224   3.724   7.144   0.542
 1760TIP3    H1 5225   3.644   7.088   0.529
 1760TIP3    H2 5226   3.792   7.089   0.500
 1761TIP3   OH2 5227   2.097   6.680   1.016
 1761TIP3    H1 5228   2.194   6.670   1.012
 1761TIP3    H2 5229   2.071   6.591   1.046
 1762TIP3   OH2 5230   3.925   6.549   0.766
 1762TIP3    H1 5231   3.985   6.480   0.729
 1762TIP3    H2 5232   3.904   6.600   0.685
 1763TIP3   OH2 5233   2.059   6.365   0.339
 1763TIP3    H1 5234   2.131   6.301   0.352
 1763TIP3    H2 5235   2.111   6.447   0.324
 1764TIP3   OH2 5236   3.795   6.686   0.566
 1764TIP3    H1 5237   3.705   6.724   0.578
 1764TIP3    H2 5238   3.770   6.608   0.512
 1765TIP3   OH2 5239   2.061   6.231   0.724
 1765TIP3    H1 5240   2.007   6.225   0.805
 1765TIP3    H2 5241   1.997   6.269   0.661
 1766TIP3   OH2 5242   3.698   6.442   0.450
 1766TIP3    H1 5243   3.605   6.428   0.427
 1766TIP3    H2 5244   3.733   6.350   0.443
 1767TIP3   OH2 5245   2.939   6.343   0.078
 1767TIP3    H1 5246   2.877   6.296   0.136
 1767TIP3    H2 5247   2.941   6.284   0.002
 1768TIP3   OH2 5248   2.144   6.050   0.086
 1768TIP3    H1 5249   2.059   6.001   0.091
 1768TIP3    H2 5250   2.205   5.975   0.075
 1769TIP3   OH2 5251   2.606   6.046   0.018
 1769TIP3    H1 5252   2.685   6.046  -0.040
 1769TIP3    H2 5253   2.612   6.132   0.061
 1770TIP3   OH2 5254   2.357   6.350   0.975
 1770TIP3    H1 5255   2.325   6.277   1.030
 1770TIP3    H2 5256   2.452   6.350   1.000
 1771TIP3   OH2 5257   2.610   6.350   1.090
 1771TIP3    H1 5258   2.694   6.326   1.047
 1771TIP3    H2 5259   2.602   6.279   1.158
 1772TIP3   OH2 5260   3.437   6.412   0.878
 1772TIP3    H1 5261   3.455   6.380   0.969
 1772TIP3    H2 5262   3.526   6.407   0.837
 1773TIP3   OH2 5263   3.855   7.553   0.498
 1773TIP3    H1 5264   3.890   7.463   0.479
 1773TIP3    H2 5265   3.803   7.571   0.418
 1774TIP3   OH2 5266   3.988   7.321   0.458
 1774TIP3    H1 5267   4.035   7.239   0.440
 1774TIP3    H2 5268   4.021   7.346   0.547
 1775TIP3   OH2 5269   4.322   7.097   0.454
 1775TIP3    H1 5270   4.258   7.033   0.492
 1775TIP3    H2 5271   4.372   7.036   0.394
 1776TIP3   OH2 5272   4.150   6.897   0.535
 1776TIP3    H1 5273   4.151   6.804   0.503
 1776TIP3    H2 5274   4.190   6.883   0.624
 1777TIP3   OH2 5275   4.729   6.763   0.530
 1777TIP3    H1 5276   4.702   6.707   0.455
 1777TIP3    H2 5277   4.655   6.826   0.535
 1778TIP3   OH2 5278   3.887   6.928   0.466
 1778TIP3    H1 5279   3.984   6.927   0.486
 1778TIP3    H2 5280   3.860   6.848   0.516
 1779TIP3   OH2 5281   3.827   6.503   0.209
 1779TIP3    H1 5282   3.787   6.477   0.294
 1779TIP3    H2 5283   3.799   6.597   0.204
 1780TIP3   OH2 5284   4.154   6.631   0.482
 1780TIP3    H1 5285   4.132   6.540   0.457
 1780TIP3    H2 5286   4.246   6.621   0.515
 1781TIP3   OH2 5287   4.405   6.607   0.595
 1781TIP3    H1 5288   4.493   6.585   0.561
 1781TIP3    H2 5289   4.387   6.531   0.655
 1782TIP3   OH2 5290   1.393   0.037   3.993
 1782TIP3    H1 5291   1.388  -0.004   4.080
 1782TIP3    H2 5292   1.419   0.128   4.014
 1783TIP3   OH2 5293   1.049   0.506   3.979
 1783TIP3    H1 5294   1.092   0.426   3.946
 1783TIP3    H2 5295   1.031   0.482   4.071
 1784TIP3   OH2 5296   1.994  -0.506   4.522
 1784TIP3    H1 5297   1.918  -0.448   4.502
 1784TIP3    H2 5298   2.055  -0.447   4.569
 1785TIP3   OH2 5299   1.460   0.299   4.134
 1785TIP3    H1 5300   1.366   0.297   4.164
 1785TIP3    H2 5301   1.460   0.386   4.089
 1786TIP3   OH2 5302   1.683   0.208   4.480
 1786TIP3    H1 5303   1.675   0.134   4.417
 1786TIP3    H2 5304   1.667   0.286   4.422
 1787TIP3   OH2 5305   1.879  -0.152   4.323
 1787TIP3    H1 5306   1.797  -0.098   4.327
 1787TIP3    H2 5307   1.911  -0.128   4.234
 1788TIP3   OH2 5308   1.208   0.315   4.230
 1788TIP3    H1 5309   1.197   0.397   4.281
 1788TIP3    H2 5310   1.195   0.245   4.296
 1789TIP3   OH2 5311   1.924   0.559   4.527
 1789TIP3    H1 5312   1.924   0.463   4.545
 1789TIP3    H2 5313   1.840   0.584   4.573
 1790TIP3   OH2 5314   1.055   0.369   4.624
 1790TIP3    H1 5315   1.044   0.453   4.673
 1790TIP3    H2 5316   0.980   0.317   4.660
 1791TIP3   OH2 5317   1.816  -0.326   4.800
 1791TIP3    H1 5318   1.733  -0.275   4.799
 1791TIP3    H2 5319   1.786  -0.417   4.789
 1792TIP3   OH2 5320   1.617   0.905   4.627
 1792TIP3    H1 5321   1.615   0.932   4.533
 1792TIP3    H2 5322   1.697   0.952   4.658
 1793TIP3   OH2 5323   1.646  -0.002   4.305
 1793TIP3    H1 5324   1.682   0.051   4.230
 1793TIP3    H2 5325   1.565  -0.040   4.266
 1794TIP3   OH2 5326   1.323   0.333   4.600
 1794TIP3    H1 5327   1.226   0.348   4.595
 1794TIP3    H2 5328   1.346   0.393   4.673
 1795TIP3   OH2 5329   1.935   0.273   4.564
 1795TIP3    H1 5330   1.838   0.263   4.560
 1795TIP3    H2 5331   1.959   0.243   4.474
 1796TIP3   OH2 5332   1.427  -0.149   4.216
 1796TIP3    H1 5333   1.337  -0.168   4.247
 1796TIP3    H2 5334   1.440  -0.216   4.146
 1797TIP3   OH2 5335   0.831   0.446   4.475
 1797TIP3    H1 5336   0.854   0.512   4.408
 1797TIP3    H2 5337   0.917   0.427   4.515
 1798TIP3   OH2 5338   1.248   0.097   4.413
 1798TIP3    H1 5339   1.217   0.121   4.501
 1798TIP3    H2 5340   1.345   0.102   4.426
 1799TIP3   OH2 5341   1.444   0.594   4.461
 1799TIP3    H1 5342   1.360   0.545   4.447
 1799TIP3    H2 5343   1.436   0.661   4.390
 1800TIP3   OH2 5344   1.470   0.564   4.057
 1800TIP3    H1 5345   1.424   0.615   3.987
 1800TIP3    H2 5346   1.564   0.586   4.036
 1801TIP3   OH2 5347   1.365   0.465   4.845
 1801TIP3    H1 5348   1.405   0.394   4.896
 1801TIP3    H2 5349   1.434   0.535   4.854
 1802TIP3   OH2 5350   1.472   0.106   4.623
 1802TIP3    H1 5351   1.556   0.137   4.583
 1802TIP3    H2 5352   1.422   0.191   4.621
 1803TIP3   OH2 5353   1.634  -0.066   4.783
 1803TIP3    H1 5354   1.577  -0.010   4.727
 1803TIP3    H2 5355   1.722  -0.039   4.748
 1804TIP3   OH2 5356   1.725   0.651   4.021
 1804TIP3    H1 5357   1.750   0.691   4.106
 1804TIP3    H2 5358   1.780   0.701   3.958
 1805TIP3   OH2 5359   1.750   0.679   4.302
 1805TIP3    H1 5360   1.707   0.592   4.295
 1805TIP3    H2 5361   1.824   0.656   4.361
 1806TIP3   OH2 5362   1.792   0.355   4.870
 1806TIP3    H1 5363   1.724   0.363   4.939
 1806TIP3    H2 5364   1.838   0.441   4.877
 1807TIP3   OH2 5365   1.800   0.130   4.126
 1807TIP3    H1 5366   1.849   0.064   4.074
 1807TIP3    H2 5367   1.799   0.207   4.065
 1808TIP3   OH2 5368   1.624   0.429   4.323
 1808TIP3    H1 5369   1.553   0.475   4.372
 1808TIP3    H2 5370   1.574   0.385   4.250
 1809TIP3   OH2 5371   1.866   0.027   4.683
 1809TIP3    H1 5372   1.936  -0.042   4.676
 1809TIP3    H2 5373   1.902   0.100   4.628
 1810TIP3   OH2 5374   2.029  -0.184   4.701
 1810TIP3    H1 5375   1.957  -0.236   4.742
 1810TIP3    H2 5376   2.105  -0.243   4.722
 1811TIP3   OH2 5377   1.707  -0.518   4.246
 1811TIP3    H1 5378   1.787  -0.492   4.196
 1811TIP3    H2 5379   1.723  -0.469   4.329
 1812TIP3   OH2 5380   1.762  -0.357   4.464
 1812TIP3    H1 5381   1.678  -0.318   4.496
 1812TIP3    H2 5382   1.805  -0.281   4.421
 1813TIP3   OH2 5383   1.283   0.541   3.671
 1813TIP3    H1 5384   1.325   0.494   3.598
 1813TIP3    H2 5385   1.358   0.580   3.719
 1814TIP3   OH2 5386   1.030   0.616   4.748
 1814TIP3    H1 5387   1.069   0.607   4.838
 1814TIP3    H2 5388   1.097   0.670   4.702
 1815TIP3   OH2 5389   1.214   0.760   4.606
 1815TIP3    H1 5390   1.285   0.714   4.559
 1815TIP3    H2 5391   1.266   0.818   4.666
 1816TIP3   OH2 5392   0.931   0.629   4.282
 1816TIP3    H1 5393   0.854   0.646   4.224
 1816TIP3    H2 5394   0.946   0.718   4.319
 1817TIP3   OH2 5395   1.195   0.568   4.338
 1817TIP3    H1 5396   1.100   0.586   4.322
 1817TIP3    H2 5397   1.236   0.644   4.294
 1818TIP3   OH2 5398   1.399   0.757   4.248
 1818TIP3    H1 5399   1.383   0.842   4.201
 1818TIP3    H2 5400   1.424   0.698   4.173
 1819TIP3   OH2 5401   1.675   0.636   4.621
 1819TIP3    H1 5402   1.596   0.608   4.571
 1819TIP3    H2 5403   1.657   0.732   4.631
 1820TIP3   OH2 5404   2.942   0.006   3.391
 1820TIP3    H1 5405   2.912   0.097   3.371
 1820TIP3    H2 5406   2.870  -0.044   3.349
 1821TIP3   OH2 5407   2.946   0.010   3.776
 1821TIP3    H1 5408   2.977  -0.012   3.866
 1821TIP3    H2 5409   2.903  -0.073   3.749
 1822TIP3   OH2 5410   2.238  -0.099   4.138
 1822TIP3    H1 5411   2.269  -0.170   4.197
 1822TIP3    H2 5412   2.310  -0.035   4.149
 1823TIP3   OH2 5413   3.190   0.309   3.458
 1823TIP3    H1 5414   3.170   0.247   3.529
 1823TIP3    H2 5415   3.217   0.388   3.508
 1824TIP3   OH2 5416   2.213   0.309   3.860
 1824TIP3    H1 5417   2.203   0.213   3.864
 1824TIP3    H2 5418   2.310   0.319   3.854
 1825TIP3   OH2 5419   2.001  -0.183   3.781
 1825TIP3    H1 5420   2.028  -0.263   3.831
 1825TIP3    H2 5421   2.073  -0.120   3.798
 1826TIP3   OH2 5422   2.837   0.774   3.471
 1826TIP3    H1 5423   2.880   0.703   3.419
 1826TIP3    H2 5424   2.826   0.732   3.557
 1827TIP3   OH2 5425   2.740   0.234   3.821
 1827TIP3    H1 5426   2.783   0.159   3.777
 1827TIP3    H2 5427   2.821   0.282   3.849
 1828TIP3   OH2 5428   3.163  -0.265   3.867
 1828TIP3    H1 5429   3.172  -0.356   3.898
 1828TIP3    H2 5430   3.120  -0.276   3.780
 1829TIP3   OH2 5431   2.465  -0.659   3.785
 1829TIP3    H1 5432   2.441  -0.568   3.758
 1829TIP3    H2 5433   2.393  -0.711   3.747
 1830TIP3   OH2 5434   3.152  -0.483   3.492
 1830TIP3    H1 5435   3.213  -0.533   3.550
 1830TIP3    H2 5436   3.200  -0.486   3.408
 1831TIP3   OH2 5437   2.098  -0.405   3.912
 1831TIP3    H1 5438   2.191  -0.397   3.946
 1831TIP3    H2 5439   2.106  -0.486   3.861
 1832TIP3   OH2 5440   2.561  -0.210   3.715
 1832TIP3    H1 5441   2.656  -0.226   3.734
 1832TIP3    H2 5442   2.529  -0.301   3.705
 1833TIP3   OH2 5443   3.791  -0.254   4.016
 1833TIP3    H1 5444   3.716  -0.200   3.984
 1833TIP3    H2 5445   3.848  -0.189   4.058
 1834TIP3   OH2 5446   2.834   0.229   3.259
 1834TIP3    H1 5447   2.796   0.219   3.170
 1834TIP3    H2 5448   2.789   0.311   3.289
 1835TIP3   OH2 5449   2.594   0.154   4.045
 1835TIP3    H1 5450   2.534   0.222   4.083
 1835TIP3    H2 5451   2.635   0.204   3.971
 1836TIP3   OH2 5452   2.356  -0.437   3.980
 1836TIP3    H1 5453   2.422  -0.386   4.030
 1836TIP3    H2 5454   2.384  -0.527   4.004
 1837TIP3   OH2 5455   2.424   0.350   4.144
 1837TIP3    H1 5456   2.399   0.438   4.109
 1837TIP3    H2 5457   2.345   0.333   4.201
 1838TIP3   OH2 5458   3.256   0.555   3.618
 1838TIP3    H1 5459   3.167   0.547   3.660
 1838TIP3    H2 5460   3.247   0.642   3.574
 1839TIP3   OH2 5461   2.957   0.598   3.293
 1839TIP3    H1 5462   3.008   0.517   3.273
 1839TIP3    H2 5463   3.019   0.665   3.255
 1840TIP3   OH2 5464   3.102   0.380   3.206
 1840TIP3    H1 5465   3.051   0.304   3.176
 1840TIP3    H2 5466   3.139   0.347   3.291
 1841TIP3   OH2 5467   3.482   0.465   3.966
 1841TIP3    H1 5468   3.468   0.388   3.907
 1841TIP3    H2 5469   3.461   0.541   3.906
 1842TIP3   OH2 5470   2.780  -0.141   3.218
 1842TIP3    H1 5471   2.697  -0.094   3.196
 1842TIP3    H2 5472   2.819  -0.157   3.130
 1843TIP3   OH2 5473   3.678   0.108   3.810
 1843TIP3    H1 5474   3.593   0.158   3.815
 1843TIP3    H2 5475   3.707   0.131   3.719
 1844TIP3   OH2 5476   3.128  -0.047   3.198
 1844TIP3    H1 5477   3.068  -0.028   3.274
 1844TIP3    H2 5478   3.211  -0.069   3.245
 1845TIP3   OH2 5479   3.353  -0.017   4.111
 1845TIP3    H1 5480   3.348   0.064   4.166
 1845TIP3    H2 5481   3.265  -0.013   4.067
 1846TIP3   OH2 5482   2.356  -0.062   3.610
 1846TIP3    H1 5483   2.335  -0.107   3.527
 1846TIP3    H2 5484   2.433  -0.114   3.643
 1847TIP3   OH2 5485   2.480   0.348   3.760
 1847TIP3    H1 5486   2.463   0.322   3.668
 1847TIP3    H2 5487   2.571   0.313   3.776
 1848TIP3   OH2 5488   2.491  -0.089   3.967
 1848TIP3    H1 5489   2.527  -0.112   3.879
 1848TIP3    H2 5490   2.535  -0.004   3.987
 1849TIP3   OH2 5491   3.019   0.549   3.745
 1849TIP3    H1 5492   3.002   0.630   3.796
 1849TIP3    H2 5493   2.999   0.478   3.809
 1850TIP3   OH2 5494   2.628   0.467   4.290
 1850TIP3    H1 5495   2.568   0.529   4.338
 1850TIP3    H2 5496   2.563   0.415   4.240
 1851TIP3   OH2 5497   2.982  -0.200   3.021
 1851TIP3    H1 5498   3.033  -0.135   3.072
 1851TIP3    H2 5499   3.002  -0.175   2.928
 1852TIP3   OH2 5500   2.374   0.035   4.382
 1852TIP3    H1 5501   2.382   0.118   4.433
 1852TIP3    H2 5502   2.283   0.009   4.407
 1853TIP3   OH2 5503   2.709   0.473   3.305
 1853TIP3    H1 5504   2.787   0.532   3.309
 1853TIP3    H2 5505   2.647   0.525   3.253
 1854TIP3   OH2 5506   2.422   0.633   4.379
 1854TIP3    H1 5507   2.385   0.636   4.289
 1854TIP3    H2 5508   2.342   0.612   4.433
 1855TIP3   OH2 5509   3.276   0.407   2.619
 1855TIP3    H1 5510   3.281   0.504   2.603
 1855TIP3    H2 5511   3.370   0.382   2.609
 1856TIP3   OH2 5512   2.001   0.167   4.325
 1856TIP3    H1 5513   1.935   0.146   4.255
 1856TIP3    H2 5514   2.039   0.080   4.347
 1857TIP3   OH2 5515   1.856   0.356   3.963
 1857TIP3    H1 5516   1.952   0.363   3.952
 1857TIP3    H2 5517   1.836   0.439   4.008
 1858TIP3   OH2 5518   3.719   0.815   4.016
 1858TIP3    H1 5519   3.717   0.718   4.030
 1858TIP3    H2 5520   3.635   0.841   4.061
 1859TIP3   OH2 5521   2.824   0.596   4.148
 1859TIP3    H1 5522   2.821   0.688   4.180
 1859TIP3    H2 5523   2.752   0.555   4.201
 1860TIP3   OH2 5524   2.584   0.742   3.092
 1860TIP3    H1 5525   2.545   0.697   3.015
 1860TIP3    H2 5526   2.584   0.833   3.056
 1861TIP3   OH2 5527   2.035   0.589   3.484
 1861TIP3    H1 5528   2.077   0.576   3.572
 1861TIP3    H2 5529   1.985   0.505   3.476
 1862TIP3   OH2 5530   2.787   0.629   2.741
 1862TIP3    H1 5531   2.845   0.558   2.708
 1862TIP3    H2 5532   2.816   0.637   2.834
 1863TIP3   OH2 5533   2.837   0.675   3.011
 1863TIP3    H1 5534   2.748   0.694   3.047
 1863TIP3    H2 5535   2.883   0.642   3.089
 1864TIP3   OH2 5536   3.608  -0.073   4.289
 1864TIP3    H1 5537   3.527  -0.035   4.251
 1864TIP3    H2 5538   3.587  -0.168   4.281
 1865TIP3   OH2 5539   2.206   0.349   4.309
 1865TIP3    H1 5540   2.255   0.336   4.393
 1865TIP3    H2 5541   2.131   0.287   4.319
 1866TIP3   OH2 5542   3.396  -0.267   4.237
 1866TIP3    H1 5543   3.347  -0.248   4.317
 1866TIP3    H2 5544   3.367  -0.198   4.176
 1867TIP3   OH2 5545   3.046  -0.137   2.756
 1867TIP3    H1 5546   3.037  -0.154   2.661
 1867TIP3    H2 5547   3.126  -0.082   2.755
 1868TIP3   OH2 5548   2.552  -0.303   4.130
 1868TIP3    H1 5549   2.494  -0.285   4.207
 1868TIP3    H2 5550   2.538  -0.222   4.076
 1869TIP3   OH2 5551   2.414  -0.442   3.621
 1869TIP3    H1 5552   2.321  -0.422   3.604
 1869TIP3    H2 5553   2.451  -0.449   3.532
 1870TIP3   OH2 5554   2.909  -0.341   3.355
 1870TIP3    H1 5555   2.866  -0.268   3.307
 1870TIP3    H2 5556   2.968  -0.378   3.285
 1871TIP3   OH2 5557   3.094  -0.035   4.427
 1871TIP3    H1 5558   3.068  -0.115   4.478
 1871TIP3    H2 5559   3.188  -0.028   4.452
 1872TIP3   OH2 5560   3.044  -0.269   3.618
 1872TIP3    H1 5561   2.990  -0.224   3.551
 1872TIP3    H2 5562   3.070  -0.349   3.566
 1873TIP3   OH2 5563   2.355  -0.277   4.326
 1873TIP3    H1 5564   2.374  -0.214   4.397
 1873TIP3    H2 5565   2.338  -0.359   4.375
 1874TIP3   OH2 5566   3.073  -0.061   4.017
 1874TIP3    H1 5567   3.113  -0.132   3.961
 1874TIP3    H2 5568   3.049  -0.115   4.096
 1875TIP3   OH2 5569   3.413   1.161   4.113
 1875TIP3    H1 5570   3.409   1.186   4.019
 1875TIP3    H2 5571   3.493   1.209   4.142
 1876TIP3   OH2 5572   2.369   0.273   4.532
 1876TIP3    H1 5573   2.448   0.303   4.581
 1876TIP3    H2 5574   2.304   0.271   4.605
 1877TIP3   OH2 5575   2.815  -0.270   3.789
 1877TIP3    H1 5576   2.899  -0.299   3.751
 1877TIP3    H2 5577   2.821  -0.306   3.881
 1878TIP3   OH2 5578   2.827  -0.344   4.049
 1878TIP3    H1 5579   2.737  -0.348   4.087
 1878TIP3    H2 5580   2.878  -0.300   4.120
 1879TIP3   OH2 5581   2.531  -0.005   3.183
 1879TIP3    H1 5582   2.435   0.008   3.171
 1879TIP3    H2 5583   2.539   0.035   3.273
 1880TIP3   OH2 5584   3.442   0.248   3.800
 1880TIP3    H1 5585   3.465   0.300   3.720
 1880TIP3    H2 5586   3.357   0.207   3.774
 1881TIP3   OH2 5587   2.942   0.333   4.170
 1881TIP3    H1 5588   2.968   0.313   4.261
 1881TIP3    H2 5589   2.903   0.421   4.178
 1882TIP3   OH2 5590   3.067  -0.427   3.147
 1882TIP3    H1 5591   3.163  -0.409   3.150
 1882TIP3    H2 5592   3.034  -0.353   3.092
 1883TIP3   OH2 5593   2.222   0.010   3.846
 1883TIP3    H1 5594   2.273  -0.003   3.763
 1883TIP3    H2 5595   2.283  -0.026   3.912
 1884TIP3   OH2 5596   2.687   0.163   3.021
 1884TIP3    H1 5597   2.644   0.252   3.026
 1884TIP3    H2 5598   2.626   0.111   3.077
 1885TIP3   OH2 5599   2.120  -0.045   4.463
 1885TIP3    H1 5600   2.145  -0.058   4.557
 1885TIP3    H2 5601   2.050  -0.111   4.453
 1886TIP3   OH2 5602   2.844   0.076   4.483
 1886TIP3    H1 5603   2.782   0.019   4.436
 1886TIP3    H2 5604   2.930   0.045   4.450
 1887TIP3   OH2 5605   3.102   0.589   4.068
 1887TIP3    H1 5606   3.005   0.589   4.081
 1887TIP3    H2 5607   3.130   0.643   4.145
 1888TIP3   OH2 5608   3.488  -0.324   2.965
 1888TIP3    H1 5609   3.449  -0.394   2.907
 1888TIP3    H2 5610   3.459  -0.246   2.911
 1889TIP3   OH2 5611   3.732   0.523   4.055
 1889TIP3    H1 5612   3.634   0.518   4.045
 1889TIP3    H2 5613   3.758   0.493   3.965
 1890TIP3   OH2 5614   3.224   0.481   2.887
 1890TIP3    H1 5615   3.178   0.417   2.943
 1890TIP3    H2 5616   3.227   0.437   2.800
 1891TIP3   OH2 5617   3.208   0.114   3.716
 1891TIP3    H1 5618   3.115   0.089   3.731
 1891TIP3    H2 5619   3.242   0.035   3.670
 1892TIP3   OH2 5620   2.336   0.341   3.471
 1892TIP3    H1 5621   2.334   0.424   3.419
 1892TIP3    H2 5622   2.242   0.322   3.478
 1893TIP3   OH2 5623   2.474   0.108   3.420
 1893TIP3    H1 5624   2.440   0.200   3.431
 1893TIP3    H2 5625   2.439   0.066   3.500
 1894TIP3   OH2 5626   2.608   0.682   3.940
 1894TIP3    H1 5627   2.649   0.756   3.890
 1894TIP3    H2 5628   2.684   0.647   3.989
 1895TIP3   OH2 5629   2.260   0.576   3.324
 1895TIP3    H1 5630   2.175   0.588   3.371
 1895TIP3    H2 5631   2.293   0.668   3.326
 1896TIP3   OH2 5632   2.991   0.316   3.903
 1896TIP3    H1 5633   2.980   0.316   4.001
 1896TIP3    H2 5634   3.073   0.266   3.894
 1897TIP3   OH2 5635   2.979   0.209   2.775
 1897TIP3    H1 5636   3.016   0.183   2.863
 1897TIP3    H2 5637   2.886   0.182   2.783
 1898TIP3   OH2 5638   3.242   0.848   3.949
 1898TIP3    H1 5639   3.161   0.794   3.943
 1898TIP3    H2 5640   3.227   0.913   3.877
 1899TIP3   OH2 5641   3.305   0.681   2.604
 1899TIP3    H1 5642   3.331   0.743   2.534
 1899TIP3    H2 5643   3.228   0.729   2.640
 1900TIP3   OH2 5644   3.130   0.138   2.996
 1900TIP3    H1 5645   3.121   0.080   3.074
 1900TIP3    H2 5646   3.227   0.142   2.988
 1901TIP3   OH2 5647   2.048   0.544   4.099
 1901TIP3    H1 5648   2.101   0.473   4.138
 1901TIP3    H2 5649   2.068   0.617   4.158
 1902TIP3   OH2 5650   2.302   0.198   3.044
 1902TIP3    H1 5651   2.310   0.192   3.140
 1902TIP3    H2 5652   2.290   0.295   3.035
 1903TIP3   OH2 5653   2.556   0.396   3.029
 1903TIP3    H1 5654   2.467   0.428   3.055
 1903TIP3    H2 5655   2.557   0.418   2.934
 1904TIP3   OH2 5656   2.717  -0.528   3.400
 1904TIP3    H1 5657   2.784  -0.457   3.392
 1904TIP3    H2 5658   2.758  -0.586   3.465
 1905TIP3   OH2 5659   3.020  -0.224   4.229
 1905TIP3    H1 5660   3.014  -0.157   4.300
 1905TIP3    H2 5661   3.058  -0.298   4.279
 1906TIP3   OH2 5662   2.291   0.468   3.070
 1906TIP3    H1 5663   2.262   0.541   3.011
 1906TIP3    H2 5664   2.274   0.507   3.159
 1907TIP3   OH2 5665   3.295  -0.131   3.592
 1907TIP3    H1 5666   3.215  -0.179   3.618
 1907TIP3    H2 5667   3.364  -0.178   3.644
 1908TIP3   OH2 5668   3.264   0.826   3.544
 1908TIP3    H1 5669   3.220   0.873   3.469
 1908TIP3    H2 5670   3.358   0.843   3.522
 1909TIP3   OH2 5671   1.916   0.345   3.459
 1909TIP3    H1 5672   1.821   0.330   3.468
 1909TIP3    H2 5673   1.932   0.307   3.370
 1910TIP3   OH2 5674   2.039   0.860   4.521
 1910TIP3    H1 5675   2.124   0.861   4.570
 1910TIP3    H2 5676   2.018   0.765   4.522
 1911TIP3   OH2 5677   2.517   0.819   4.563
 1911TIP3    H1 5678   2.610   0.791   4.574
 1911TIP3    H2 5679   2.488   0.756   4.494
 1912TIP3   OH2 5680   2.522   0.392   2.748
 1912TIP3    H1 5681   2.445   0.336   2.757
 1912TIP3    H2 5682   2.538   0.382   2.653
 1913TIP3   OH2 5683   3.156   0.725   4.301
 1913TIP3    H1 5684   3.148   0.656   4.371
 1913TIP3    H2 5685   3.232   0.777   4.333
 1914TIP3   OH2 5686   2.932   0.433   2.610
 1914TIP3    H1 5687   2.981   0.371   2.667
 1914TIP3    H2 5688   2.989   0.439   2.531
 1915TIP3   OH2 5689   2.167   0.263   4.721
 1915TIP3    H1 5690   2.178   0.169   4.739
 1915TIP3    H2 5691   2.079   0.267   4.678
 1916TIP3   OH2 5692   2.775   0.351   4.497
 1916TIP3    H1 5693   2.730   0.368   4.412
 1916TIP3    H2 5694   2.803   0.257   4.489
 1917TIP3   OH2 5695   2.708   0.112   2.750
 1917TIP3    H1 5696   2.691   0.134   2.844
 1917TIP3    H2 5697   2.683   0.019   2.745
 1918TIP3   OH2 5698   3.264   0.358   4.104
 1918TIP3    H1 5699   3.339   0.402   4.061
 1918TIP3    H2 5700   3.194   0.424   4.091
 1919TIP3   OH2 5701   2.294  -0.008   4.702
 1919TIP3    H1 5702   2.378  -0.055   4.688
 1919TIP3    H2 5703   2.310   0.028   4.792
 1920TIP3   OH2 5704   2.619  -0.090   4.366
 1920TIP3    H1 5705   2.536  -0.038   4.361
 1920TIP3    H2 5706   2.666  -0.062   4.284
 1921TIP3   OH2 5707   3.140   0.284   4.501
 1921TIP3    H1 5708   3.211   0.244   4.450
 1921TIP3    H2 5709   3.126   0.218   4.571
 1922TIP3   OH2 5710   3.290  -0.053   2.643
 1922TIP3    H1 5711   3.258  -0.097   2.562
 1922TIP3    H2 5712   3.256   0.037   2.624
 1923TIP3   OH2 5713   2.709  -0.312   4.486
 1923TIP3    H1 5714   2.657  -0.371   4.428
 1923TIP3    H2 5715   2.681  -0.225   4.449
 1924TIP3   OH2 5716   2.781  -0.005   4.166
 1924TIP3    H1 5717   2.864   0.008   4.119
 1924TIP3    H2 5718   2.722   0.059   4.122
 1925TIP3   OH2 5719   3.347  -0.045   4.529
 1925TIP3    H1 5720   3.378  -0.101   4.604
 1925TIP3    H2 5721   3.422   0.014   4.516
 1926TIP3   OH2 5722   3.396   0.210   4.287
 1926TIP3    H1 5723   3.336   0.264   4.231
 1926TIP3    H2 5724   3.482   0.235   4.247
 1927TIP3   OH2 5725   2.577  -0.185   4.708
 1927TIP3    H1 5726   2.545  -0.254   4.767
 1927TIP3    H2 5727   2.641  -0.231   4.651
 1928TIP3   OH2 5728   2.986  -0.262   4.521
 1928TIP3    H1 5729   3.007  -0.290   4.612
 1928TIP3    H2 5730   2.889  -0.271   4.522
 1929TIP3   OH2 5731   2.257   0.668   2.883
 1929TIP3    H1 5732   2.355   0.664   2.879
 1929TIP3    H2 5733   2.242   0.723   2.804
 1930TIP3   OH2 5734   1.650   0.653   3.505
 1930TIP3    H1 5735   1.588   0.585   3.476
 1930TIP3    H2 5736   1.699   0.606   3.576
 1931TIP3   OH2 5737   1.774   0.529   3.711
 1931TIP3    H1 5738   1.779   0.447   3.762
 1931TIP3    H2 5739   1.835   0.586   3.762
 1932TIP3   OH2 5740   3.522   0.906   3.505
 1932TIP3    H1 5741   3.545   0.945   3.591
 1932TIP3    H2 5742   3.577   0.958   3.444
 1933TIP3   OH2 5743   3.544   0.936   3.787
 1933TIP3    H1 5744   3.500   0.849   3.782
 1933TIP3    H2 5745   3.620   0.912   3.843
 1934TIP3   OH2 5746   3.594   0.611   4.361
 1934TIP3    H1 5747   3.521   0.622   4.425
 1934TIP3    H2 5748   3.636   0.700   4.363
 1935TIP3   OH2 5749   3.416   0.119   2.979
 1935TIP3    H1 5750   3.471   0.193   2.945
 1935TIP3    H2 5751   3.460   0.099   3.062
 1936TIP3   OH2 5752   3.574  -0.079   3.155
 1936TIP3    H1 5753   3.496  -0.085   3.217
 1936TIP3    H2 5754   3.631  -0.014   3.203
 1937TIP3   OH2 5755   3.596   0.388   3.616
 1937TIP3    H1 5756   3.643   0.322   3.562
 1937TIP3    H2 5757   3.590   0.464   3.555
 1938TIP3   OH2 5758   3.420   0.685   3.808
 1938TIP3    H1 5759   3.348   0.729   3.857
 1938TIP3    H2 5760   3.370   0.641   3.735
 1939TIP3   OH2 5761   3.471  -0.097   2.830
 1939TIP3    H1 5762   3.409  -0.087   2.754
 1939TIP3    H2 5763   3.442  -0.018   2.882
 1940TIP3   OH2 5764   3.340  -0.442   2.779
 1940TIP3    H1 5765   3.323  -0.362   2.728
 1940TIP3    H2 5766   3.247  -0.473   2.794
 1941TIP3   OH2 5767   3.360  -0.137   3.321
 1941TIP3    H1 5768   3.342  -0.231   3.301
 1941TIP3    H2 5769   3.341  -0.132   3.418
 1942TIP3   OH2 5770   1.973  -0.083   4.072
 1942TIP3    H1 5771   1.970  -0.106   3.977
 1942TIP3    H2 5772   2.071  -0.080   4.088
 1943TIP3   OH2 5773   3.641   0.277   4.183
 1943TIP3    H1 5774   3.712   0.210   4.171
 1943TIP3    H2 5775   3.665   0.346   4.119
 1944TIP3   OH2 5776   3.819   0.074   4.195
 1944TIP3    H1 5777   3.746   0.020   4.232
 1944TIP3    H2 5778   3.895   0.014   4.214
 1945TIP3   OH2 5779   3.342  -0.388   3.197
 1945TIP3    H1 5780   3.365  -0.468   3.250
 1945TIP3    H2 5781   3.402  -0.395   3.121
 1946TIP3   OH2 5782   3.504  -0.257   3.723
 1946TIP3    H1 5783   3.590  -0.233   3.682
 1946TIP3    H2 5784   3.518  -0.220   3.813
 1947TIP3   OH2 5785   3.571  -0.107   3.949
 1947TIP3    H1 5786   3.494  -0.073   3.999
 1947TIP3    H2 5787   3.603  -0.026   3.904
 1948TIP3   OH2 5788   2.193  -0.398   4.737
 1948TIP3    H1 5789   2.287  -0.398   4.756
 1948TIP3    H2 5790   2.164  -0.480   4.779
 1949TIP3   OH2 5791   1.949  -0.423   4.149
 1949TIP3    H1 5792   1.999  -0.413   4.066
 1949TIP3    H2 5793   1.977  -0.346   4.199
 1950TIP3   OH2 5794   3.108   0.779   3.163
 1950TIP3    H1 5795   3.155   0.771   3.077
 1950TIP3    H2 5796   3.152   0.856   3.201
 1951TIP3   OH2 5797   2.202   0.588   4.544
 1951TIP3    H1 5798   2.109   0.564   4.531
 1951TIP3    H2 5799   2.215   0.567   4.638
 1952TIP3   OH2 5800   2.382   0.621   4.091
 1952TIP3    H1 5801   2.333   0.696   4.053
 1952TIP3    H2 5802   2.468   0.636   4.046
 1953TIP3   OH2 5803   2.822   0.862   4.229
 1953TIP3    H1 5804   2.864   0.861   4.318
 1953TIP3    H2 5805   2.887   0.915   4.178
 1954TIP3   OH2 5806   3.000   1.018   4.091
 1954TIP3    H1 5807   3.070   0.968   4.046
 1954TIP3    H2 5808   3.054   1.074   4.151
 1955TIP3   OH2 5809   2.056   0.877   4.116
 1955TIP3    H1 5810   1.965   0.907   4.093
 1955TIP3    H2 5811   2.067   0.919   4.202
 1956TIP3   OH2 5812   2.293   0.856   3.976
 1956TIP3    H1 5813   2.205   0.868   4.019
 1956TIP3    H2 5814   2.274   0.886   3.885
 1957TIP3   OH2 5815   2.718   0.881   3.773
 1957TIP3    H1 5816   2.650   0.897   3.705
 1957TIP3    H2 5817   2.729   0.971   3.810
 1958TIP3   OH2 5818   2.987   0.820   3.825
 1958TIP3    H1 5819   2.893   0.838   3.805
 1958TIP3    H2 5820   3.031   0.892   3.777
 1959TIP3   OH2 5821   3.193   1.013   3.735
 1959TIP3    H1 5822   3.178   1.097   3.688
 1959TIP3    H2 5823   3.219   0.953   3.661
 1960TIP3   OH2 5824   1.966   0.669   3.860
 1960TIP3    H1 5825   1.993   0.641   3.950
 1960TIP3    H2 5826   2.039   0.626   3.808
 1961TIP3   OH2 5827   2.163   0.543   3.722
 1961TIP3    H1 5828   2.179   0.458   3.769
 1961TIP3    H2 5829   2.255   0.579   3.717
 1962TIP3   OH2 5830   2.430   0.635   3.725
 1962TIP3    H1 5831   2.461   0.544   3.711
 1962TIP3    H2 5832   2.478   0.658   3.807
 1963TIP3   OH2 5833   1.718   0.449   3.245
 1963TIP3    H1 5834   1.621   0.449   3.242
 1963TIP3    H2 5835   1.739   0.544   3.256
 1964TIP3   OH2 5836   2.522   0.645   2.843
 1964TIP3    H1 5837   2.597   0.695   2.807
 1964TIP3    H2 5838   2.533   0.560   2.794
 1965TIP3   OH2 5839   3.249   0.751   2.927
 1965TIP3    H1 5840   3.243   0.653   2.914
 1965TIP3    H2 5841   3.200   0.783   2.848
 1966TIP3   OH2 5842   3.470   0.891   4.113
 1966TIP3    H1 5843   3.392   0.861   4.062
 1966TIP3    H2 5844   3.451   0.987   4.119
 1967TIP3   OH2 5845   4.737   0.262   2.879
 1967TIP3    H1 5846   4.710   0.354   2.860
 1967TIP3    H2 5847   4.662   0.214   2.839
 1968TIP3   OH2 5848   4.741   0.267   3.262
 1968TIP3    H1 5849   4.772   0.245   3.352
 1968TIP3    H2 5850   4.698   0.186   3.234
 1969TIP3   OH2 5851   4.034   0.158   3.629
 1969TIP3    H1 5852   4.067   0.086   3.685
 1969TIP3    H2 5853   4.111   0.217   3.628
 1970TIP3   OH2 5854   4.985   0.568   2.945
 1970TIP3    H1 5855   4.968   0.503   3.014
 1970TIP3    H2 5856   5.013   0.645   2.996
 1971TIP3   OH2 5857   4.010   0.566   3.346
 1971TIP3    H1 5858   3.999   0.469   3.351
 1971TIP3    H2 5859   4.107   0.574   3.337
 1972TIP3   OH2 5860   3.784   0.068   3.279
 1972TIP3    H1 5861   3.828  -0.011   3.317
 1972TIP3    H2 5862   3.858   0.131   3.271
 1973TIP3   OH2 5863   4.634   1.031   2.959
 1973TIP3    H1 5864   4.676   0.958   2.908
 1973TIP3    H2 5865   4.623   0.990   3.046
 1974TIP3   OH2 5866   4.536   0.491   3.310
 1974TIP3    H1 5867   4.579   0.416   3.265
 1974TIP3    H2 5868   4.617   0.539   3.336
 1975TIP3   OH2 5869   4.952  -0.010   3.356
 1975TIP3    H1 5870   4.976  -0.099   3.382
 1975TIP3    H2 5871   4.917  -0.021   3.266
 1976TIP3   OH2 5872   2.554   7.791   1.664
 1976TIP3    H1 5873   2.585   7.870   1.616
 1976TIP3    H2 5874   2.578   7.718   1.606
 1977TIP3   OH2 5875   4.943  -0.236   2.978
 1977TIP3    H1 5876   5.004  -0.280   3.041
 1977TIP3    H2 5877   5.000  -0.232   2.899
 1978TIP3   OH2 5878   3.898  -0.157   3.392
 1978TIP3    H1 5879   3.984  -0.132   3.434
 1978TIP3    H2 5880   3.921  -0.248   3.368
 1979TIP3   OH2 5881   4.360   0.053   3.209
 1979TIP3    H1 5882   4.454   0.032   3.226
 1979TIP3    H2 5883   4.326  -0.036   3.185
 1980TIP3   OH2 5884   5.583   0.002   3.511
 1980TIP3    H1 5885   5.511   0.057   3.474
 1980TIP3    H2 5886   5.647   0.068   3.541
 1981TIP3   OH2 5887   4.626   0.484   2.747
 1981TIP3    H1 5888   4.588   0.474   2.659
 1981TIP3    H2 5889   4.583   0.567   2.776
 1982TIP3   OH2 5890   4.390   0.411   3.531
 1982TIP3    H1 5891   4.331   0.480   3.569
 1982TIP3    H2 5892   4.433   0.459   3.458
 1983TIP3   OH2 5893   4.146  -0.168   3.486
 1983TIP3    H1 5894   4.224  -0.133   3.533
 1983TIP3    H2 5895   4.173  -0.260   3.471
 1984TIP3   OH2 5896   4.221   0.608   3.631
 1984TIP3    H1 5897   4.196   0.695   3.595
 1984TIP3    H2 5898   4.141   0.591   3.686
 1985TIP3   OH2 5899   3.608   0.294   2.870
 1985TIP3    H1 5900   3.569   0.321   2.785
 1985TIP3    H2 5901   3.638   0.381   2.905
 1986TIP3   OH2 5902   5.052   0.812   3.106
 1986TIP3    H1 5903   4.962   0.803   3.147
 1986TIP3    H2 5904   5.043   0.899   3.062
 1987TIP3   OH2 5905   4.751   0.855   2.780
 1987TIP3    H1 5906   4.801   0.773   2.760
 1987TIP3    H2 5907   4.814   0.921   2.741
 1988TIP3   OH2 5908   4.896   0.640   2.693
 1988TIP3    H1 5909   4.859   0.559   2.654
 1988TIP3    H2 5910   4.934   0.606   2.777
 1989TIP3   OH2 5911   5.277   0.722   3.453
 1989TIP3    H1 5912   5.264   0.645   3.393
 1989TIP3    H2 5913   5.258   0.797   3.393
 1990TIP3   OH2 5914   4.570   0.122   2.709
 1990TIP3    H1 5915   4.490   0.174   2.689
 1990TIP3    H2 5916   4.612   0.117   2.621
 1991TIP3   OH2 5917   4.525  -0.101   2.429
 1991TIP3    H1 5918   4.597  -0.048   2.469
 1991TIP3    H2 5919   4.577  -0.166   2.378
 1992TIP3   OH2 5920   5.474   0.366   3.299
 1992TIP3    H1 5921   5.390   0.416   3.302
 1992TIP3    H2 5922   5.504   0.388   3.209
 1993TIP3   OH2 5923   4.915   0.200   2.679
 1993TIP3    H1 5924   4.861   0.224   2.758
 1993TIP3    H2 5925   5.001   0.181   2.722
 1994TIP3   OH2 5926   5.149   0.239   3.601
 1994TIP3    H1 5927   5.146   0.321   3.653
 1994TIP3    H2 5928   5.063   0.243   3.555
 1995TIP3   OH2 5929   4.151   0.196   3.100
 1995TIP3    H1 5930   4.109   0.135   3.037
 1995TIP3    H2 5931   4.230   0.146   3.131
 1996TIP3   OH2 5932   4.277   0.602   3.248
 1996TIP3    H1 5933   4.261   0.576   3.155
 1996TIP3    H2 5934   4.367   0.568   3.264
 1997TIP3   OH2 5935   4.283   0.169   3.455
 1997TIP3    H1 5936   4.317   0.141   3.367
 1997TIP3    H2 5937   4.329   0.253   3.471
 1998TIP3   OH2 5938   4.813   0.806   3.231
 1998TIP3    H1 5939   4.798   0.888   3.281
 1998TIP3    H2 5940   4.794   0.735   3.296
 1999TIP3   OH2 5941   4.425   0.723   3.778
 1999TIP3    H1 5942   4.364   0.785   3.824
 1999TIP3    H2 5943   4.360   0.671   3.726
 2000TIP3   OH2 5944   4.755   0.055   2.507
 2000TIP3    H1 5945   4.813   0.119   2.556
 2000TIP3    H2 5946   4.782   0.075   2.414
 2001TIP3   OH2 5947   4.170   0.289   3.874
 2001TIP3    H1 5948   4.176   0.375   3.921
 2001TIP3    H2 5949   4.077   0.265   3.893
 2002TIP3   OH2 5950   4.503   0.733   2.784
 2002TIP3    H1 5951   4.585   0.787   2.792
 2002TIP3    H2 5952   4.442   0.794   2.741
 2003TIP3   OH2 5953   4.218   0.889   3.865
 2003TIP3    H1 5954   4.183   0.894   3.774
 2003TIP3    H2 5955   4.138   0.868   3.917
 2004TIP3   OH2 5956   4.010   0.031   2.907
 2004TIP3    H1 5957   3.949   0.093   2.862
 2004TIP3    H2 5958   3.985  -0.052   2.865
 2005TIP3   OH2 5959   5.071   0.664   2.106
 2005TIP3    H1 5960   5.080   0.761   2.090
 2005TIP3    H2 5961   5.165   0.636   2.096
 2006TIP3   OH2 5962   3.796   0.424   3.812
 2006TIP3    H1 5963   3.727   0.406   3.745
 2006TIP3    H2 5964   3.833   0.335   3.830
 2007TIP3   OH2 5965   3.651   0.616   3.448
 2007TIP3    H1 5966   3.747   0.622   3.439
 2007TIP3    H2 5967   3.631   0.698   3.496
 2008TIP3   OH2 5968   5.515   1.070   3.502
 2008TIP3    H1 5969   5.513   0.974   3.518
 2008TIP3    H2 5970   5.432   1.097   3.547
 2009TIP3   OH2 5971   4.621   0.852   3.635
 2009TIP3    H1 5972   4.618   0.945   3.667
 2009TIP3    H2 5973   4.549   0.812   3.689
 2010TIP3   OH2 5974   4.387   0.981   2.587
 2010TIP3    H1 5975   4.338   0.964   2.504
 2010TIP3    H2 5976   4.352   1.067   2.615
 2011TIP3   OH2 5977   3.821   0.832   2.971
 2011TIP3    H1 5978   3.868   0.822   3.057
 2011TIP3    H2 5979   3.758   0.758   2.976
 2012TIP3   OH2 5980   4.584   0.885   2.224
 2012TIP3    H1 5981   4.643   0.815   2.188
 2012TIP3    H2 5982   4.619   0.896   2.315
 2013TIP3   OH2 5983   4.636   0.933   2.493
 2013TIP3    H1 5984   4.547   0.943   2.533
 2013TIP3    H2 5985   4.686   0.897   2.568
 2014TIP3   OH2 5986   5.403   0.183   3.779
 2014TIP3    H1 5987   5.325   0.218   3.733
 2014TIP3    H2 5988   5.393   0.088   3.763
 2015TIP3   OH2 5989   4.001   0.606   3.794
 2015TIP3    H1 5990   4.050   0.592   3.878
 2015TIP3    H2 5991   3.927   0.543   3.803
 2016TIP3   OH2 5992   5.174  -0.018   3.721
 2016TIP3    H1 5993   5.147   0.016   3.806
 2016TIP3    H2 5994   5.157   0.056   3.661
 2017TIP3   OH2 5995   4.837   0.095   2.254
 2017TIP3    H1 5996   4.797   0.079   2.166
 2017TIP3    H2 5997   4.917   0.145   2.228
 2018TIP3   OH2 5998   4.355  -0.041   3.620
 2018TIP3    H1 5999   4.293  -0.027   3.694
 2018TIP3    H2 6000   4.334   0.036   3.562
 2019TIP3   OH2 6001   4.233  -0.179   3.122
 2019TIP3    H1 6002   4.140  -0.156   3.116
 2019TIP3    H2 6003   4.252  -0.204   3.028
 2020TIP3   OH2 6004   4.698  -0.080   2.844
 2020TIP3    H1 6005   4.653  -0.006   2.797
 2020TIP3    H2 6006   4.765  -0.107   2.778
 2021TIP3   OH2 6007   4.890   0.220   3.912
 2021TIP3    H1 6008   4.865   0.141   3.964
 2021TIP3    H2 6009   4.984   0.230   3.938
 2022TIP3   OH2 6010   4.843  -0.016   3.103
 2022TIP3    H1 6011   4.790   0.033   3.037
 2022TIP3    H2 6012   4.864  -0.096   3.051
 2023TIP3   OH2 6013   4.154  -0.021   3.811
 2023TIP3    H1 6014   4.170   0.044   3.882
 2023TIP3    H2 6015   4.134  -0.102   3.861
 2024TIP3   OH2 6016   3.762  -0.345   2.981
 2024TIP3    H1 6017   3.825  -0.351   2.907
 2024TIP3    H2 6018   3.695  -0.407   2.947
 2025TIP3   OH2 6019   4.867   0.196   3.505
 2025TIP3    H1 6020   4.905   0.125   3.449
 2025TIP3    H2 6021   4.842   0.142   3.583
 2026TIP3   OH2 6022   4.258  -0.269   2.870
 2026TIP3    H1 6023   4.351  -0.283   2.843
 2026TIP3    H2 6024   4.208  -0.282   2.787
 2027TIP3   OH2 6025   4.088  -0.284   2.649
 2027TIP3    H1 6026   4.021  -0.310   2.582
 2027TIP3    H2 6027   4.149  -0.236   2.589
 2028TIP3   OH2 6028   5.210   1.418   3.600
 2028TIP3    H1 6029   5.206   1.445   3.507
 2028TIP3    H2 6030   5.288   1.467   3.632
 2029TIP3   OH2 6031   4.163   0.529   4.020
 2029TIP3    H1 6032   4.243   0.558   4.067
 2029TIP3    H2 6033   4.098   0.530   4.093
 2030TIP3   OH2 6034   4.614  -0.018   3.277
 2030TIP3    H1 6035   4.699  -0.042   3.237
 2030TIP3    H2 6036   4.621  -0.056   3.368
 2031TIP3   OH2 6037   4.619  -0.101   3.541
 2031TIP3    H1 6038   4.529  -0.087   3.577
 2031TIP3    H2 6039   4.674  -0.053   3.605
 2032TIP3   OH2 6040   4.339   0.268   2.659
 2032TIP3    H1 6041   4.264   0.207   2.645
 2032TIP3    H2 6042   4.319   0.304   2.749
 2033TIP3   OH2 6043   5.238   0.505   3.286
 2033TIP3    H1 6044   5.262   0.557   3.206
 2033TIP3    H2 6045   5.153   0.464   3.260
 2034TIP3   OH2 6046   4.772  -0.348   2.480
 2034TIP3    H1 6047   4.714  -0.398   2.542
 2034TIP3    H2 6048   4.810  -0.282   2.542
 2035TIP3   OH2 6049   4.735   0.587   3.658
 2035TIP3    H1 6050   4.769   0.574   3.747
 2035TIP3    H2 6051   4.699   0.678   3.662
 2036TIP3   OH2 6052   4.874  -0.155   2.643
 2036TIP3    H1 6053   4.972  -0.142   2.651
 2036TIP3    H2 6054   4.848  -0.077   2.589
 2037TIP3   OH2 6055   4.016   0.261   3.332
 2037TIP3    H1 6056   4.065   0.251   3.248
 2037TIP3    H2 6057   4.080   0.226   3.396
 2038TIP3   OH2 6058   4.486   0.420   2.484
 2038TIP3    H1 6059   4.437   0.506   2.486
 2038TIP3    H2 6060   4.431   0.366   2.544
 2039TIP3   OH2 6061   3.915   0.208   3.950
 2039TIP3    H1 6062   3.931   0.195   4.045
 2039TIP3    H2 6063   3.842   0.147   3.932
 2040TIP3   OH2 6064   4.641   0.331   3.972
 2040TIP3    H1 6065   4.579   0.276   3.920
 2040TIP3    H2 6066   4.727   0.301   3.937
 2041TIP3   OH2 6067   4.897   0.843   3.557
 2041TIP3    H1 6068   4.801   0.846   3.568
 2041TIP3    H2 6069   4.927   0.898   3.632
 2042TIP3   OH2 6070   5.307  -0.079   2.448
 2042TIP3    H1 6071   5.247  -0.129   2.388
 2042TIP3    H2 6072   5.292   0.011   2.413
 2043TIP3   OH2 6073   5.527   0.779   3.541
 2043TIP3    H1 6074   5.430   0.774   3.532
 2043TIP3    H2 6075   5.554   0.750   3.451
 2044TIP3   OH2 6076   5.015   0.739   2.372
 2044TIP3    H1 6077   4.981   0.671   2.431
 2044TIP3    H2 6078   5.023   0.693   2.286
 2045TIP3   OH2 6079   5.005   0.371   3.203
 2045TIP3    H1 6080   4.911   0.346   3.217
 2045TIP3    H2 6081   5.038   0.292   3.157
 2046TIP3   OH2 6082   4.136   0.598   2.961
 2046TIP3    H1 6083   4.134   0.679   2.906
 2046TIP3    H2 6084   4.041   0.584   2.973
 2047TIP3   OH2 6085   3.703  -0.094   2.671
 2047TIP3    H1 6086   3.747  -0.007   2.686
 2047TIP3    H2 6087   3.620  -0.082   2.722
 2048TIP3   OH2 6088   4.263   0.360   2.901
 2048TIP3    H1 6089   4.231   0.450   2.919
 2048TIP3    H2 6090   4.230   0.312   2.979
 2049TIP3   OH2 6091   4.404   0.939   3.427
 2049TIP3    H1 6092   4.445   1.013   3.377
 2049TIP3    H2 6093   4.481   0.904   3.475
 2050TIP3   OH2 6094   4.054   0.833   2.814
 2050TIP3    H1 6095   3.968   0.844   2.857
 2050TIP3    H2 6096   4.088   0.925   2.815
 2051TIP3   OH2 6097   4.787   0.573   3.390
 2051TIP3    H1 6098   4.776   0.572   3.488
 2051TIP3    H2 6099   4.869   0.523   3.379
 2052TIP3   OH2 6100   4.768   0.467   2.272
 2052TIP3    H1 6101   4.819   0.442   2.352
 2052TIP3    H2 6102   4.678   0.442   2.299
 2053TIP3   OH2 6103   5.038   1.104   3.435
 2053TIP3    H1 6104   4.956   1.051   3.428
 2053TIP3    H2 6105   5.024   1.170   3.364
 2054TIP3   OH2 6106   5.104   0.939   2.090
 2054TIP3    H1 6107   5.135   1.009   2.031
 2054TIP3    H2 6108   5.025   0.984   2.127
 2055TIP3   OH2 6109   4.928   0.400   2.487
 2055TIP3    H1 6110   4.917   0.333   2.558
 2055TIP3    H2 6111   5.025   0.397   2.474
 2056TIP3   OH2 6112   3.844   0.800   3.585
 2056TIP3    H1 6113   3.898   0.731   3.628
 2056TIP3    H2 6114   3.867   0.878   3.638
 2057TIP3   OH2 6115   4.133   0.446   2.271
 2057TIP3    H1 6116   4.145   0.353   2.246
 2057TIP3    H2 6117   4.111   0.438   2.366
 2058TIP3   OH2 6118   4.078   0.451   2.542
 2058TIP3    H1 6119   4.152   0.432   2.601
 2058TIP3    H2 6120   4.075   0.550   2.548
 2059TIP3   OH2 6121   3.809   0.148   2.749
 2059TIP3    H1 6122   3.743   0.197   2.803
 2059TIP3    H2 6123   3.823   0.214   2.678
 2060TIP3   OH2 6124   4.343   0.649   2.491
 2060TIP3    H1 6125   4.255   0.673   2.527
 2060TIP3    H2 6126   4.358   0.726   2.433
 2061TIP3   OH2 6127   4.538  -0.297   2.870
 2061TIP3    H1 6128   4.588  -0.213   2.860
 2061TIP3    H2 6129   4.571  -0.327   2.956
 2062TIP3   OH2 6130   4.811   0.031   3.714
 2062TIP3    H1 6131   4.807   0.095   3.787
 2062TIP3    H2 6132   4.865  -0.039   3.753
 2063TIP3   OH2 6133   4.087   0.722   2.561
 2063TIP3    H1 6134   4.059   0.792   2.498
 2063TIP3    H2 6135   4.071   0.767   2.647
 2064TIP3   OH2 6136   5.092   0.128   3.083
 2064TIP3    H1 6137   5.012   0.076   3.105
 2064TIP3    H2 6138   5.162   0.080   3.133
 2065TIP3   OH2 6139   3.803   0.349   2.553
 2065TIP3    H1 6140   3.863   0.425   2.560
 2065TIP3    H2 6141   3.851   0.297   2.485
 2066TIP3   OH2 6142   3.736  -0.366   2.701
 2066TIP3    H1 6143   3.744  -0.272   2.677
 2066TIP3    H2 6144   3.669  -0.397   2.638
 2067TIP3   OH2 6145   5.061   1.082   3.030
 2067TIP3    H1 6146   5.017   1.129   2.955
 2067TIP3    H2 6147   5.155   1.099   3.008
 2068TIP3   OH2 6148   3.664   0.557   2.933
 2068TIP3    H1 6149   3.606   0.594   3.001
 2068TIP3    H2 6150   3.634   0.606   2.853
 2069TIP3   OH2 6151   3.834   1.117   4.012
 2069TIP3    H1 6152   3.920   1.117   4.059
 2069TIP3    H2 6153   3.814   1.022   4.010
 2070TIP3   OH2 6154   4.308   1.070   4.058
 2070TIP3    H1 6155   4.404   1.057   4.061
 2070TIP3    H2 6156   4.284   1.009   3.985
 2071TIP3   OH2 6157   4.294   0.650   2.180
 2071TIP3    H1 6158   4.238   0.578   2.218
 2071TIP3    H2 6159   4.369   0.598   2.146
 2072TIP3   OH2 6160   4.952   0.981   3.788
 2072TIP3    H1 6161   4.945   0.913   3.858
 2072TIP3    H2 6162   5.028   1.034   3.819
 2073TIP3   OH2 6163   4.729   0.688   2.095
 2073TIP3    H1 6164   4.773   0.624   2.154
 2073TIP3    H2 6165   4.784   0.685   2.015
 2074TIP3   OH2 6166   3.962   0.518   4.211
 2074TIP3    H1 6167   3.975   0.422   4.217
 2074TIP3    H2 6168   3.875   0.522   4.165
 2075TIP3   OH2 6169   3.942   0.163   2.408
 2075TIP3    H1 6170   4.002   0.140   2.481
 2075TIP3    H2 6171   4.007   0.170   2.334
 2076TIP3   OH2 6172   4.568   0.605   3.985
 2076TIP3    H1 6173   4.527   0.626   3.899
 2076TIP3    H2 6174   4.598   0.513   3.974
 2077TIP3   OH2 6175   4.457   0.368   2.214
 2077TIP3    H1 6176   4.456   0.381   2.311
 2077TIP3    H2 6177   4.458   0.270   2.209
 2078TIP3   OH2 6178   5.060   0.616   3.592
 2078TIP3    H1 6179   5.137   0.658   3.548
 2078TIP3    H2 6180   4.992   0.684   3.577
 2079TIP3   OH2 6181   4.086   0.251   4.195
 2079TIP3    H1 6182   4.170   0.208   4.171
 2079TIP3    H2 6183   4.109   0.287   4.283
 2080TIP3   OH2 6184   4.143   0.073   2.622
 2080TIP3    H1 6185   4.133   0.029   2.707
 2080TIP3    H2 6186   4.183   0.002   2.567
 2081TIP3   OH2 6187   4.416   0.168   3.854
 2081TIP3    H1 6188   4.332   0.219   3.847
 2081TIP3    H2 6189   4.463   0.194   3.771
 2082TIP3   OH2 6190   4.247  -0.136   2.474
 2082TIP3    H1 6191   4.222  -0.130   2.379
 2082TIP3    H2 6192   4.345  -0.133   2.466
 2083TIP3   OH2 6193   4.935   0.540   3.988
 2083TIP3    H1 6194   5.008   0.505   3.935
 2083TIP3    H2 6195   4.924   0.472   4.056
 2084TIP3   OH2 6196   5.067   0.191   2.132
 2084TIP3    H1 6197   5.050   0.149   2.046
 2084TIP3    H2 6198   5.035   0.282   2.112
 2085TIP3   OH2 6199   4.503  -0.055   3.974
 2085TIP3    H1 6200   4.453  -0.114   3.914
 2085TIP3    H2 6201   4.477   0.032   3.935
 2086TIP3   OH2 6202   4.577   0.252   3.654
 2086TIP3    H1 6203   4.661   0.265   3.608
 2086TIP3    H2 6204   4.518   0.316   3.609
 2087TIP3   OH2 6205   5.142   0.215   4.020
 2087TIP3    H1 6206   5.176   0.159   4.093
 2087TIP3    H2 6207   5.219   0.269   3.997
 2088TIP3   OH2 6208   5.192   0.467   3.774
 2088TIP3    H1 6209   5.132   0.522   3.718
 2088TIP3    H2 6210   5.278   0.492   3.735
 2089TIP3   OH2 6211   4.382   0.069   4.205
 2089TIP3    H1 6212   4.341  -0.009   4.244
 2089TIP3    H2 6213   4.442   0.031   4.138
 2090TIP3   OH2 6214   4.781  -0.003   4.011
 2090TIP3    H1 6215   4.804  -0.034   4.101
 2090TIP3    H2 6216   4.684  -0.014   4.011
 2091TIP3   OH2 6217   4.056   0.921   2.374
 2091TIP3    H1 6218   4.151   0.922   2.349
 2091TIP3    H2 6219   4.020   0.974   2.300
 2092TIP3   OH2 6220   3.536   0.304   2.594
 2092TIP3    H1 6221   3.629   0.329   2.575
 2092TIP3    H2 6222   3.528   0.220   2.544
 2093TIP3   OH2 6223   3.455   0.920   3.003
 2093TIP3    H1 6224   3.387   0.862   2.962
 2093TIP3    H2 6225   3.497   0.858   3.066
 2094TIP3   OH2 6226   3.592   0.763   3.186
 2094TIP3    H1 6227   3.571   0.699   3.255
 2094TIP3    H2 6228   3.641   0.829   3.238
 2095TIP3   OH2 6229   5.320   1.162   2.992
 2095TIP3    H1 6230   5.338   1.198   3.082
 2095TIP3    H2 6231   5.368   1.224   2.936
 2096TIP3   OH2 6232   5.341   1.191   3.272
 2096TIP3    H1 6233   5.297   1.103   3.270
 2096TIP3    H2 6234   5.415   1.171   3.332
 2097TIP3   OH2 6235   5.390   0.867   3.847
 2097TIP3    H1 6236   5.317   0.879   3.911
 2097TIP3    H2 6237   5.432   0.956   3.849
 2098TIP3   OH2 6238   5.206   0.381   2.462
 2098TIP3    H1 6239   5.270   0.448   2.432
 2098TIP3    H2 6240   5.251   0.345   2.541
 2099TIP3   OH2 6241   5.332   0.254   2.667
 2099TIP3    H1 6242   5.264   0.216   2.727
 2099TIP3    H2 6243   5.396   0.294   2.729
 2100TIP3   OH2 6244   5.390   0.644   3.101
 2100TIP3    H1 6245   5.441   0.576   3.053
 2100TIP3    H2 6246   5.384   0.715   3.035
 2101TIP3   OH2 6247   5.216   0.941   3.294
 2101TIP3    H1 6248   5.145   0.985   3.345
 2101TIP3    H2 6249   5.166   0.897   3.223
 2102TIP3   OH2 6250   5.263   0.156   2.315
 2102TIP3    H1 6251   5.195   0.164   2.244
 2102TIP3    H2 6252   5.237   0.233   2.370
 2103TIP3   OH2 6253   5.134  -0.184   2.256
 2103TIP3    H1 6254   5.113  -0.106   2.202
 2103TIP3    H2 6255   5.085  -0.253   2.209
 2104TIP3   OH2 6256   5.144   0.122   2.811
 2104TIP3    H1 6257   5.147   0.027   2.787
 2104TIP3    H2 6258   5.132   0.120   2.909
 2105TIP3   OH2 6259   3.773   0.174   3.558
 2105TIP3    H1 6260   3.776   0.159   3.462
 2105TIP3    H2 6261   3.869   0.176   3.579
 2106TIP3   OH2 6262   5.436   0.533   3.670
 2106TIP3    H1 6263   5.508   0.467   3.659
 2106TIP3    H2 6264   5.461   0.602   3.606
 2107TIP3   OH2 6265   5.615   0.331   3.684
 2107TIP3    H1 6266   5.543   0.277   3.722
 2107TIP3    H2 6267   5.691   0.271   3.702
 2108TIP3   OH2 6268   5.146  -0.129   2.681
 2108TIP3    H1 6269   5.174  -0.207   2.733
 2108TIP3    H2 6270   5.208  -0.129   2.606
 2109TIP3   OH2 6271   5.299   0.001   3.211
 2109TIP3    H1 6272   5.385   0.023   3.168
 2109TIP3    H2 6273   5.316   0.037   3.300
 2110TIP3   OH2 6274   5.367   0.152   3.436
 2110TIP3    H1 6275   5.289   0.187   3.483
 2110TIP3    H2 6276   5.401   0.231   3.389
 2111TIP3   OH2 6277   3.985  -0.139   4.238
 2111TIP3    H1 6278   4.077  -0.163   4.225
 2111TIP3    H2 6279   3.949  -0.221   4.275
 2112TIP3   OH2 6280   3.749  -0.168   3.636
 2112TIP3    H1 6281   3.796  -0.158   3.551
 2112TIP3    H2 6282   3.773  -0.085   3.681
 2113TIP3   OH2 6283   4.899   1.037   2.647
 2113TIP3    H1 6284   4.950   1.029   2.564
 2113TIP3    H2 6285   4.947   1.108   2.693
 2114TIP3   OH2 6286   3.998   0.842   4.028
 2114TIP3    H1 6287   3.904   0.820   4.014
 2114TIP3    H2 6288   4.007   0.828   4.123
 2115TIP3   OH2 6289   4.179   0.878   3.578
 2115TIP3    H1 6290   4.130   0.954   3.539
 2115TIP3    H2 6291   4.264   0.893   3.532
 2116TIP3   OH2 6292   4.617   1.119   3.714
 2116TIP3    H1 6293   4.659   1.119   3.803
 2116TIP3    H2 6294   4.683   1.172   3.663
 2117TIP3   OH2 6295   4.797   1.274   3.578
 2117TIP3    H1 6296   4.869   1.225   3.535
 2117TIP3    H2 6297   4.849   1.331   3.639
 2118TIP3   OH2 6298   3.851   1.130   3.606
 2118TIP3    H1 6299   3.761   1.161   3.581
 2118TIP3    H2 6300   3.865   1.181   3.687
 2119TIP3   OH2 6301   4.088   1.111   3.461
 2119TIP3    H1 6302   4.000   1.123   3.505
 2119TIP3    H2 6303   4.069   1.144   3.371
 2120TIP3   OH2 6304   4.514   1.137   3.260
 2120TIP3    H1 6305   4.444   1.155   3.194
 2120TIP3    H2 6306   4.525   1.226   3.300
 2121TIP3   OH2 6307   4.783   1.076   3.311
 2121TIP3    H1 6308   4.689   1.095   3.292
 2121TIP3    H2 6309   4.827   1.150   3.267
 2122TIP3   OH2 6310   4.988   1.268   3.223
 2122TIP3    H1 6311   4.974   1.353   3.176
 2122TIP3    H2 6312   5.014   1.209   3.149
 2123TIP3   OH2 6313   3.763   0.926   3.344
 2123TIP3    H1 6314   3.788   0.898   3.435
 2123TIP3    H2 6315   3.836   0.883   3.294
 2124TIP3   OH2 6316   3.959   0.797   3.206
 2124TIP3    H1 6317   3.975   0.714   3.256
 2124TIP3    H2 6318   4.049   0.835   3.202
 2125TIP3   OH2 6319   4.224   0.891   3.212
 2125TIP3    H1 6320   4.257   0.800   3.200
 2125TIP3    H2 6321   4.272   0.915   3.293
 2126TIP3   OH2 6322   3.550   0.704   2.738
 2126TIP3    H1 6323   3.463   0.675   2.706
 2126TIP3    H2 6324   3.547   0.797   2.705
 2127TIP3   OH2 6325   4.326   0.883   2.321
 2127TIP3    H1 6326   4.413   0.907   2.283
 2127TIP3    H2 6327   4.302   0.809   2.260
 2128TIP3   OH2 6328   5.046   1.007   2.414
 2128TIP3    H1 6329   5.038   0.909   2.403
 2128TIP3    H2 6330   4.997   1.038   2.335
 2129TIP3   OH2 6331   3.625   0.705   2.375
 2129TIP3    H1 6332   3.624   0.759   2.455
 2129TIP3    H2 6333   3.717   0.674   2.368
 2130TIP3   OH2 6334   5.267   1.148   3.598
 2130TIP3    H1 6335   5.188   1.119   3.549
 2130TIP3    H2 6336   5.248   1.244   3.605
 2131TIP3   OH2 6337   6.528   0.513   2.375
 2131TIP3    H1 6338   6.500   0.606   2.361
 2131TIP3    H2 6339   6.455   0.467   2.331
 2132TIP3   OH2 6340   6.532   0.520   2.750
 2132TIP3    H1 6341   6.567   0.501   2.840
 2132TIP3    H2 6342   6.490   0.436   2.727
 2133TIP3   OH2 6343   5.831   0.417   3.110
 2133TIP3    H1 6344   5.860   0.345   3.171
 2133TIP3    H2 6345   5.914   0.466   3.103
 2134TIP3   OH2 6346   6.777   0.826   2.436
 2134TIP3    H1 6347   6.771   0.759   2.506
 2134TIP3    H2 6348   6.810   0.904   2.486
 2135TIP3   OH2 6349   5.817   0.821   2.831
 2135TIP3    H1 6350   5.802   0.724   2.818
 2135TIP3    H2 6351   5.884   0.818   2.900
 2136TIP3   OH2 6352   5.500   0.039   2.630
 2136TIP3    H1 6353   5.447   0.119   2.645
 2136TIP3    H2 6354   5.437  -0.014   2.579
 2137TIP3   OH2 6355   5.563   0.327   2.795
 2137TIP3    H1 6356   5.605   0.243   2.827
 2137TIP3    H2 6357   5.629   0.359   2.733
 2138TIP3   OH2 6358   6.423   1.279   2.451
 2138TIP3    H1 6359   6.467   1.209   2.398
 2138TIP3    H2 6360   6.449   1.257   2.541
 2139TIP3   OH2 6361   6.344   0.736   2.801
 2139TIP3    H1 6362   6.389   0.662   2.758
 2139TIP3    H2 6363   6.422   0.791   2.822
 2140TIP3   OH2 6364   6.746   0.245   2.838
 2140TIP3    H1 6365   6.773   0.159   2.872
 2140TIP3    H2 6366   6.716   0.224   2.747
 2141TIP3   OH2 6367   6.068  -0.132   2.767
 2141TIP3    H1 6368   6.041  -0.043   2.735
 2141TIP3    H2 6369   5.993  -0.186   2.740
 2142TIP3   OH2 6370   3.531   6.590   8.971
 2142TIP3    H1 6371   3.579   6.530   9.032
 2142TIP3    H2 6372   3.534   6.541   8.887
 2143TIP3   OH2 6373   5.692   0.108   2.890
 2143TIP3    H1 6374   5.784   0.113   2.926
 2143TIP3    H2 6375   5.709   0.048   2.815
 2144TIP3   OH2 6376   6.156   0.312   2.697
 2144TIP3    H1 6377   6.250   0.287   2.711
 2144TIP3    H2 6378   6.115   0.225   2.677
 2145TIP3   OH2 6379   7.377   0.257   2.993
 2145TIP3    H1 6380   7.304   0.315   2.963
 2145TIP3    H2 6381   7.443   0.321   3.024
 2146TIP3   OH2 6382   6.404   0.725   2.241
 2146TIP3    H1 6383   6.391   0.715   2.145
 2146TIP3    H2 6384   6.421   0.820   2.249
 2147TIP3   OH2 6385   6.188   0.669   3.016
 2147TIP3    H1 6386   6.130   0.740   3.050
 2147TIP3    H2 6387   6.234   0.713   2.941
 2148TIP3   OH2 6388   5.949   0.078   2.957
 2148TIP3    H1 6389   6.018   0.121   3.011
 2148TIP3    H2 6390   5.980  -0.014   2.960
 2149TIP3   OH2 6391   6.008   0.865   3.105
 2149TIP3    H1 6392   5.990   0.959   3.085
 2149TIP3    H2 6393   5.933   0.847   3.167
 2150TIP3   OH2 6394   5.406   0.553   2.356
 2150TIP3    H1 6395   5.365   0.578   2.270
 2150TIP3    H2 6396   5.435   0.640   2.390
 2151TIP3   OH2 6397   6.840   1.064   2.587
 2151TIP3    H1 6398   6.752   1.058   2.630
 2151TIP3    H2 6399   6.839   1.155   2.553
 2152TIP3   OH2 6400   6.525   1.107   2.255
 2152TIP3    H1 6401   6.579   1.026   2.239
 2152TIP3    H2 6402   6.590   1.173   2.225
 2153TIP3   OH2 6403   6.671   0.891   2.192
 2153TIP3    H1 6404   6.681   0.812   2.134
 2153TIP3    H2 6405   6.718   0.861   2.273
 2154TIP3   OH2 6406   7.045   0.975   2.942
 2154TIP3    H1 6407   7.064   0.909   2.873
 2154TIP3    H2 6408   7.116   1.041   2.932
 2155TIP3   OH2 6409   6.362   0.375   2.195
 2155TIP3    H1 6410   6.289   0.434   2.167
 2155TIP3    H2 6411   6.412   0.360   2.112
 2156TIP3   OH2 6412   7.268   0.604   2.778
 2156TIP3    H1 6413   7.186   0.659   2.783
 2156TIP3    H2 6414   7.306   0.638   2.695
 2157TIP3   OH2 6415   6.707   0.453   2.178
 2157TIP3    H1 6416   6.663   0.477   2.263
 2157TIP3    H2 6417   6.798   0.433   2.209
 2158TIP3   OH2 6418   6.944   0.496   3.088
 2158TIP3    H1 6419   6.943   0.578   3.140
 2158TIP3    H2 6420   6.858   0.502   3.042
 2159TIP3   OH2 6421   5.951   0.453   2.581
 2159TIP3    H1 6422   5.912   0.391   2.515
 2159TIP3    H2 6423   6.025   0.400   2.618
 2160TIP3   OH2 6424   6.083   0.424   2.946
 2160TIP3    H1 6425   6.115   0.396   2.858
 2160TIP3    H2 6426   6.128   0.509   2.960
 2161TIP3   OH2 6427   6.599   1.062   2.712
 2161TIP3    H1 6428   6.593   1.144   2.765
 2161TIP3    H2 6429   6.590   0.991   2.779
 2162TIP3   OH2 6430   6.220   0.980   3.263
 2162TIP3    H1 6431   6.160   1.042   3.310
 2162TIP3    H2 6432   6.157   0.927   3.212
 2163TIP3   OH2 6433   6.563   0.296   2.009
 2163TIP3    H1 6434   6.623   0.351   2.064
 2163TIP3    H2 6435   6.597   0.314   1.920
 2164TIP3   OH2 6436   5.967   0.548   3.361
 2164TIP3    H1 6437   5.972   0.633   3.410
 2164TIP3    H2 6438   5.874   0.523   3.378
 2165TIP3   OH2 6439   6.249   1.045   2.300
 2165TIP3    H1 6440   6.348   1.055   2.315
 2165TIP3    H2 6441   6.243   1.082   2.208
 2166TIP3   OH2 6442   6.013   1.145   3.351
 2166TIP3    H1 6443   5.976   1.152   3.261
 2166TIP3    H2 6444   5.933   1.125   3.405
 2167TIP3   OH2 6445   5.817   0.295   2.376
 2167TIP3    H1 6446   5.744   0.341   2.330
 2167TIP3    H2 6447   5.772   0.217   2.410
 2168TIP3   OH2 6448   6.806   0.941   1.649
 2168TIP3    H1 6449   6.844   1.027   1.620
 2168TIP3    H2 6450   6.879   0.880   1.630
 2169TIP3   OH2 6451   5.592   0.682   3.297
 2169TIP3    H1 6452   5.524   0.661   3.230
 2169TIP3    H2 6453   5.630   0.594   3.318
 2170TIP3   OH2 6454   5.443   0.876   2.931
 2170TIP3    H1 6455   5.539   0.880   2.935
 2170TIP3    H2 6456   5.418   0.955   2.981
 2171TIP3   OH2 6457   6.416   1.113   3.121
 2171TIP3    H1 6458   6.412   1.205   3.155
 2171TIP3    H2 6459   6.345   1.070   3.175
 2172TIP3   OH2 6460   6.178   1.227   2.085
 2172TIP3    H1 6461   6.143   1.213   1.994
 2172TIP3    H2 6462   6.152   1.320   2.102
 2173TIP3   OH2 6463   5.633   1.081   2.455
 2173TIP3    H1 6464   5.668   1.072   2.546
 2173TIP3    H2 6465   5.569   1.008   2.453
 2174TIP3   OH2 6466   6.376   1.146   1.715
 2174TIP3    H1 6467   6.432   1.073   1.681
 2174TIP3    H2 6468   6.412   1.158   1.806
 2175TIP3   OH2 6469   6.432   1.194   1.982
 2175TIP3    H1 6470   6.345   1.200   2.027
 2175TIP3    H2 6471   6.489   1.163   2.054
 2176TIP3   OH2 6472   7.197   0.438   3.270
 2176TIP3    H1 6473   7.122   0.477   3.222
 2176TIP3    H2 6474   7.186   0.344   3.249
 2177TIP3   OH2 6475   5.797   0.864   3.279
 2177TIP3    H1 6476   5.846   0.851   3.363
 2177TIP3    H2 6477   5.724   0.800   3.289
 2178TIP3   OH2 6478   6.972   0.239   3.207
 2178TIP3    H1 6479   6.944   0.272   3.292
 2178TIP3    H2 6480   6.954   0.315   3.148
 2179TIP3   OH2 6481   6.146   0.208   3.106
 2179TIP3    H1 6482   6.086   0.228   3.180
 2179TIP3    H2 6483   6.133   0.288   3.050
 2180TIP3   OH2 6484   6.011   0.092   2.613
 2180TIP3    H1 6485   5.917   0.068   2.625
 2180TIP3    H2 6486   6.026   0.062   2.520
 2181TIP3   OH2 6487   6.503   0.180   2.321
 2181TIP3    H1 6488   6.442   0.250   2.288
 2181TIP3    H2 6489   6.576   0.190   2.259
 2182TIP3   OH2 6490   6.686   0.478   3.400
 2182TIP3    H1 6491   6.661   0.398   3.453
 2182TIP3    H2 6492   6.780   0.488   3.426
 2183TIP3   OH2 6493   6.654   0.212   2.582
 2183TIP3    H1 6494   6.593   0.247   2.514
 2183TIP3    H2 6495   6.704   0.148   2.526
 2184TIP3   OH2 6496   5.946   0.236   3.298
 2184TIP3    H1 6497   5.972   0.298   3.367
 2184TIP3    H2 6498   5.932   0.153   3.346
 2185TIP3   OH2 6499   5.577  -0.159   2.431
 2185TIP3    H1 6500   5.592  -0.150   2.335
 2185TIP3    H2 6501   5.483  -0.133   2.436
 2186TIP3   OH2 6502   6.661   0.451   2.989
 2186TIP3    H1 6503   6.698   0.380   2.931
 2186TIP3    H2 6504   6.639   0.397   3.068
 2187TIP3   OH2 6505   5.760  -0.030   2.651
 2187TIP3    H1 6506   5.668   0.002   2.635
 2187TIP3    H2 6507   5.753  -0.118   2.614
 2188TIP3   OH2 6508   6.046  -0.013   2.361
 2188TIP3    H1 6509   6.132  -0.044   2.327
 2188TIP3    H2 6510   5.991  -0.030   2.283
 2189TIP3   OH2 6511   5.856  -0.046   2.140
 2189TIP3    H1 6512   5.758  -0.050   2.140
 2189TIP3    H2 6513   5.872   0.017   2.069
 2190TIP3   OH2 6514   6.993   1.697   3.086
 2190TIP3    H1 6515   6.999   1.712   2.990
 2190TIP3    H2 6516   7.077   1.733   3.118
 2191TIP3   OH2 6517   5.958   0.788   3.506
 2191TIP3    H1 6518   6.040   0.816   3.554
 2191TIP3    H2 6519   5.895   0.788   3.580
 2192TIP3   OH2 6520   6.414   0.235   2.755
 2192TIP3    H1 6521   6.501   0.206   2.725
 2192TIP3    H2 6522   6.416   0.208   2.850
 2193TIP3   OH2 6523   6.420   0.175   3.019
 2193TIP3    H1 6524   6.331   0.166   3.060
 2193TIP3    H2 6525   6.472   0.215   3.091
 2194TIP3   OH2 6526   6.131   0.528   2.146
 2194TIP3    H1 6527   6.057   0.464   2.137
 2194TIP3    H2 6528   6.116   0.561   2.238
 2195TIP3   OH2 6529   7.040   0.751   2.768
 2195TIP3    H1 6530   7.061   0.808   2.691
 2195TIP3    H2 6531   6.951   0.717   2.746
 2196TIP3   OH2 6532   6.525   0.841   3.144
 2196TIP3    H1 6533   6.572   0.828   3.228
 2196TIP3    H2 6534   6.496   0.934   3.150
 2197TIP3   OH2 6535   5.828   0.545   2.817
 2197TIP3    H1 6536   5.872   0.516   2.735
 2197TIP3    H2 6537   5.871   0.490   2.884
 2198TIP3   OH2 6538   6.287   0.683   1.987
 2198TIP3    H1 6539   6.239   0.769   1.991
 2198TIP3    H2 6540   6.231   0.629   2.047
 2199TIP3   OH2 6541   5.710   0.469   3.437
 2199TIP3    H1 6542   5.730   0.453   3.531
 2199TIP3    H2 6543   5.639   0.406   3.420
 2200TIP3   OH2 6544   6.437   0.586   3.460
 2200TIP3    H1 6545   6.376   0.533   3.405
 2200TIP3    H2 6546   6.524   0.558   3.425
 2201TIP3   OH2 6547   6.689   1.104   3.043
 2201TIP3    H1 6548   6.593   1.109   3.058
 2201TIP3    H2 6549   6.722   1.157   3.119
 2202TIP3   OH2 6550   6.784   1.009   1.914
 2202TIP3    H1 6551   6.791   0.939   1.980
 2202TIP3    H2 6552   6.788   0.960   1.829
 2203TIP3   OH2 6553   6.797   0.629   2.686
 2203TIP3    H1 6554   6.704   0.604   2.702
 2203TIP3    H2 6555   6.831   0.547   2.645
 2204TIP3   OH2 6556   5.495   0.160   2.165
 2204TIP3    H1 6557   5.535   0.248   2.182
 2204TIP3    H2 6558   5.415   0.166   2.222
 2205TIP3   OH2 6559   6.055   0.625   2.389
 2205TIP3    H1 6560   5.978   0.679   2.410
 2205TIP3    H2 6561   6.052   0.562   2.464
 2206TIP3   OH2 6562   6.208   1.192   2.926
 2206TIP3    H1 6563   6.245   1.263   2.871
 2206TIP3    H2 6564   6.288   1.158   2.970
 2207TIP3   OH2 6565   5.906   1.089   2.353
 2207TIP3    H1 6566   5.811   1.077   2.379
 2207TIP3    H2 6567   5.906   1.187   2.334
 2208TIP3   OH2 6568   6.588   0.832   2.877
 2208TIP3    H1 6569   6.572   0.828   2.974
 2208TIP3    H2 6570   6.673   0.785   2.870
 2209TIP3   OH2 6571   6.541   0.708   1.800
 2209TIP3    H1 6572   6.577   0.717   1.891
 2209TIP3    H2 6573   6.446   0.715   1.816
 2210TIP3   OH2 6574   6.822   1.373   2.938
 2210TIP3    H1 6575   6.755   1.305   2.921
 2210TIP3    H2 6576   6.817   1.426   2.855
 2211TIP3   OH2 6577   6.893   1.193   1.575
 2211TIP3    H1 6578   6.926   1.261   1.515
 2211TIP3    H2 6579   6.817   1.242   1.612
 2212TIP3   OH2 6580   6.698   0.680   2.024
 2212TIP3    H1 6581   6.694   0.596   2.075
 2212TIP3    H2 6582   6.795   0.684   2.008
 2213TIP3   OH2 6583   5.644   1.053   3.072
 2213TIP3    H1 6584   5.693   0.989   3.125
 2213TIP3    H2 6585   5.658   1.134   3.123
 2214TIP3   OH2 6586   5.930   0.711   1.760
 2214TIP3    H1 6587   5.932   0.630   1.706
 2214TIP3    H2 6588   5.898   0.678   1.845
 2215TIP3   OH2 6589   5.869   0.706   2.037
 2215TIP3    H1 6590   5.953   0.683   2.079
 2215TIP3    H2 6591   5.872   0.804   2.034
 2216TIP3   OH2 6592   5.606   0.406   2.237
 2216TIP3    H1 6593   5.538   0.452   2.292
 2216TIP3    H2 6594   5.615   0.472   2.166
 2217TIP3   OH2 6595   6.145   0.912   1.996
 2217TIP3    H1 6596   6.053   0.938   2.015
 2217TIP3    H2 6597   6.156   0.951   1.907
 2218TIP3   OH2 6598   6.378  -0.032   2.433
 2218TIP3    H1 6599   6.417   0.045   2.386
 2218TIP3    H2 6600   6.348   0.007   2.515
 2219TIP3   OH2 6601   6.610   0.290   3.202
 2219TIP3    H1 6602   6.608   0.354   3.276
 2219TIP3    H2 6603   6.661   0.218   3.241
 2220TIP3   OH2 6604   5.887   0.982   2.048
 2220TIP3    H1 6605   5.859   1.041   1.974
 2220TIP3    H2 6606   5.856   1.034   2.123
 2221TIP3   OH2 6607   6.886   0.385   2.574
 2221TIP3    H1 6608   6.811   0.326   2.592
 2221TIP3    H2 6609   6.959   0.340   2.620
 2222TIP3   OH2 6610   5.595   0.610   2.041
 2222TIP3    H1 6611   5.666   0.677   2.044
 2222TIP3    H2 6612   5.635   0.549   1.975
 2223TIP3   OH2 6613   5.590  -0.092   2.158
 2223TIP3    H1 6614   5.548  -0.003   2.160
 2223TIP3    H2 6615   5.520  -0.147   2.120
 2224TIP3   OH2 6616   6.851   1.337   2.512
 2224TIP3    H1 6617   6.813   1.387   2.437
 2224TIP3    H2 6618   6.947   1.355   2.497
 2225TIP3   OH2 6619   5.463   0.821   2.421
 2225TIP3    H1 6620   5.401   0.853   2.488
 2225TIP3    H2 6621   5.428   0.866   2.340
 2226TIP3   OH2 6622   5.631   1.373   3.497
 2226TIP3    H1 6623   5.717   1.376   3.545
 2226TIP3    H2 6624   5.612   1.278   3.497
 2227TIP3   OH2 6625   6.105   1.327   3.543
 2227TIP3    H1 6626   6.200   1.313   3.550
 2227TIP3    H2 6627   6.082   1.266   3.471
 2228TIP3   OH2 6628   6.089   0.921   1.698
 2228TIP3    H1 6629   6.035   0.841   1.717
 2228TIP3    H2 6630   6.158   0.883   1.638
 2229TIP3   OH2 6631   6.747   1.238   3.278
 2229TIP3    H1 6632   6.741   1.168   3.348
 2229TIP3    H2 6633   6.829   1.286   3.305
 2230TIP3   OH2 6634   6.541   0.965   1.590
 2230TIP3    H1 6635   6.619   0.938   1.643
 2230TIP3    H2 6636   6.584   1.026   1.528
 2231TIP3   OH2 6637   5.757   0.774   3.698
 2231TIP3    H1 6638   5.772   0.678   3.703
 2231TIP3    H2 6639   5.671   0.777   3.652
 2232TIP3   OH2 6640   5.730   0.420   1.907
 2232TIP3    H1 6641   5.795   0.399   1.976
 2232TIP3    H2 6642   5.789   0.426   1.828
 2233TIP3   OH2 6643   6.363   0.860   3.473
 2233TIP3    H1 6644   6.328   0.881   3.384
 2233TIP3    H2 6645   6.396   0.768   3.462
 2234TIP3   OH2 6646   6.259   0.635   1.712
 2234TIP3    H1 6647   6.246   0.632   1.809
 2234TIP3    H2 6648   6.194   0.571   1.678
 2235TIP3   OH2 6649   6.842   0.867   3.082
 2235TIP3    H1 6650   6.920   0.903   3.032
 2235TIP3    H2 6651   6.780   0.941   3.067
 2236TIP3   OH2 6652   5.883   0.505   3.681
 2236TIP3    H1 6653   5.967   0.465   3.656
 2236TIP3    H2 6654   5.906   0.542   3.769
 2237TIP3   OH2 6655   5.940   0.327   2.121
 2237TIP3    H1 6656   5.911   0.306   2.212
 2237TIP3    H2 6657   5.997   0.253   2.099
 2238TIP3   OH2 6658   6.210   0.422   3.339
 2238TIP3    H1 6659   6.128   0.476   3.333
 2238TIP3    H2 6660   6.259   0.449   3.258
 2239TIP3   OH2 6661   6.731   0.796   3.474
 2239TIP3    H1 6662   6.805   0.765   3.422
 2239TIP3    H2 6663   6.723   0.727   3.542
 2240TIP3   OH2 6664   6.299   0.201   3.462
 2240TIP3    H1 6665   6.252   0.141   3.401
 2240TIP3    H2 6666   6.273   0.287   3.421
 2241TIP3   OH2 6667   6.372   0.508   3.143
 2241TIP3    H1 6668   6.457   0.517   3.097
 2241TIP3    H2 6669   6.317   0.574   3.096
 2242TIP3   OH2 6670   6.938   0.473   3.507
 2242TIP3    H1 6671   6.973   0.417   3.580
 2242TIP3    H2 6672   7.015   0.526   3.483
 2243TIP3   OH2 6673   6.988   0.723   3.259
 2243TIP3    H1 6674   6.926   0.777   3.205
 2243TIP3    H2 6675   7.074   0.752   3.219
 2244TIP3   OH2 6676   6.174   0.326   3.691
 2244TIP3    H1 6677   6.141   0.245   3.732
 2244TIP3    H2 6678   6.237   0.291   3.625
 2245TIP3   OH2 6679   6.579   0.253   3.498
 2245TIP3    H1 6680   6.604   0.221   3.587
 2245TIP3    H2 6681   6.482   0.242   3.501
 2246TIP3   OH2 6682   5.853   1.179   1.862
 2246TIP3    H1 6683   5.948   1.183   1.842
 2246TIP3    H2 6684   5.819   1.230   1.786
 2247TIP3   OH2 6685   5.329   0.569   2.084
 2247TIP3    H1 6686   5.423   0.591   2.063
 2247TIP3    H2 6687   5.320   0.482   2.039
 2248TIP3   OH2 6688   5.251   1.177   2.490
 2248TIP3    H1 6689   5.183   1.118   2.450
 2248TIP3    H2 6690   5.292   1.116   2.554
 2249TIP3   OH2 6691   5.384   1.022   2.676
 2249TIP3    H1 6692   5.367   0.954   2.742
 2249TIP3    H2 6693   5.431   1.088   2.731
 2250TIP3   OH2 6694   7.108   1.426   2.477
 2250TIP3    H1 6695   7.134   1.458   2.565
 2250TIP3    H2 6696   7.177   1.463   2.420
 2251TIP3   OH2 6697   7.135   1.456   2.756
 2251TIP3    H1 6698   7.085   1.372   2.746
 2251TIP3    H2 6699   7.193   1.430   2.829
 2252TIP3   OH2 6700   6.962   0.693   1.992
 2252TIP3    H1 6701   7.025   0.764   1.970
 2252TIP3    H2 6702   7.022   0.635   2.044
 2253TIP3   OH2 6703   7.117   0.528   2.154
 2253TIP3    H1 6704   7.053   0.468   2.198
 2253TIP3    H2 6705   7.182   0.543   2.223
 2254TIP3   OH2 6706   7.175   0.901   2.583
 2254TIP3    H1 6707   7.229   0.838   2.532
 2254TIP3    H2 6708   7.175   0.979   2.525
 2255TIP3   OH2 6709   7.012   1.217   2.764
 2255TIP3    H1 6710   6.961   1.214   2.846
 2255TIP3    H2 6711   6.971   1.145   2.712
 2256TIP3   OH2 6712   6.943   0.371   2.305
 2256TIP3    H1 6713   6.959   0.275   2.305
 2256TIP3    H2 6714   6.925   0.388   2.400
 2257TIP3   OH2 6715   5.567   0.436   3.050
 2257TIP3    H1 6716   5.564   0.406   2.956
 2257TIP3    H2 6717   5.664   0.438   3.065
 2258TIP3   OH2 6718   7.227   0.804   3.152
 2258TIP3    H1 6719   7.305   0.748   3.132
 2258TIP3    H2 6720   7.242   0.883   3.096
 2259TIP3   OH2 6721   7.406   0.589   3.175
 2259TIP3    H1 6722   7.333   0.538   3.214
 2259TIP3    H2 6723   7.481   0.528   3.190
 2260TIP3   OH2 6724   7.099   0.261   2.695
 2260TIP3    H1 6725   7.184   0.285   2.651
 2260TIP3    H2 6726   7.115   0.296   2.785
 2261TIP3   OH2 6727   7.158   0.404   2.926
 2261TIP3    H1 6728   7.082   0.442   2.973
 2261TIP3    H2 6729   7.194   0.482   2.877
 2262TIP3   OH2 6730   5.781   0.118   3.724
 2262TIP3    H1 6731   5.873   0.095   3.704
 2262TIP3    H2 6732   5.748   0.034   3.760
 2263TIP3   OH2 6733   5.544   0.087   3.124
 2263TIP3    H1 6734   5.591   0.090   3.038
 2263TIP3    H2 6735   5.576   0.169   3.165
 2264TIP3   OH2 6736   6.686   1.291   2.138
 2264TIP3    H1 6737   6.742   1.286   2.057
 2264TIP3    H2 6738   6.736   1.356   2.191
 2265TIP3   OH2 6739   5.793   1.099   3.514
 2265TIP3    H1 6740   5.699   1.076   3.502
 2265TIP3    H2 6741   5.806   1.086   3.608
 2266TIP3   OH2 6742   5.976   1.133   3.059
 2266TIP3    H1 6743   5.930   1.212   3.023
 2266TIP3    H2 6744   6.063   1.147   3.016
 2267TIP3   OH2 6745   6.414   1.379   3.201
 2267TIP3    H1 6746   6.457   1.377   3.290
 2267TIP3    H2 6747   6.482   1.428   3.150
 2268TIP3   OH2 6748   6.598   1.528   3.061
 2268TIP3    H1 6749   6.672   1.477   3.024
 2268TIP3    H2 6750   6.646   1.586   3.124
 2269TIP3   OH2 6751   5.647   1.386   3.094
 2269TIP3    H1 6752   5.556   1.416   3.071
 2269TIP3    H2 6753   5.663   1.441   3.173
 2270TIP3   OH2 6754   5.878   1.363   2.944
 2270TIP3    H1 6755   5.793   1.376   2.992
 2270TIP3    H2 6756   5.859   1.407   2.859
 2271TIP3   OH2 6757   6.308   1.401   2.744
 2271TIP3    H1 6758   6.252   1.437   2.673
 2271TIP3    H2 6759   6.325   1.482   2.797
 2272TIP3   OH2 6760   6.577   1.330   2.787
 2272TIP3    H1 6761   6.484   1.357   2.774
 2272TIP3    H2 6762   6.626   1.409   2.757
 2273TIP3   OH2 6763   6.781   1.523   2.708
 2273TIP3    H1 6764   6.771   1.607   2.660
 2273TIP3    H2 6765   6.810   1.462   2.637
 2274TIP3   OH2 6766   5.561   1.182   2.829
 2274TIP3    H1 6767   5.583   1.155   2.920
 2274TIP3    H2 6768   5.630   1.134   2.780
 2275TIP3   OH2 6769   5.762   1.050   2.700
 2275TIP3    H1 6770   5.771   0.959   2.736
 2275TIP3    H2 6771   5.835   1.093   2.746
 2276TIP3   OH2 6772   5.348   0.962   2.221
 2276TIP3    H1 6773   5.262   0.927   2.191
 2276TIP3    H2 6774   5.338   1.054   2.193
 2277TIP3   OH2 6775   6.122   1.159   1.816
 2277TIP3    H1 6776   6.208   1.178   1.774
 2277TIP3    H2 6777   6.097   1.080   1.762
 2278TIP3   OH2 6778   6.840   1.272   1.906
 2278TIP3    H1 6779   6.825   1.175   1.908
 2278TIP3    H2 6780   6.793   1.297   1.824
 2279TIP3   OH2 6781   5.425   0.979   1.858
 2279TIP3    H1 6782   5.424   1.002   1.952
 2279TIP3    H2 6783   5.512   0.934   1.847
 2280TIP3   OH2 6784   7.059   1.430   3.088
 2280TIP3    H1 6785   6.988   1.383   3.041
 2280TIP3    H2 6786   7.023   1.520   3.093
 2281TIP3   OH2 6787   7.582   1.074   2.357
 2281TIP3    H1 6788   7.541   0.999   2.312
 2281TIP3    H2 6789   7.675   1.067   2.328
 2282TIP3   OH2 6790   7.387   0.572   2.280
 2282TIP3    H1 6791   7.434   0.488   2.279
 2282TIP3    H2 6792   7.390   0.599   2.187
 2283TIP3   OH2 6793   7.165   0.860   1.940
 2283TIP3    H1 6794   7.211   0.811   1.870
 2283TIP3    H2 6795   7.214   0.944   1.941
 2284TIP3   OH2 6796   7.760   1.446   2.816
 2284TIP3    H1 6797   7.727   1.421   2.729
 2284TIP3    H2 6798   7.682   1.432   2.873
 2285TIP3   OH2 6799   7.426   0.927   2.736
 2285TIP3    H1 6800   7.330   0.920   2.723
 2285TIP3    H2 6801   7.442   0.867   2.812
 2286TIP3   OH2 6802   7.249   1.130   2.419
 2286TIP3    H1 6803   7.345   1.140   2.424
 2286TIP3    H2 6804   7.220   1.206   2.473
 2287TIP3   OH2 6805   7.398   1.352   1.945
 2287TIP3    H1 6806   7.458   1.350   2.021
 2287TIP3    H2 6807   7.367   1.259   1.944
 2288TIP3   OH2 6808   7.604   1.132   2.759
 2288TIP3    H1 6809   7.649   1.094   2.836
 2288TIP3    H2 6810   7.530   1.068   2.751
 2289TIP3   OH2 6811   7.746   1.018   2.966
 2289TIP3    H1 6812   7.815   1.082   2.989
 2289TIP3    H2 6813   7.701   1.007   3.052
 2290TIP3   OH2 6814   7.483   0.741   2.930
 2290TIP3    H1 6815   7.530   0.728   3.015
 2290TIP3    H2 6816   7.427   0.663   2.925
 2291TIP3   OH2 6817   7.436   1.311   2.559
 2291TIP3    H1 6818   7.486   1.241   2.604
 2291TIP3    H2 6819   7.456   1.388   2.613
 2292TIP3   OH2 6820   7.267   1.110   1.917
 2292TIP3    H1 6821   7.197   1.145   1.975
 2292TIP3    H2 6822   7.235   1.139   1.829
 2293TIP3   OH2 6823   7.427   1.629   2.985
 2293TIP3    H1 6824   7.514   1.619   3.027
 2293TIP3    H2 6825   7.389   1.541   2.997
 2294TIP3   OH2 6826   7.596   1.017   3.206
 2294TIP3    H1 6827   7.585   0.922   3.189
 2294TIP3    H2 6828   7.511   1.051   3.168
 2295TIP3   OH2 6829   7.670   0.752   3.170
 2295TIP3    H1 6830   7.745   0.694   3.155
 2295TIP3    H2 6831   7.696   0.796   3.254
 2296TIP3   OH2 6832   7.048   1.438   1.977
 2296TIP3    H1 6833   6.980   1.378   1.941
 2296TIP3    H2 6834   7.092   1.380   2.043
 2297TIP3   OH2 6835   7.170   1.282   2.169
 2297TIP3    H1 6836   7.166   1.211   2.234
 2297TIP3    H2 6837   7.226   1.346   2.216
 2298TIP3   OH2 6838   7.371   0.680   2.536
 2298TIP3    H1 6839   7.372   0.647   2.443
 2298TIP3    H2 6840   7.453   0.731   2.542
 2299TIP3   OH2 6841   7.576   0.375   3.210
 2299TIP3    H1 6842   7.671   0.359   3.214
 2299TIP3    H2 6843   7.542   0.291   3.245
 2300TIP3   OH2 6844   7.345   0.343   2.599
 2300TIP3    H1 6845   7.426   0.334   2.547
 2300TIP3    H2 6846   7.354   0.431   2.638
 2301TIP3   OH2 6847   7.581   1.340   3.014
 2301TIP3    H1 6848   7.514   1.273   2.990
 2301TIP3    H2 6849   7.575   1.331   3.110
 2302TIP3   OH2 6850   7.446   1.638   2.577
 2302TIP3    H1 6851   7.359   1.674   2.548
 2302TIP3    H2 6852   7.456   1.686   2.660
 2303TIP3   OH2 6853   7.705   1.631   2.437
 2303TIP3    H1 6854   7.618   1.627   2.480
 2303TIP3    H2 6855   7.681   1.671   2.351
 2304TIP3   OH2 6856   7.349   1.442   2.323
 2304TIP3    H1 6857   7.380   1.415   2.412
 2304TIP3    H2 6858   7.420   1.400   2.269
 2305TIP3   OH2 6859   7.539   1.309   2.182
 2305TIP3    H1 6860   7.545   1.220   2.222
 2305TIP3    H2 6861   7.631   1.322   2.151
 2306TIP3   OH2 6862   7.147   1.212   1.695
 2306TIP3    H1 6863   7.058   1.179   1.671
 2306TIP3    H2 6864   7.132   1.308   1.687
 2307TIP3   OH2 6865   7.215   1.271   1.375
 2307TIP3    H1 6866   7.197   1.282   1.469
 2307TIP3    H2 6867   7.273   1.193   1.372
 2308TIP3   OH2 6868   0.786   1.577   3.555
 2308TIP3    H1 6869   0.761   1.666   3.524
 2308TIP3    H2 6870   0.698   1.540   3.569
 2309TIP3   OH2 6871   0.761   1.565   3.932
 2309TIP3    H1 6872   0.810   1.544   4.014
 2309TIP3    H2 6873   0.737   1.476   3.902
 2310TIP3   OH2 6874   0.086   1.462   4.296
 2310TIP3    H1 6875   0.123   1.398   4.359
 2310TIP3    H2 6876   0.164   1.515   4.275
 2311TIP3   OH2 6877   1.023   1.875   3.611
 2311TIP3    H1 6878   1.022   1.800   3.673
 2311TIP3    H2 6879   1.062   1.945   3.666
 2312TIP3   OH2 6880   0.058   1.866   4.011
 2312TIP3    H1 6881   0.051   1.769   4.014
 2312TIP3    H2 6882   0.155   1.877   4.004
 2313TIP3   OH2 6883   0.676   2.329   3.628
 2313TIP3    H1 6884   0.719   2.261   3.572
 2313TIP3    H2 6885   0.677   2.285   3.714
 2314TIP3   OH2 6886   0.580   1.793   3.976
 2314TIP3    H1 6887   0.623   1.714   3.938
 2314TIP3    H2 6888   0.662   1.844   3.996
 2315TIP3   OH2 6889   1.599   1.111   3.973
 2315TIP3    H1 6890   1.625   1.196   4.012
 2315TIP3    H2 6891   1.613   1.128   3.878
 2316TIP3   OH2 6892   0.993   1.294   4.005
 2316TIP3    H1 6893   1.036   1.208   4.023
 2316TIP3    H2 6894   0.958   1.278   3.915
 2317TIP3   OH2 6895   1.022   1.055   3.609
 2317TIP3    H1 6896   1.103   1.033   3.660
 2317TIP3    H2 6897   1.060   1.073   3.521
 2318TIP3   OH2 6898   0.412   1.345   3.871
 2318TIP3    H1 6899   0.509   1.346   3.887
 2318TIP3    H2 6900   0.401   1.251   3.853
 2319TIP3   OH2 6901   1.671   1.324   4.138
 2319TIP3    H1 6902   1.592   1.375   4.110
 2319TIP3    H2 6903   1.682   1.356   4.229
 2320TIP3   OH2 6904   0.355   0.931   4.396
 2320TIP3    H1 6905   0.297   0.970   4.328
 2320TIP3    H2 6906   0.295   0.927   4.473
 2321TIP3   OH2 6907   0.650   1.776   3.415
 2321TIP3    H1 6908   0.680   1.792   3.325
 2321TIP3    H2 6909   0.612   1.863   3.439
 2322TIP3   OH2 6910   0.435   1.713   4.194
 2322TIP3    H1 6911   0.377   1.783   4.230
 2322TIP3    H2 6912   0.480   1.760   4.120
 2323TIP3   OH2 6913   1.241   1.045   3.771
 2323TIP3    H1 6914   1.221   1.006   3.857
 2323TIP3    H2 6915   1.288   1.127   3.797
 2324TIP3   OH2 6916   0.204   1.041   4.202
 2324TIP3    H1 6917   0.259   1.122   4.206
 2324TIP3    H2 6918   0.221   1.009   4.113
 2325TIP3   OH2 6919   0.263   1.910   4.296
 2325TIP3    H1 6920   0.239   1.998   4.260
 2325TIP3    H2 6921   0.184   1.894   4.352
 2326TIP3   OH2 6922   1.095   2.116   3.774
 2326TIP3    H1 6923   1.003   2.106   3.807
 2326TIP3    H2 6924   1.090   2.205   3.734
 2327TIP3   OH2 6925   1.389   1.010   4.137
 2327TIP3    H1 6926   1.302   1.037   4.103
 2327TIP3    H2 6927   1.449   1.043   4.066
 2328TIP3   OH2 6928   0.704   0.672   4.126
 2328TIP3    H1 6929   0.673   0.581   4.115
 2328TIP3    H2 6930   0.620   0.714   4.155
 2329TIP3   OH2 6931   0.791   2.162   3.443
 2329TIP3    H1 6932   0.839   2.076   3.426
 2329TIP3    H2 6933   0.857   2.224   3.404
 2330TIP3   OH2 6934   0.922   1.941   3.363
 2330TIP3    H1 6935   0.938   1.868   3.300
 2330TIP3    H2 6936   0.964   1.906   3.445
 2331TIP3   OH2 6937   0.952   1.495   3.349
 2331TIP3    H1 6938   0.905   1.524   3.430
 2331TIP3    H2 6939   1.041   1.475   3.384
 2332TIP3   OH2 6940   1.194   1.522   4.260
 2332TIP3    H1 6941   1.188   1.604   4.312
 2332TIP3    H2 6942   1.112   1.526   4.208
 2333TIP3   OH2 6943   0.191   1.489   3.763
 2333TIP3    H1 6944   0.173   1.446   3.678
 2333TIP3    H2 6945   0.272   1.442   3.793
 2334TIP3   OH2 6946   0.324   1.906   3.909
 2334TIP3    H1 6947   0.312   1.870   3.820
 2334TIP3    H2 6948   0.414   1.873   3.931
 2335TIP3   OH2 6949   0.322   1.477   4.111
 2335TIP3    H1 6950   0.363   1.449   4.026
 2335TIP3    H2 6951   0.371   1.559   4.133
 2336TIP3   OH2 6952   0.846   2.112   3.887
 2336TIP3    H1 6953   0.843   2.189   3.947
 2336TIP3    H2 6954   0.838   2.035   3.948
 2337TIP3   OH2 6955   0.469   2.024   4.442
 2337TIP3    H1 6956   0.408   2.086   4.487
 2337TIP3    H2 6957   0.405   1.971   4.390
 2338TIP3   OH2 6958   0.243   1.592   4.534
 2338TIP3    H1 6959   0.238   1.678   4.579
 2338TIP3    H2 6960   0.151   1.559   4.544
 2339TIP3   OH2 6961   0.547   2.041   3.440
 2339TIP3    H1 6962   0.635   2.083   3.450
 2339TIP3    H2 6963   0.489   2.117   3.427
 2340TIP3   OH2 6964   0.263   2.191   4.528
 2340TIP3    H1 6965   0.227   2.197   4.438
 2340TIP3    H2 6966   0.182   2.175   4.582
 2341TIP3   OH2 6967   1.132   1.979   2.775
 2341TIP3    H1 6968   1.132   2.076   2.759
 2341TIP3    H2 6969   1.219   1.955   2.738
 2342TIP3   OH2 6970  -0.136   1.713   4.470
 2342TIP3    H1 6971  -0.204   1.694   4.405
 2342TIP3    H2 6972  -0.111   1.624   4.499
 2343TIP3   OH2 6973  -0.294   1.940   4.086
 2343TIP3    H1 6974  -0.209   1.897   4.077
 2343TIP3    H2 6975  -0.276   2.000   4.161
 2344TIP3   OH2 6976   0.665   2.150   4.298
 2344TIP3    H1 6977   0.665   2.243   4.327
 2344TIP3    H2 6978   0.594   2.112   4.354
 2345TIP3   OH2 6979   0.425   2.283   3.262
 2345TIP3    H1 6980   0.350   2.267   3.203
 2345TIP3    H2 6981   0.398   2.367   3.305
 2346TIP3   OH2 6982  -0.136   2.143   3.627
 2346TIP3    H1 6983  -0.101   2.115   3.714
 2346TIP3    H2 6984  -0.186   2.062   3.600
 2347TIP3   OH2 6985   0.618   2.160   2.907
 2347TIP3    H1 6986   0.678   2.096   2.862
 2347TIP3    H2 6987   0.666   2.174   2.991
 2348TIP3   OH2 6988   0.682   2.241   3.167
 2348TIP3    H1 6989   0.598   2.243   3.216
 2348TIP3    H2 6990   0.741   2.197   3.231
 2349TIP3   OH2 6991   1.443   1.497   4.433
 2349TIP3    H1 6992   1.369   1.499   4.370
 2349TIP3    H2 6993   1.465   1.402   4.433
 2350TIP3   OH2 6994   0.044   1.916   4.467
 2350TIP3    H1 6995   0.101   1.891   4.543
 2350TIP3    H2 6996  -0.024   1.845   4.470
 2351TIP3   OH2 6997   0.452   0.750   4.207
 2351TIP3    H1 6998   0.372   0.693   4.203
 2351TIP3    H2 6999   0.427   0.812   4.278
 2352TIP3   OH2 7000   1.019   0.850   4.428
 2352TIP3    H1 7001   1.082   0.819   4.496
 2352TIP3    H2 7002   0.932   0.834   4.471
 2353TIP3   OH2 7003   1.215   1.266   4.361
 2353TIP3    H1 7004   1.167   1.269   4.446
 2353TIP3    H2 7005   1.197   1.354   4.323
 2354TIP3   OH2 7006   0.376   1.252   4.255
 2354TIP3    H1 7007   0.332   1.274   4.339
 2354TIP3    H2 7008   0.359   1.334   4.203
 2355TIP3   OH2 7009   0.771   1.251   3.496
 2355TIP3    H1 7010   0.691   1.279   3.450
 2355TIP3    H2 7011   0.838   1.261   3.427
 2356TIP3   OH2 7012   0.927   1.495   4.594
 2356TIP3    H1 7013   0.904   1.422   4.655
 2356TIP3    H2 7014   1.022   1.506   4.616
 2357TIP3   OH2 7015   0.903   1.252   3.749
 2357TIP3    H1 7016   0.852   1.281   3.670
 2357TIP3    H2 7017   0.943   1.171   3.710
 2358TIP3   OH2 7018   0.201   1.285   4.470
 2358TIP3    H1 7019   0.249   1.341   4.532
 2358TIP3    H2 7020   0.195   1.201   4.517
 2359TIP3   OH2 7021   0.916   1.491   4.170
 2359TIP3    H1 7022   0.949   1.421   4.108
 2359TIP3    H2 7023   0.887   1.435   4.245
 2360TIP3   OH2 7024   0.580   0.986   3.864
 2360TIP3    H1 7025   0.525   0.913   3.893
 2360TIP3    H2 7026   0.669   0.955   3.890
 2361TIP3   OH2 7027   1.081   1.033   4.048
 2361TIP3    H1 7028   1.043   1.045   4.137
 2361TIP3    H2 7029   1.015   0.973   4.008
 2362TIP3   OH2 7030   1.259   2.714   4.265
 2362TIP3    H1 7031   1.253   2.744   4.172
 2362TIP3    H2 7032   1.338   2.764   4.295
 2363TIP3   OH2 7033   0.209   1.834   4.681
 2363TIP3    H1 7034   0.291   1.859   4.728
 2363TIP3    H2 7035   0.146   1.832   4.755
 2364TIP3   OH2 7036   0.672   1.293   3.938
 2364TIP3    H1 7037   0.735   1.245   3.881
 2364TIP3    H2 7038   0.673   1.237   4.019
 2365TIP3   OH2 7039   0.648   1.187   4.223
 2365TIP3    H1 7040   0.559   1.222   4.238
 2365TIP3    H2 7041   0.706   1.247   4.274
 2366TIP3   OH2 7042   0.799   1.892   4.321
 2366TIP3    H1 7043   0.806   1.868   4.414
 2366TIP3    H2 7044   0.749   1.976   4.324
 2367TIP3   OH2 7045   0.072   1.588   3.999
 2367TIP3    H1 7046   0.101   1.557   3.911
 2367TIP3    H2 7047   0.131   1.537   4.057
 2368TIP3   OH2 7048   0.513   1.702   3.142
 2368TIP3    H1 7049   0.486   1.797   3.138
 2368TIP3    H2 7050   0.491   1.681   3.233
 2369TIP3   OH2 7051  -0.001   1.486   4.618
 2369TIP3    H1 7052   0.036   1.504   4.707
 2369TIP3    H2 7053  -0.097   1.482   4.639
 2370TIP3   OH2 7054   0.688   1.632   4.628
 2370TIP3    H1 7055   0.629   1.569   4.585
 2370TIP3    H2 7056   0.776   1.595   4.604
 2371TIP3   OH2 7057   0.970   2.166   4.216
 2371TIP3    H1 7058   0.882   2.128   4.217
 2371TIP3    H2 7059   0.975   2.208   4.304
 2372TIP3   OH2 7060   1.355   1.194   3.135
 2372TIP3    H1 7061   1.279   1.142   3.107
 2372TIP3    H2 7062   1.333   1.282   3.094
 2373TIP3   OH2 7063   1.565   2.075   4.164
 2373TIP3    H1 7064   1.526   2.135   4.099
 2373TIP3    H2 7065   1.592   2.000   4.107
 2374TIP3   OH2 7066   1.052   2.040   3.035
 2374TIP3    H1 7067   1.037   1.960   3.086
 2374TIP3    H2 7068   1.075   2.004   2.947
 2375TIP3   OH2 7069   1.020   1.673   3.881
 2375TIP3    H1 7070   0.933   1.631   3.871
 2375TIP3    H2 7071   1.079   1.606   3.843
 2376TIP3   OH2 7072   0.175   1.898   3.623
 2376TIP3    H1 7073   0.172   1.989   3.586
 2376TIP3    H2 7074   0.089   1.895   3.668
 2377TIP3   OH2 7075   0.333   1.670   3.602
 2377TIP3    H1 7076   0.290   1.757   3.599
 2377TIP3    H2 7077   0.277   1.620   3.662
 2378TIP3   OH2 7078   0.449   2.239   4.091
 2378TIP3    H1 7079   0.492   2.312   4.042
 2378TIP3    H2 7080   0.525   2.201   4.138
 2379TIP3   OH2 7081   0.119   2.144   3.519
 2379TIP3    H1 7082   0.024   2.152   3.539
 2379TIP3    H2 7083   0.140   2.236   3.493
 2380TIP3   OH2 7084   0.834   1.879   4.045
 2380TIP3    H1 7085   0.837   1.868   4.142
 2380TIP3    H2 7086   0.905   1.819   4.014
 2381TIP3   OH2 7087   0.811   1.801   2.962
 2381TIP3    H1 7088   0.863   1.771   3.040
 2381TIP3    H2 7089   0.737   1.738   2.964
 2382TIP3   OH2 7090   1.081   2.421   4.104
 2382TIP3    H1 7091   1.012   2.352   4.097
 2382TIP3    H2 7092   1.061   2.478   4.027
 2383TIP3   OH2 7093   1.149   2.250   2.752
 2383TIP3    H1 7094   1.184   2.320   2.695
 2383TIP3    H2 7095   1.070   2.295   2.787
 2384TIP3   OH2 7096   0.954   1.730   3.189
 2384TIP3    H1 7097   0.940   1.639   3.224
 2384TIP3    H2 7098   1.053   1.727   3.181
 2385TIP3   OH2 7099  -0.119   2.098   4.253
 2385TIP3    H1 7100  -0.056   2.034   4.291
 2385TIP3    H2 7101  -0.095   2.179   4.300
 2386TIP3   OH2 7102   1.003   1.096   4.308
 2386TIP3    H1 7103   1.089   1.134   4.331
 2386TIP3    H2 7104   1.006   1.010   4.355
 2387TIP3   OH2 7105   0.403   1.948   3.148
 2387TIP3    H1 7106   0.348   1.974   3.223
 2387TIP3    H2 7107   0.422   2.031   3.103
 2388TIP3   OH2 7108   0.843   1.328   4.376
 2388TIP3    H1 7109   0.874   1.374   4.456
 2388TIP3    H2 7110   0.896   1.246   4.376
 2389TIP3   OH2 7111   1.484   1.233   4.360
 2389TIP3    H1 7112   1.386   1.227   4.367
 2389TIP3    H2 7113   1.497   1.195   4.272
 2390TIP3   OH2 7114   1.135   1.427   3.747
 2390TIP3    H1 7115   1.060   1.366   3.759
 2390TIP3    H2 7116   1.208   1.380   3.794
 2391TIP3   OH2 7117   1.106   2.389   3.694
 2391TIP3    H1 7118   1.064   2.435   3.618
 2391TIP3    H2 7119   1.200   2.412   3.679
 2392TIP3   OH2 7120  -0.096   2.434   4.645
 2392TIP3    H1 7121  -0.019   2.440   4.706
 2392TIP3    H2 7122  -0.129   2.347   4.668
 2393TIP3   OH2 7123   0.355   2.373   4.720
 2393TIP3    H1 7124   0.450   2.355   4.726
 2393TIP3    H2 7125   0.330   2.313   4.647
 2394TIP3   OH2 7126   1.014   2.278   4.458
 2394TIP3    H1 7127   0.996   2.212   4.530
 2394TIP3    H2 7128   1.076   2.339   4.502
 2395TIP3   OH2 7129   0.782   1.992   2.761
 2395TIP3    H1 7130   0.810   1.922   2.825
 2395TIP3    H2 7131   0.854   1.986   2.695
 2396TIP3   OH2 7132   0.004   1.811   4.869
 2396TIP3    H1 7133   0.036   1.718   4.871
 2396TIP3    H2 7134  -0.092   1.797   4.862
 2397TIP3   OH2 7135   0.614   1.906   4.649
 2397TIP3    H1 7136   0.572   1.925   4.562
 2397TIP3    H2 7137   0.645   1.813   4.638
 2398TIP3   OH2 7138   0.112   1.557   4.862
 2398TIP3    H1 7139   0.179   1.486   4.854
 2398TIP3    H2 7140   0.127   1.578   4.957
 2399TIP3   OH2 7141   0.460   1.430   4.510
 2399TIP3    H1 7142   0.391   1.499   4.515
 2399TIP3    H2 7143   0.518   1.466   4.439
 2400TIP3   OH2 7144   0.982   1.840   4.653
 2400TIP3    H1 7145   1.068   1.811   4.618
 2400TIP3    H2 7146   0.968   1.776   4.724
 2401TIP3   OH2 7147   0.583   1.219   4.635
 2401TIP3    H1 7148   0.596   1.144   4.572
 2401TIP3    H2 7149   0.544   1.288   4.577
 2402TIP3   OH2 7150   0.608   1.020   4.447
 2402TIP3    H1 7151   0.630   1.059   4.360
 2402TIP3    H2 7152   0.519   0.983   4.429
 2403TIP3   OH2 7153   0.611   1.547   4.325
 2403TIP3    H1 7154   0.698   1.554   4.282
 2403TIP3    H2 7155   0.558   1.613   4.276
 2404TIP3   OH2 7156   1.194   1.513   4.704
 2404TIP3    H1 7157   1.233   1.425   4.719
 2404TIP3    H2 7158   1.271   1.562   4.671
 2405TIP3   OH2 7159   1.227   1.779   4.440
 2405TIP3    H1 7160   1.167   1.812   4.373
 2405TIP3    H2 7161   1.315   1.797   4.399
 2406TIP3   OH2 7162   0.494   1.335   4.869
 2406TIP3    H1 7163   0.401   1.320   4.894
 2406TIP3    H2 7164   0.505   1.289   4.783
 2407TIP3   OH2 7165   0.761   0.798   4.498
 2407TIP3    H1 7166   0.710   0.880   4.481
 2407TIP3    H2 7167   0.689   0.733   4.500
 2408TIP3   OH2 7168   0.841   1.279   4.736
 2408TIP3    H1 7169   0.829   1.262   4.832
 2408TIP3    H2 7170   0.752   1.253   4.704
 2409TIP3   OH2 7171   1.084   1.236   4.595
 2409TIP3    H1 7172   1.009   1.230   4.657
 2409TIP3    H2 7173   1.159   1.201   4.648
 2410TIP3   OH2 7174   1.312   1.169   4.739
 2410TIP3    H1 7175   1.326   1.073   4.757
 2410TIP3    H2 7176   1.308   1.207   4.829
 2411TIP3   OH2 7177   0.798   0.765   4.767
 2411TIP3    H1 7178   0.877   0.707   4.768
 2411TIP3    H2 7179   0.789   0.780   4.671
 2412TIP3   OH2 7180   0.881   0.999   4.913
 2412TIP3    H1 7181   0.845   0.925   4.861
 2412TIP3    H2 7182   0.802   1.057   4.923
 2413TIP3   OH2 7183  -0.396   2.095   3.868
 2413TIP3    H1 7184  -0.379   2.015   3.921
 2413TIP3    H2 7185  -0.333   2.156   3.909
 2414TIP3   OH2 7186   1.362   2.483   3.672
 2414TIP3    H1 7187   1.432   2.474   3.739
 2414TIP3    H2 7188   1.403   2.545   3.610
 2415TIP3   OH2 7189   1.368   2.191   4.452
 2415TIP3    H1 7190   1.332   2.173   4.542
 2415TIP3    H2 7191   1.440   2.253   4.476
 2416TIP3   OH2 7192   1.221   1.719   3.174
 2416TIP3    H1 7193   1.257   1.714   3.082
 2416TIP3    H2 7194   1.286   1.665   3.223
 2417TIP3   OH2 7195   1.382   1.538   3.323
 2417TIP3    H1 7196   1.311   1.503   3.382
 2417TIP3    H2 7197   1.440   1.585   3.386
 2418TIP3   OH2 7198   1.251   2.187   4.045
 2418TIP3    H1 7199   1.212   2.272   4.019
 2418TIP3    H2 7200   1.230   2.136   3.964
 2419TIP3   OH2 7201   1.271   1.409   3.002
 2419TIP3    H1 7202   1.210   1.448   2.937
 2419TIP3    H2 7203   1.320   1.492   3.022
 2420TIP3   OH2 7204   1.188   1.412   3.475
 2420TIP3    H1 7205   1.181   1.315   3.465
 2420TIP3    H2 7206   1.175   1.422   3.572
 2421TIP3   OH2 7207  -0.177   1.474   4.242
 2421TIP3    H1 7208  -0.176   1.493   4.148
 2421TIP3    H2 7209  -0.081   1.476   4.262
 2422TIP3   OH2 7210   1.474   1.843   4.334
 2422TIP3    H1 7211   1.533   1.765   4.325
 2422TIP3    H2 7212   1.478   1.873   4.241
 2423TIP3   OH2 7213   1.662   1.643   4.363
 2423TIP3    H1 7214   1.584   1.587   4.386
 2423TIP3    H2 7215   1.733   1.576   4.370
 2424TIP3   OH2 7216   1.184   1.145   3.393
 2424TIP3    H1 7217   1.227   1.062   3.424
 2424TIP3    H2 7218   1.244   1.167   3.320
 2425TIP3   OH2 7219   1.349   1.293   3.868
 2425TIP3    H1 7220   1.434   1.317   3.825
 2425TIP3    H2 7221   1.362   1.339   3.953
 2426TIP3   OH2 7222   1.417   1.444   4.091
 2426TIP3    H1 7223   1.337   1.471   4.140
 2426TIP3    H2 7224   1.449   1.534   4.064
 2427TIP3   OH2 7225   1.867   1.034   4.651
 2427TIP3    H1 7226   1.929   0.970   4.610
 2427TIP3    H2 7227   1.839   1.087   4.574
 2428TIP3   OH2 7228   1.308   0.915   3.448
 2428TIP3    H1 7229   1.339   0.866   3.527
 2428TIP3    H2 7230   1.277   0.846   3.387
 2429TIP3   OH2 7231   1.740   1.173   4.454
 2429TIP3    H1 7232   1.655   1.215   4.477
 2429TIP3    H2 7233   1.707   1.099   4.399
 2430TIP3   OH2 7234   0.936   2.348   3.308
 2430TIP3    H1 7235   0.987   2.330   3.225
 2430TIP3    H2 7236   0.999   2.405   3.356
 2431TIP3   OH2 7237   0.042   2.146   4.699
 2431TIP3    H1 7238  -0.015   2.072   4.677
 2431TIP3    H2 7239   0.056   2.136   4.794
 2432TIP3   OH2 7240   0.222   2.180   4.240
 2432TIP3    H1 7241   0.176   2.258   4.202
 2432TIP3    H2 7242   0.308   2.193   4.196
 2433TIP3   OH2 7243   0.662   2.421   4.378
 2433TIP3    H1 7244   0.704   2.420   4.466
 2433TIP3    H2 7245   0.728   2.473   4.327
 2434TIP3   OH2 7246   0.842   2.576   4.241
 2434TIP3    H1 7247   0.911   2.525   4.194
 2434TIP3    H2 7248   0.897   2.632   4.300
 2435TIP3   OH2 7249   1.640   0.935   4.338
 2435TIP3    H1 7250   1.550   0.927   4.301
 2435TIP3    H2 7251   1.672   0.843   4.329
 2436TIP3   OH2 7252  -0.107   2.434   4.267
 2436TIP3    H1 7253  -0.199   2.463   4.249
 2436TIP3    H2 7254  -0.092   2.476   4.352
 2437TIP3   OH2 7255   0.132   2.415   4.127
 2437TIP3    H1 7256   0.044   2.426   4.170
 2437TIP3    H2 7257   0.114   2.443   4.036
 2438TIP3   OH2 7258   0.558   2.439   3.924
 2438TIP3    H1 7259   0.490   2.458   3.857
 2438TIP3    H2 7260   0.570   2.527   3.966
 2439TIP3   OH2 7261   0.828   2.380   3.977
 2439TIP3    H1 7262   0.734   2.397   3.956
 2439TIP3    H2 7263   0.873   2.451   3.929
 2440TIP3   OH2 7264   1.032   2.571   3.884
 2440TIP3    H1 7265   1.022   2.655   3.835
 2440TIP3    H2 7266   1.061   2.510   3.812
 2441TIP3   OH2 7267  -0.188   2.229   4.002
 2441TIP3    H1 7268  -0.174   2.202   4.095
 2441TIP3    H2 7269  -0.118   2.175   3.958
 2442TIP3   OH2 7270   0.003   2.090   3.864
 2442TIP3    H1 7271   0.020   2.010   3.920
 2442TIP3    H2 7272   0.092   2.131   3.861
 2443TIP3   OH2 7273   0.270   2.193   3.876
 2443TIP3    H1 7274   0.302   2.102   3.862
 2443TIP3    H2 7275   0.319   2.215   3.958
 2444TIP3   OH2 7276   0.843   0.859   3.957
 2444TIP3    H1 7277   0.803   0.790   4.013
 2444TIP3    H2 7278   0.913   0.811   3.910
 2445TIP3   OH2 7279   1.365   0.734   3.878
 2445TIP3    H1 7280   1.407   0.779   3.801
 2445TIP3    H2 7281   1.270   0.748   3.859
 2446TIP3   OH2 7282   1.481   0.821   3.647
 2446TIP3    H1 7283   1.550   0.774   3.596
 2446TIP3    H2 7284   1.505   0.915   3.625
 2447TIP3   OH2 7285   1.080   0.736   3.838
 2447TIP3    H1 7286   1.089   0.702   3.748
 2447TIP3    H2 7287   1.071   0.653   3.890
 2448TIP3   OH2 7288   0.377   2.282   2.951
 2448TIP3    H1 7289   0.458   2.228   2.935
 2448TIP3    H2 7290   0.310   2.217   2.919
 2449TIP3   OH2 7291   1.084   2.305   3.080
 2449TIP3    H1 7292   1.077   2.207   3.068
 2449TIP3    H2 7293   1.045   2.336   2.995
 2450TIP3   OH2 7294   1.380   0.899   4.773
 2450TIP3    H1 7295   1.399   0.870   4.864
 2450TIP3    H2 7296   1.469   0.896   4.732
 2451TIP3   OH2 7297   1.283   2.425   4.278
 2451TIP3    H1 7298   1.209   2.430   4.213
 2451TIP3    H2 7299   1.304   2.522   4.281
 2452TIP3   OH2 7300   2.582   1.823   3.022
 2452TIP3    H1 7301   2.548   1.913   3.004
 2452TIP3    H2 7302   2.502   1.770   3.006
 2453TIP3   OH2 7303   2.544   1.821   3.411
 2453TIP3    H1 7304   2.609   1.817   3.483
 2453TIP3    H2 7305   2.529   1.728   3.390
 2454TIP3   OH2 7306   1.966   1.727   3.760
 2454TIP3    H1 7307   1.955   1.633   3.802
 2454TIP3    H2 7308   1.868   1.752   3.759
 2455TIP3   OH2 7309   1.907   2.158   3.548
 2455TIP3    H1 7310   1.839   2.088   3.541
 2455TIP3    H2 7311   1.965   2.130   3.475
 2456TIP3   OH2 7312   1.560   1.327   3.280
 2456TIP3    H1 7313   1.510   1.408   3.298
 2456TIP3    H2 7314   1.490   1.269   3.247
 2457TIP3   OH2 7315   1.616   1.623   3.452
 2457TIP3    H1 7316   1.662   1.547   3.495
 2457TIP3    H2 7317   1.668   1.639   3.373
 2458TIP3   OH2 7318   2.472   2.586   3.113
 2458TIP3    H1 7319   2.511   2.518   3.054
 2458TIP3    H2 7320   2.482   2.545   3.199
 2459TIP3   OH2 7321   2.367   2.046   3.446
 2459TIP3    H1 7322   2.409   1.965   3.411
 2459TIP3    H2 7323   2.449   2.088   3.480
 2460TIP3   OH2 7324   3.396   1.366   3.458
 2460TIP3    H1 7325   3.424   1.453   3.495
 2460TIP3    H2 7326   3.413   1.380   3.363
 2461TIP3   OH2 7327   2.783   1.541   3.494
 2461TIP3    H1 7328   2.830   1.456   3.504
 2461TIP3    H2 7329   2.750   1.533   3.403
 2462TIP3   OH2 7330   2.124   1.213   3.463
 2462TIP3    H1 7331   2.109   1.282   3.395
 2462TIP3    H2 7332   2.080   1.137   3.419
 2463TIP3   OH2 7333   2.827   1.319   3.107
 2463TIP3    H1 7334   2.912   1.297   3.151
 2463TIP3    H2 7335   2.847   1.302   3.014
 2464TIP3   OH2 7336   1.761   1.417   3.564
 2464TIP3    H1 7337   1.835   1.378   3.614
 2464TIP3    H2 7338   1.767   1.364   3.482
 2465TIP3   OH2 7339   2.194   1.602   3.366
 2465TIP3    H1 7340   2.289   1.583   3.377
 2465TIP3    H2 7341   2.160   1.518   3.328
 2466TIP3   OH2 7342   3.468   1.580   3.628
 2466TIP3    H1 7343   3.384   1.624   3.604
 2466TIP3    H2 7344   3.481   1.612   3.719
 2467TIP3   OH2 7345   2.127   1.197   3.891
 2467TIP3    H1 7346   2.066   1.233   3.824
 2467TIP3    H2 7347   2.073   1.209   3.972
 2468TIP3   OH2 7348   2.464   2.044   2.899
 2468TIP3    H1 7349   2.429   2.033   2.810
 2468TIP3    H2 7350   2.421   2.127   2.927
 2469TIP3   OH2 7351   3.052   1.298   3.258
 2469TIP3    H1 7352   3.022   1.260   3.342
 2469TIP3    H2 7353   3.092   1.383   3.286
 2470TIP3   OH2 7354   1.991   1.312   3.678
 2470TIP3    H1 7355   2.036   1.398   3.681
 2470TIP3    H2 7356   2.040   1.269   3.604
 2471TIP3   OH2 7357   2.057   2.157   3.769
 2471TIP3    H1 7358   1.988   2.156   3.699
 2471TIP3    H2 7359   1.998   2.156   3.848
 2472TIP3   OH2 7360   1.535   1.868   3.064
 2472TIP3    H1 7361   1.454   1.838   3.019
 2472TIP3    H2 7362   1.520   1.963   3.078
 2473TIP3   OH2 7363   3.185   1.268   3.624
 2473TIP3    H1 7364   3.097   1.291   3.589
 2473TIP3    H2 7365   3.245   1.300   3.553
 2474TIP3   OH2 7366   2.477   0.907   3.608
 2474TIP3    H1 7367   2.460   0.812   3.624
 2474TIP3    H2 7368   2.401   0.947   3.654
 2475TIP3   OH2 7369   2.583   2.418   2.921
 2475TIP3    H1 7370   2.635   2.336   2.904
 2475TIP3    H2 7371   2.647   2.484   2.886
 2476TIP3   OH2 7372   2.729   2.200   2.846
 2476TIP3    H1 7373   2.702   2.125   2.791
 2476TIP3    H2 7374   2.777   2.157   2.918
 2477TIP3   OH2 7375   3.179   2.267   3.604
 2477TIP3    H1 7376   3.124   2.204   3.552
 2477TIP3    H2 7377   3.133   2.350   3.577
 2478TIP3   OH2 7378   2.405   1.668   2.857
 2478TIP3    H1 7379   2.328   1.726   2.841
 2478TIP3    H2 7380   2.458   1.681   2.776
 2479TIP3   OH2 7381   2.400   1.408   2.607
 2479TIP3    H1 7382   2.435   1.484   2.657
 2479TIP3    H2 7383   2.451   1.419   2.524
 2480TIP3   OH2 7384   3.329   1.916   3.450
 2480TIP3    H1 7385   3.240   1.959   3.449
 2480TIP3    H2 7386   3.356   1.937   3.357
 2481TIP3   OH2 7387   2.757   1.752   2.826
 2481TIP3    H1 7388   2.703   1.774   2.906
 2481TIP3    H2 7389   2.842   1.727   2.869
 2482TIP3   OH2 7390   2.993   1.803   3.741
 2482TIP3    H1 7391   2.965   1.890   3.773
 2482TIP3    H2 7392   2.911   1.781   3.691
 2483TIP3   OH2 7393   1.991   1.755   3.255
 2483TIP3    H1 7394   1.953   1.697   3.186
 2483TIP3    H2 7395   2.065   1.700   3.290
 2484TIP3   OH2 7396   2.139   2.182   3.406
 2484TIP3    H1 7397   2.117   2.160   3.314
 2484TIP3    H2 7398   2.222   2.128   3.419
 2485TIP3   OH2 7399   2.262   2.281   3.936
 2485TIP3    H1 7400   2.200   2.343   3.980
 2485TIP3    H2 7401   2.203   2.235   3.874
 2486TIP3   OH2 7402   2.589   1.623   2.652
 2486TIP3    H1 7403   2.651   1.677   2.705
 2486TIP3    H2 7404   2.621   1.643   2.561
 2487TIP3   OH2 7405   2.030   1.872   3.989
 2487TIP3    H1 7406   2.036   1.942   4.057
 2487TIP3    H2 7407   1.953   1.823   4.028
 2488TIP3   OH2 7408   2.340   2.294   2.937
 2488TIP3    H1 7409   2.425   2.343   2.938
 2488TIP3    H2 7410   2.283   2.355   2.888
 2489TIP3   OH2 7411   2.052   2.442   4.014
 2489TIP3    H1 7412   1.989   2.457   3.942
 2489TIP3    H2 7413   1.988   2.425   4.088
 2490TIP3   OH2 7414   3.113   0.856   2.712
 2490TIP3    H1 7415   3.029   0.880   2.756
 2490TIP3    H2 7416   3.129   0.935   2.656
 2491TIP3   OH2 7417   1.865   1.599   3.053
 2491TIP3    H1 7418   1.800   1.648   2.998
 2491TIP3    H2 7419   1.818   1.516   3.067
 2492TIP3   OH2 7420   2.915   2.221   2.261
 2492TIP3    H1 7421   2.928   2.316   2.239
 2492TIP3    H2 7422   3.006   2.186   2.246
 2493TIP3   OH2 7423   1.532   2.222   3.579
 2493TIP3    H1 7424   1.565   2.135   3.604
 2493TIP3    H2 7425   1.496   2.254   3.663
 2494TIP3   OH2 7426   3.353   2.624   3.646
 2494TIP3    H1 7427   3.307   2.560   3.590
 2494TIP3    H2 7428   3.279   2.652   3.704
 2495TIP3   OH2 7429   2.442   2.414   3.777
 2495TIP3    H1 7430   2.454   2.504   3.814
 2495TIP3    H2 7431   2.390   2.370   3.847
 2496TIP3   OH2 7432   2.224   2.536   2.738
 2496TIP3    H1 7433   2.179   2.520   2.654
 2496TIP3    H2 7434   2.192   2.625   2.763
 2497TIP3   OH2 7435   1.664   2.392   3.119
 2497TIP3    H1 7436   1.697   2.364   3.205
 2497TIP3    H2 7437   1.608   2.314   3.095
 2498TIP3   OH2 7438   2.424   2.442   2.374
 2498TIP3    H1 7439   2.483   2.372   2.338
 2498TIP3    H2 7440   2.461   2.452   2.464
 2499TIP3   OH2 7441   2.476   2.491   2.644
 2499TIP3    H1 7442   2.387   2.500   2.686
 2499TIP3    H2 7443   2.529   2.457   2.718
 2500TIP3   OH2 7444   3.230   1.757   3.913
 2500TIP3    H1 7445   3.150   1.755   3.858
 2500TIP3    H2 7446   3.257   1.663   3.909
 2501TIP3   OH2 7447   1.856   2.127   3.944
 2501TIP3    H1 7448   1.889   2.123   4.036
 2501TIP3    H2 7449   1.782   2.190   3.948
 2502TIP3   OH2 7450   2.242   0.988   3.738
 2502TIP3    H1 7451   2.155   0.955   3.705
 2502TIP3    H2 7452   2.211   1.067   3.786
 2503TIP3   OH2 7453   2.777   1.105   3.929
 2503TIP3    H1 7454   2.846   1.075   3.991
 2503TIP3    H2 7455   2.694   1.082   3.975
 2504TIP3   OH2 7456   3.012   1.534   3.847
 2504TIP3    H1 7457   2.961   1.531   3.932
 2504TIP3    H2 7458   2.983   1.618   3.809
 2505TIP3   OH2 7459   2.672   1.659   2.399
 2505TIP3    H1 7460   2.641   1.638   2.309
 2505TIP3    H2 7461   2.758   1.700   2.378
 2506TIP3   OH2 7462   2.363   1.068   2.703
 2506TIP3    H1 7463   2.416   1.045   2.783
 2506TIP3    H2 7464   2.331   0.979   2.680
 2507TIP3   OH2 7465   2.055   1.387   3.268
 2507TIP3    H1 7466   1.962   1.360   3.284
 2507TIP3    H2 7467   2.071   1.344   3.181
 2508TIP3   OH2 7468   2.557   1.481   2.997
 2508TIP3    H1 7469   2.502   1.546   2.949
 2508TIP3    H2 7470   2.615   1.447   2.926
 2509TIP3   OH2 7471   2.722   1.749   4.080
 2509TIP3    H1 7472   2.702   1.676   4.141
 2509TIP3    H2 7473   2.817   1.762   4.098
 2510TIP3   OH2 7474   2.692   1.510   3.240
 2510TIP3    H1 7475   2.635   1.531   3.162
 2510TIP3    H2 7476   2.737   1.431   3.200
 2511TIP3   OH2 7477   2.028   1.533   3.977
 2511TIP3    H1 7478   1.985   1.597   4.035
 2511TIP3    H2 7479   2.007   1.449   4.021
 2512TIP3   OH2 7480   2.044   0.994   2.681
 2512TIP3    H1 7481   2.042   0.996   2.779
 2512TIP3    H2 7482   1.973   1.059   2.661
 2513TIP3   OH2 7483   1.587   1.050   3.548
 2513TIP3    H1 7484   1.663   1.084   3.599
 2513TIP3    H2 7485   1.625   1.026   3.462
 2514TIP3   OH2 7486   1.590   1.057   3.070
 2514TIP3    H1 7487   1.625   1.080   2.983
 2514TIP3    H2 7488   1.518   1.122   3.083
 2515TIP3   OH2 7489   2.738   1.739   3.668
 2515TIP3    H1 7490   2.754   1.670   3.599
 2515TIP3    H2 7491   2.679   1.692   3.729
 2516TIP3   OH2 7492   2.377   1.202   3.326
 2516TIP3    H1 7493   2.303   1.208   3.390
 2516TIP3    H2 7494   2.455   1.202   3.383
 2517TIP3   OH2 7495   1.818   1.269   3.338
 2517TIP3    H1 7496   1.725   1.276   3.306
 2517TIP3    H2 7497   1.842   1.177   3.314
 2518TIP3   OH2 7498   2.087   1.253   3.035
 2518TIP3    H1 7499   2.184   1.272   3.023
 2518TIP3    H2 7500   2.046   1.288   2.952
 2519TIP3   OH2 7501   2.880   1.284   3.539
 2519TIP3    H1 7502   2.837   1.300   3.625
 2519TIP3    H2 7503   2.815   1.222   3.499
 2520TIP3   OH2 7504   1.937   1.305   2.814
 2520TIP3    H1 7505   1.857   1.263   2.779
 2520TIP3    H2 7506   1.982   1.335   2.733
 2521TIP3   OH2 7507   3.051   2.973   3.751
 2521TIP3    H1 7508   3.046   3.001   3.657
 2521TIP3    H2 7509   3.130   3.023   3.781
 2522TIP3   OH2 7510   2.010   2.084   4.178
 2522TIP3    H1 7511   2.088   2.116   4.228
 2522TIP3    H2 7512   1.944   2.079   4.250
 2523TIP3   OH2 7513   2.467   1.536   3.421
 2523TIP3    H1 7514   2.538   1.505   3.361
 2523TIP3    H2 7515   2.485   1.486   3.502
 2524TIP3   OH2 7516   1.987   1.028   3.312
 2524TIP3    H1 7517   1.949   0.950   3.359
 2524TIP3    H2 7518   2.037   0.984   3.241
 2525TIP3   OH2 7519   2.448   1.429   3.721
 2525TIP3    H1 7520   2.374   1.482   3.751
 2525TIP3    H2 7521   2.524   1.479   3.758
 2526TIP3   OH2 7522   2.180   1.827   2.810
 2526TIP3    H1 7523   2.110   1.760   2.799
 2526TIP3    H2 7524   2.159   1.861   2.900
 2527TIP3   OH2 7525   3.101   2.048   3.456
 2527TIP3    H1 7526   3.085   2.120   3.391
 2527TIP3    H2 7527   3.009   2.012   3.455
 2528TIP3   OH2 7528   2.631   1.170   2.672
 2528TIP3    H1 7529   2.636   1.105   2.747
 2528TIP3    H2 7530   2.685   1.242   2.710
 2529TIP3   OH2 7531   2.565   2.143   3.836
 2529TIP3    H1 7532   2.617   2.159   3.916
 2529TIP3    H2 7533   2.553   2.233   3.801
 2530TIP3   OH2 7534   2.722   1.400   2.780
 2530TIP3    H1 7535   2.818   1.401   2.800
 2530TIP3    H2 7536   2.712   1.478   2.723
 2531TIP3   OH2 7537   1.905   1.865   3.497
 2531TIP3    H1 7538   1.934   1.842   3.406
 2531TIP3    H2 7539   1.864   1.782   3.522
 2532TIP3   OH2 7540   2.324   1.975   2.632
 2532TIP3    H1 7541   2.277   2.062   2.634
 2532TIP3    H2 7542   2.270   1.923   2.694
 2533TIP3   OH2 7543   1.806   1.747   4.096
 2533TIP3    H1 7544   1.781   1.739   4.190
 2533TIP3    H2 7545   1.714   1.744   4.058
 2534TIP3   OH2 7546   2.488   1.891   4.122
 2534TIP3    H1 7547   2.433   1.833   4.069
 2534TIP3    H2 7548   2.578   1.858   4.096
 2535TIP3   OH2 7549   2.739   2.375   3.739
 2535TIP3    H1 7550   2.659   2.405   3.692
 2535TIP3    H2 7551   2.757   2.451   3.799
 2536TIP3   OH2 7552   3.148   1.483   2.612
 2536TIP3    H1 7553   3.084   1.440   2.551
 2536TIP3    H2 7554   3.145   1.572   2.570
 2537TIP3   OH2 7555   2.849   2.298   2.521
 2537TIP3    H1 7556   2.826   2.222   2.576
 2537TIP3    H2 7557   2.867   2.257   2.434
 2538TIP3   OH2 7558   2.865   1.889   3.402
 2538TIP3    H1 7559   2.777   1.925   3.384
 2538TIP3    H2 7560   2.880   1.832   3.324
 2539TIP3   OH2 7561   1.970   2.161   3.125
 2539TIP3    H1 7562   1.970   2.237   3.063
 2539TIP3    H2 7563   1.886   2.118   3.102
 2540TIP3   OH2 7564   1.555   1.464   2.828
 2540TIP3    H1 7565   1.616   1.540   2.838
 2540TIP3    H2 7566   1.472   1.513   2.846
 2541TIP3   OH2 7567   2.101   1.919   3.052
 2541TIP3    H1 7568   2.078   2.009   3.080
 2541TIP3    H2 7569   2.072   1.866   3.128
 2542TIP3   OH2 7570   2.214   2.472   3.557
 2542TIP3    H1 7571   2.248   2.553   3.513
 2542TIP3    H2 7572   2.284   2.460   3.625
 2543TIP3   OH2 7573   1.896   2.395   2.964
 2543TIP3    H1 7574   1.809   2.408   3.006
 2543TIP3    H2 7575   1.931   2.487   2.965
 2544TIP3   OH2 7576   2.617   2.123   3.530
 2544TIP3    H1 7577   2.643   2.113   3.623
 2544TIP3    H2 7578   2.696   2.165   3.490
 2545TIP3   OH2 7579   2.607   2.029   2.428
 2545TIP3    H1 7580   2.662   2.002   2.505
 2545TIP3    H2 7581   2.519   2.002   2.458
 2546TIP3   OH2 7582   2.879   2.662   3.588
 2546TIP3    H1 7583   2.796   2.614   3.569
 2546TIP3    H2 7584   2.870   2.735   3.523
 2547TIP3   OH2 7585   2.946   2.498   2.240
 2547TIP3    H1 7586   2.983   2.571   2.188
 2547TIP3    H2 7587   2.865   2.541   2.274
 2548TIP3   OH2 7588   1.963   1.271   4.105
 2548TIP3    H1 7589   1.866   1.277   4.115
 2548TIP3    H2 7590   1.987   1.214   4.180
 2549TIP3   OH2 7591   2.768   1.962   2.644
 2549TIP3    H1 7592   2.759   1.889   2.709
 2549TIP3    H2 7593   2.865   1.956   2.625
 2550TIP3   OH2 7594   1.970   2.004   2.418
 2550TIP3    H1 7595   1.985   1.911   2.395
 2550TIP3    H2 7596   1.950   1.997   2.514
 2551TIP3   OH2 7597   1.920   2.012   2.691
 2551TIP3    H1 7598   1.990   1.984   2.751
 2551TIP3    H2 7599   1.924   2.110   2.699
 2552TIP3   OH2 7600   1.677   1.704   2.887
 2552TIP3    H1 7601   1.607   1.736   2.949
 2552TIP3    H2 7602   1.673   1.779   2.824
 2553TIP3   OH2 7603   2.791   1.353   3.801
 2553TIP3    H1 7604   2.881   1.382   3.824
 2553TIP3    H2 7605   2.784   1.267   3.849
 2554TIP3   OH2 7606   2.186   2.208   2.642
 2554TIP3    H1 7607   2.098   2.232   2.677
 2554TIP3    H2 7608   2.201   2.282   2.581
 2555TIP3   OH2 7609   2.355   1.286   3.056
 2555TIP3    H1 7610   2.435   1.341   3.042
 2555TIP3    H2 7611   2.372   1.249   3.145
 2556TIP3   OH2 7612   2.627   1.580   3.866
 2556TIP3    H1 7613   2.662   1.636   3.938
 2556TIP3    H2 7614   2.689   1.505   3.865
 2557TIP3   OH2 7615   1.932   2.283   2.712
 2557TIP3    H1 7616   1.901   2.351   2.648
 2557TIP3    H2 7617   1.914   2.328   2.798
 2558TIP3   OH2 7618   2.043   1.000   2.954
 2558TIP3    H1 7619   2.048   1.092   2.988
 2558TIP3    H2 7620   2.127   0.965   2.985
 2559TIP3   OH2 7621   3.280   1.490   3.848
 2559TIP3    H1 7622   3.182   1.489   3.854
 2559TIP3    H2 7623   3.291   1.448   3.761
 2560TIP3   OH2 7624   2.933   1.673   3.223
 2560TIP3    H1 7625   2.853   1.620   3.239
 2560TIP3    H2 7626   3.000   1.627   3.276
 2561TIP3   OH2 7627   1.652   1.921   2.704
 2561TIP3    H1 7628   1.729   1.981   2.709
 2561TIP3    H2 7629   1.687   1.856   2.639
 2562TIP3   OH2 7630   1.627   1.193   2.804
 2562TIP3    H1 7631   1.611   1.287   2.830
 2562TIP3    H2 7632   1.535   1.167   2.781
 2563TIP3   OH2 7633   2.899   2.674   3.193
 2563TIP3    H1 7634   2.860   2.709   3.110
 2563TIP3    H2 7635   2.992   2.661   3.164
 2564TIP3   OH2 7636   1.978   0.908   3.710
 2564TIP3    H1 7637   1.946   0.875   3.623
 2564TIP3    H2 7638   1.966   0.829   3.766
 2565TIP3   OH2 7639   1.514   2.158   3.095
 2565TIP3    H1 7640   1.440   2.179   3.153
 2565TIP3    H2 7641   1.477   2.183   3.007
 2566TIP3   OH2 7642   1.672   2.680   4.156
 2566TIP3    H1 7643   1.758   2.672   4.204
 2566TIP3    H2 7644   1.670   2.597   4.105
 2567TIP3   OH2 7645   2.151   2.625   4.209
 2567TIP3    H1 7646   2.247   2.619   4.212
 2567TIP3    H2 7647   2.131   2.568   4.133
 2568TIP3   OH2 7648   2.134   2.208   2.330
 2568TIP3    H1 7649   2.080   2.134   2.367
 2568TIP3    H2 7650   2.211   2.158   2.297
 2569TIP3   OH2 7651   2.784   2.550   3.951
 2569TIP3    H1 7652   2.783   2.476   4.015
 2569TIP3    H2 7653   2.867   2.597   3.974
 2570TIP3   OH2 7654   2.568   2.245   2.246
 2570TIP3    H1 7655   2.613   2.182   2.305
 2570TIP3    H2 7656   2.624   2.242   2.166
 2571TIP3   OH2 7657   1.790   2.068   4.359
 2571TIP3    H1 7658   1.818   1.974   4.364
 2571TIP3    H2 7659   1.708   2.061   4.306
 2572TIP3   OH2 7660   1.788   1.732   2.566
 2572TIP3    H1 7661   1.846   1.705   2.639
 2572TIP3    H2 7662   1.852   1.734   2.491
 2573TIP3   OH2 7663   2.411   2.167   4.140
 2573TIP3    H1 7664   2.374   2.191   4.053
 2573TIP3    H2 7665   2.447   2.077   4.125
 2574TIP3   OH2 7666   2.289   1.931   2.363
 2574TIP3    H1 7667   2.294   1.939   2.460
 2574TIP3    H2 7668   2.289   1.834   2.351
 2575TIP3   OH2 7669   2.918   2.171   3.741
 2575TIP3    H1 7670   2.942   2.193   3.650
 2575TIP3    H2 7671   2.845   2.236   3.751
 2576TIP3   OH2 7672   1.926   1.826   4.355
 2576TIP3    H1 7673   1.987   1.756   4.331
 2576TIP3    H2 7674   1.957   1.849   4.445
 2577TIP3   OH2 7675   1.990   1.629   2.779
 2577TIP3    H1 7676   1.956   1.598   2.865
 2577TIP3    H2 7677   2.019   1.546   2.737
 2578TIP3   OH2 7678   2.086   1.416   2.615
 2578TIP3    H1 7679   2.061   1.430   2.521
 2578TIP3    H2 7680   2.183   1.417   2.611
 2579TIP3   OH2 7681   2.772   2.094   4.142
 2579TIP3    H1 7682   2.842   2.062   4.084
 2579TIP3    H2 7683   2.771   2.027   4.213
 2580TIP3   OH2 7684   2.906   1.751   2.286
 2580TIP3    H1 7685   2.901   1.712   2.197
 2580TIP3    H2 7686   2.876   1.842   2.262
 2581TIP3   OH2 7687   2.377   1.475   4.128
 2581TIP3    H1 7688   2.396   1.387   4.089
 2581TIP3    H2 7689   2.313   1.507   4.064
 2582TIP3   OH2 7690   2.386   1.263   3.943
 2582TIP3    H1 7691   2.419   1.292   3.856
 2582TIP3    H2 7692   2.292   1.241   3.923
 2583TIP3   OH2 7693   2.993   1.769   4.192
 2583TIP3    H1 7694   3.035   1.682   4.190
 2583TIP3    H2 7695   3.064   1.826   4.157
 2584TIP3   OH2 7696   3.044   2.038   3.941
 2584TIP3    H1 7697   2.995   2.096   3.877
 2584TIP3    H2 7698   3.112   2.000   3.883
 2585TIP3   OH2 7699   2.263   1.587   4.360
 2585TIP3    H1 7700   2.190   1.524   4.381
 2585TIP3    H2 7701   2.296   1.551   4.276
 2586TIP3   OH2 7702   2.516   1.029   4.009
 2586TIP3    H1 7703   2.465   1.110   3.988
 2586TIP3    H2 7704   2.448   0.960   3.997
 2587TIP3   OH2 7705   2.641   1.533   4.225
 2587TIP3    H1 7706   2.625   1.519   4.320
 2587TIP3    H2 7707   2.552   1.511   4.190
 2588TIP3   OH2 7708   2.884   1.493   4.082
 2588TIP3    H1 7709   2.807   1.488   4.142
 2588TIP3    H2 7710   2.957   1.457   4.137
 2589TIP3   OH2 7711   3.113   1.428   4.228
 2589TIP3    H1 7712   3.125   1.331   4.241
 2589TIP3    H2 7713   3.110   1.461   4.320
 2590TIP3   OH2 7714   2.097   1.371   4.416
 2590TIP3    H1 7715   2.098   1.279   4.385
 2590TIP3    H2 7716   2.134   1.360   4.506
 2591TIP3   OH2 7717   2.611   1.043   4.265
 2591TIP3    H1 7718   2.676   0.970   4.260
 2591TIP3    H2 7719   2.570   1.037   4.176
 2592TIP3   OH2 7720   2.677   1.258   4.421
 2592TIP3    H1 7721   2.656   1.185   4.358
 2592TIP3    H2 7722   2.596   1.313   4.416
 2593TIP3   OH2 7723   1.900   2.486   2.526
 2593TIP3    H1 7724   1.994   2.479   2.504
 2593TIP3    H2 7725   1.869   2.536   2.448
 2594TIP3   OH2 7726   1.377   1.914   2.669
 2594TIP3    H1 7727   1.473   1.930   2.686
 2594TIP3    H2 7728   1.366   1.831   2.721
 2595TIP3   OH2 7729   1.288   2.479   3.155
 2595TIP3    H1 7730   1.225   2.415   3.114
 2595TIP3    H2 7731   1.334   2.420   3.219
 2596TIP3   OH2 7732   1.414   2.330   3.344
 2596TIP3    H1 7733   1.429   2.254   3.402
 2596TIP3    H2 7734   1.447   2.401   3.402
 2597TIP3   OH2 7735   3.166   2.716   3.137
 2597TIP3    H1 7736   3.177   2.758   3.225
 2597TIP3    H2 7737   3.222   2.772   3.082
 2598TIP3   OH2 7738   3.174   2.757   3.415
 2598TIP3    H1 7739   3.129   2.670   3.416
 2598TIP3    H2 7740   3.256   2.736   3.462
 2599TIP3   OH2 7741   3.044   1.940   2.615
 2599TIP3    H1 7742   3.110   2.004   2.580
 2599TIP3    H2 7743   3.093   1.902   2.691
 2600TIP3   OH2 7744   3.176   1.807   2.818
 2600TIP3    H1 7745   3.108   1.763   2.874
 2600TIP3    H2 7746   3.238   1.844   2.884
 2601TIP3   OH2 7747   3.255   2.212   3.266
 2601TIP3    H1 7748   3.283   2.140   3.208
 2601TIP3    H2 7749   3.202   2.268   3.207
 2602TIP3   OH2 7750   3.075   2.506   3.464
 2602TIP3    H1 7751   2.996   2.547   3.504
 2602TIP3    H2 7752   3.028   2.435   3.413
 2603TIP3   OH2 7753   3.111   1.716   2.464
 2603TIP3    H1 7754   3.040   1.716   2.395
 2603TIP3    H2 7755   3.082   1.793   2.516
 2604TIP3   OH2 7756   2.977   1.395   2.423
 2604TIP3    H1 7757   2.949   1.425   2.336
 2604TIP3    H2 7758   2.949   1.300   2.420
 2605TIP3   OH2 7759   2.986   1.662   2.955
 2605TIP3    H1 7760   2.990   1.566   2.945
 2605TIP3    H2 7761   2.971   1.672   3.052
 2606TIP3   OH2 7762   3.442   1.921   3.869
 2606TIP3    H1 7763   3.365   1.861   3.882
 2606TIP3    H2 7764   3.517   1.859   3.874
 2607TIP3   OH2 7765   2.915   1.131   2.430
 2607TIP3    H1 7766   3.001   1.093   2.457
 2607TIP3    H2 7767   2.859   1.052   2.418
 2608TIP3   OH2 7768   2.989   1.383   2.847
 2608TIP3    H1 7769   3.027   1.295   2.867
 2608TIP3    H2 7770   3.049   1.412   2.776
 2609TIP3   OH2 7771   3.145   1.547   3.358
 2609TIP3    H1 7772   3.229   1.573   3.314
 2609TIP3    H2 7773   3.158   1.590   3.444
 2610TIP3   OH2 7774   3.217   1.701   3.583
 2610TIP3    H1 7775   3.136   1.738   3.624
 2610TIP3    H2 7776   3.252   1.779   3.535
 2611TIP3   OH2 7777   1.831   1.428   4.388
 2611TIP3    H1 7778   1.928   1.422   4.390
 2611TIP3    H2 7779   1.806   1.341   4.423
 2612TIP3   OH2 7780   3.664   1.292   4.138
 2612TIP3    H1 7781   3.726   1.228   4.097
 2612TIP3    H2 7782   3.635   1.345   4.061
 2613TIP3   OH2 7783   3.090   1.131   2.897
 2613TIP3    H1 7784   3.137   1.112   2.981
 2613TIP3    H2 7785   3.024   1.058   2.896
 2614TIP3   OH2 7786   1.794   1.115   3.716
 2614TIP3    H1 7787   1.854   1.038   3.723
 2614TIP3    H2 7788   1.858   1.188   3.713
 2615TIP3   OH2 7789   1.594   1.397   3.796
 2615TIP3    H1 7790   1.642   1.404   3.712
 2615TIP3    H2 7791   1.585   1.489   3.824
 2616TIP3   OH2 7792   3.534   1.429   3.941
 2616TIP3    H1 7793   3.445   1.470   3.952
 2616TIP3    H2 7794   3.508   1.353   3.885
 2617TIP3   OH2 7795   3.173   1.058   2.529
 2617TIP3    H1 7796   3.210   0.991   2.468
 2617TIP3    H2 7797   3.238   1.131   2.521
 2618TIP3   OH2 7798   1.581   0.903   3.294
 2618TIP3    H1 7799   1.490   0.910   3.327
 2618TIP3    H2 7800   1.577   0.956   3.211
 2619TIP3   OH2 7801   2.735   2.600   2.794
 2619TIP3    H1 7802   2.790   2.590   2.714
 2619TIP3    H2 7803   2.788   2.661   2.847
 2620TIP3   OH2 7804   1.799   0.970   4.103
 2620TIP3    H1 7805   1.748   0.969   4.185
 2620TIP3    H2 7806   1.735   1.011   4.042
 2621TIP3   OH2 7807   1.841   2.393   4.176
 2621TIP3    H1 7808   1.761   2.376   4.122
 2621TIP3    H2 7809   1.812   2.377   4.266
 2622TIP3   OH2 7810   2.456   2.677   3.866
 2622TIP3    H1 7811   2.499   2.679   3.955
 2622TIP3    H2 7812   2.521   2.730   3.814
 2623TIP3   OH2 7813   2.631   2.836   3.730
 2623TIP3    H1 7814   2.692   2.787   3.673
 2623TIP3    H2 7815   2.693   2.887   3.787
 2624TIP3   OH2 7816   3.435   1.191   3.825
 2624TIP3    H1 7817   3.346   1.183   3.788
 2624TIP3    H2 7818   3.468   1.098   3.815
 2625TIP3   OH2 7819   1.699   2.695   3.734
 2625TIP3    H1 7820   1.612   2.739   3.733
 2625TIP3    H2 7821   1.689   2.629   3.803
 2626TIP3   OH2 7822   2.343   2.693   3.413
 2626TIP3    H1 7823   2.293   2.732   3.339
 2626TIP3    H2 7824   2.371   2.774   3.460
 2627TIP3   OH2 7825   2.625   2.657   3.478
 2627TIP3    H1 7826   2.534   2.655   3.445
 2627TIP3    H2 7827   2.670   2.714   3.415
 2628TIP3   OH2 7828   2.835   2.844   3.388
 2628TIP3    H1 7829   2.817   2.924   3.334
 2628TIP3    H2 7830   2.861   2.780   3.317
 2629TIP3   OH2 7831   1.608   2.479   3.504
 2629TIP3    H1 7832   1.638   2.501   3.593
 2629TIP3    H2 7833   1.610   2.381   3.507
 2630TIP3   OH2 7834   2.647   1.114   3.465
 2630TIP3    H1 7835   2.599   1.039   3.504
 2630TIP3    H2 7836   2.703   1.072   3.398
 2631TIP3   OH2 7837   3.163   0.989   3.353
 2631TIP3    H1 7838   3.198   1.040   3.276
 2631TIP3    H2 7839   3.067   1.005   3.344
 2632TIP3   OH2 7840   3.257   1.080   3.113
 2632TIP3    H1 7841   3.332   1.032   3.071
 2632TIP3    H2 7842   3.287   1.173   3.100
 2633TIP3   OH2 7843   1.886   0.820   3.468
 2633TIP3    H1 7844   1.796   0.784   3.452
 2633TIP3    H2 7845   1.939   0.738   3.457
 2634TIP3   OH2 7846   1.781   0.736   3.198
 2634TIP3    H1 7847   1.740   0.734   3.110
 2634TIP3    H2 7848   1.721   0.799   3.243
 2635TIP3   OH2 7849   2.324   0.845   3.348
 2635TIP3    H1 7850   2.370   0.892   3.278
 2635TIP3    H2 7851   2.358   0.887   3.428
 2636TIP3   OH2 7852   2.884   0.998   3.324
 2636TIP3    H1 7853   2.865   0.969   3.234
 2636TIP3    H2 7854   2.866   0.916   3.376
 2637TIP3   OH2 7855   2.900   0.923   2.890
 2637TIP3    H1 7856   2.806   0.951   2.889
 2637TIP3    H2 7857   2.889   0.835   2.933
 2638TIP3   OH2 7858   1.392   2.266   2.882
 2638TIP3    H1 7859   1.310   2.225   2.849
 2638TIP3    H2 7860   1.379   2.357   2.848
 2639TIP3   OH2 7861   1.795   0.868   2.899
 2639TIP3    H1 7862   1.862   0.800   2.915
 2639TIP3    H2 7863   1.837   0.944   2.942
 2640TIP3   OH2 7864   2.166   2.441   2.471
 2640TIP3    H1 7865   2.254   2.464   2.434
 2640TIP3    H2 7866   2.143   2.367   2.410
 2641TIP3   OH2 7867   2.885   2.565   2.565
 2641TIP3    H1 7868   2.877   2.467   2.554
 2641TIP3    H2 7869   2.840   2.595   2.483
 2642TIP3   OH2 7870   2.096   1.097   4.354
 2642TIP3    H1 7871   2.060   1.026   4.409
 2642TIP3    H2 7872   2.190   1.095   4.382
 2643TIP3   OH2 7873   2.348   1.092   4.471
 2643TIP3    H1 7874   2.432   1.059   4.434
 2643TIP3    H2 7875   2.331   1.024   4.540
 2644TIP3   OH2 7876   1.471   2.283   2.525
 2644TIP3    H1 7877   1.472   2.300   2.620
 2644TIP3    H2 7878   1.558   2.239   2.511
 2645TIP3   OH2 7879   3.174   1.157   4.257
 2645TIP3    H1 7880   3.192   1.125   4.348
 2645TIP3    H2 7881   3.263   1.151   4.216
 2646TIP3   OH2 7882   3.108   2.704   3.746
 2646TIP3    H1 7883   3.028   2.676   3.696
 2646TIP3    H2 7884   3.090   2.800   3.753
 2647TIP3   OH2 7885   4.376   2.081   2.513
 2647TIP3    H1 7886   4.346   2.171   2.492
 2647TIP3    H2 7887   4.301   2.029   2.479
 2648TIP3   OH2 7888   4.380   2.080   2.899
 2648TIP3    H1 7889   4.411   2.055   2.988
 2648TIP3    H2 7890   4.335   1.999   2.869
 2649TIP3   OH2 7891   3.677   1.980   3.273
 2649TIP3    H1 7892   3.710   1.904   3.324
 2649TIP3    H2 7893   3.760   2.021   3.243
 2650TIP3   OH2 7894   4.623   2.383   2.581
 2650TIP3    H1 7895   4.602   2.317   2.648
 2650TIP3    H2 7896   4.651   2.459   2.634
 2651TIP3   OH2 7897   3.651   2.387   2.989
 2651TIP3    H1 7898   3.641   2.290   2.988
 2651TIP3    H2 7899   3.748   2.395   2.975
 2652TIP3   OH2 7900   3.352   1.586   2.770
 2652TIP3    H1 7901   3.303   1.668   2.785
 2652TIP3    H2 7902   3.284   1.534   2.723
 2653TIP3   OH2 7903   3.412   1.875   2.947
 2653TIP3    H1 7904   3.462   1.795   2.977
 2653TIP3    H2 7905   3.465   1.904   2.872
 2654TIP3   OH2 7906   4.272   2.846   2.598
 2654TIP3    H1 7907   4.314   2.773   2.546
 2654TIP3    H2 7908   4.260   2.804   2.684
 2655TIP3   OH2 7909   4.172   2.306   2.947
 2655TIP3    H1 7910   4.213   2.232   2.899
 2655TIP3    H2 7911   4.254   2.352   2.974
 2656TIP3   OH2 7912   5.192   1.625   2.946
 2656TIP3    H1 7913   5.219   1.709   2.987
 2656TIP3    H2 7914   5.208   1.644   2.852
 2657TIP3   OH2 7915   4.587   1.804   2.976
 2657TIP3    H1 7916   4.629   1.718   2.995
 2657TIP3    H2 7917   4.554   1.789   2.885
 2658TIP3   OH2 7918   3.930   1.466   2.941
 2658TIP3    H1 7919   3.907   1.538   2.879
 2658TIP3    H2 7920   3.882   1.392   2.897
 2659TIP3   OH2 7921   4.622   1.559   2.563
 2659TIP3    H1 7922   4.694   1.544   2.629
 2659TIP3    H2 7923   4.674   1.594   2.488
 2660TIP3   OH2 7924   3.558   1.667   3.051
 2660TIP3    H1 7925   3.641   1.646   3.097
 2660TIP3    H2 7926   3.570   1.612   2.970
 2661TIP3   OH2 7927   3.996   1.864   2.850
 2661TIP3    H1 7928   4.091   1.840   2.858
 2661TIP3    H2 7929   3.958   1.781   2.813
 2662TIP3   OH2 7930   5.263   1.834   3.115
 2662TIP3    H1 7931   5.179   1.881   3.096
 2662TIP3    H2 7932   5.284   1.871   3.203
 2663TIP3   OH2 7933   3.921   1.451   3.378
 2663TIP3    H1 7934   3.862   1.486   3.309
 2663TIP3    H2 7935   3.867   1.469   3.458
 2664TIP3   OH2 7936   4.267   2.301   2.382
 2664TIP3    H1 7937   4.223   2.285   2.297
 2664TIP3    H2 7938   4.221   2.383   2.411
 2665TIP3   OH2 7939   4.028   2.225   3.169
 2665TIP3    H1 7940   3.969   2.296   3.204
 2665TIP3    H2 7941   4.071   2.272   3.094
 2666TIP3   OH2 7942   4.828   1.562   2.742
 2666TIP3    H1 7943   4.805   1.523   2.828
 2666TIP3    H2 7944   4.878   1.641   2.769
 2667TIP3   OH2 7945   3.795   1.563   3.160
 2667TIP3    H1 7946   3.857   1.636   3.183
 2667TIP3    H2 7947   3.843   1.524   3.084
 2668TIP3   OH2 7948   3.860   2.423   3.269
 2668TIP3    H1 7949   3.834   2.509   3.229
 2668TIP3    H2 7950   3.779   2.406   3.322
 2669TIP3   OH2 7951   3.244   2.107   2.506
 2669TIP3    H1 7952   3.209   2.124   2.416
 2669TIP3    H2 7953   3.276   2.196   2.532
 2670TIP3   OH2 7954   4.689   2.627   2.743
 2670TIP3    H1 7955   4.600   2.618   2.784
 2670TIP3    H2 7956   4.680   2.714   2.699
 2671TIP3   OH2 7957   4.982   1.521   3.109
 2671TIP3    H1 7958   4.895   1.550   3.077
 2671TIP3    H2 7959   5.042   1.556   3.039
 2672TIP3   OH2 7960   4.277   1.168   3.096
 2672TIP3    H1 7961   4.257   1.073   3.108
 2672TIP3    H2 7962   4.199   1.207   3.141
 2673TIP3   OH2 7963   4.388   2.671   2.417
 2673TIP3    H1 7964   4.439   2.588   2.398
 2673TIP3    H2 7965   4.451   2.736   2.377
 2674TIP3   OH2 7966   4.534   2.455   2.330
 2674TIP3    H1 7967   4.489   2.377   2.295
 2674TIP3    H2 7968   4.572   2.422   2.413
 2675TIP3   OH2 7969   4.914   2.536   3.090
 2675TIP3    H1 7970   4.901   2.459   3.030
 2675TIP3    H2 7971   4.895   2.611   3.031
 2676TIP3   OH2 7972   4.208   1.932   2.350
 2676TIP3    H1 7973   4.127   1.984   2.332
 2676TIP3    H2 7974   4.249   1.929   2.262
 2677TIP3   OH2 7975   4.165   1.718   2.061
 2677TIP3    H1 7976   4.232   1.771   2.108
 2677TIP3    H2 7977   4.223   1.655   2.013
 2678TIP3   OH2 7978   5.110   2.175   2.936
 2678TIP3    H1 7979   5.026   2.227   2.940
 2678TIP3    H2 7980   5.141   2.201   2.846
 2679TIP3   OH2 7981   4.555   2.015   2.317
 2679TIP3    H1 7982   4.500   2.039   2.395
 2679TIP3    H2 7983   4.639   1.992   2.361
 2680TIP3   OH2 7984   4.789   2.051   3.235
 2680TIP3    H1 7985   4.787   2.135   3.285
 2680TIP3    H2 7986   4.702   2.056   3.189
 2681TIP3   OH2 7987   3.785   2.010   2.737
 2681TIP3    H1 7988   3.742   1.953   2.669
 2681TIP3    H2 7989   3.861   1.956   2.765
 2682TIP3   OH2 7990   3.914   2.421   2.883
 2682TIP3    H1 7991   3.895   2.390   2.794
 2682TIP3    H2 7992   4.004   2.385   2.900
 2683TIP3   OH2 7993   3.920   1.982   3.094
 2683TIP3    H1 7994   3.951   1.957   3.005
 2683TIP3    H2 7995   3.965   2.068   3.108
 2684TIP3   OH2 7996   4.450   2.620   2.867
 2684TIP3    H1 7997   4.435   2.702   2.918
 2684TIP3    H2 7998   4.431   2.549   2.932
 2685TIP3   OH2 7999   4.063   2.537   3.416
 2685TIP3    H1 8000   4.002   2.600   3.460
 2685TIP3    H2 8001   3.999   2.486   3.362
 2686TIP3   OH2 8002   4.394   1.871   2.145
 2686TIP3    H1 8003   4.452   1.933   2.195
 2686TIP3    H2 8004   4.420   1.892   2.052
 2687TIP3   OH2 8005   3.819   2.089   3.525
 2687TIP3    H1 8006   3.822   2.177   3.568
 2687TIP3    H2 8007   3.724   2.079   3.513
 2688TIP3   OH2 8008   4.141   2.547   2.422
 2688TIP3    H1 8009   4.222   2.602   2.430
 2688TIP3    H2 8010   4.080   2.606   2.377
 2689TIP3   OH2 8011   3.855   2.699   3.502
 2689TIP3    H1 8012   3.821   2.708   3.410
 2689TIP3    H2 8013   3.775   2.670   3.551
 2690TIP3   OH2 8014   4.911   1.110   2.196
 2690TIP3    H1 8015   4.828   1.133   2.244
 2690TIP3    H2 8016   4.926   1.192   2.144
 2691TIP3   OH2 8017   3.651   1.854   2.543
 2691TIP3    H1 8018   3.586   1.903   2.487
 2691TIP3    H2 8019   3.610   1.767   2.546
 2692TIP3   OH2 8020   4.710   2.479   1.742
 2692TIP3    H1 8021   4.718   2.575   1.728
 2692TIP3    H2 8022   4.803   2.450   1.730
 2693TIP3   OH2 8023   3.428   2.252   3.461
 2693TIP3    H1 8024   3.363   2.250   3.386
 2693TIP3    H2 8025   3.475   2.167   3.448
 2694TIP3   OH2 8026   3.286   2.442   3.063
 2694TIP3    H1 8027   3.382   2.436   3.072
 2694TIP3    H2 8028   3.265   2.517   3.120
 2695TIP3   OH2 8029   5.154   2.885   3.140
 2695TIP3    H1 8030   5.151   2.789   3.155
 2695TIP3    H2 8031   5.070   2.912   3.184
 2696TIP3   OH2 8032   4.259   2.666   3.272
 2696TIP3    H1 8033   4.256   2.760   3.303
 2696TIP3    H2 8034   4.188   2.626   3.327
 2697TIP3   OH2 8035   4.024   2.797   2.223
 2697TIP3    H1 8036   3.973   2.777   2.142
 2697TIP3    H2 8037   3.987   2.883   2.250
 2698TIP3   OH2 8038   3.458   2.645   2.609
 2698TIP3    H1 8039   3.503   2.635   2.696
 2698TIP3    H2 8040   3.408   2.561   2.604
 2699TIP3   OH2 8041   4.220   2.700   1.861
 2699TIP3    H1 8042   4.279   2.629   1.826
 2699TIP3    H2 8043   4.254   2.710   1.952
 2700TIP3   OH2 8044   4.273   2.747   2.130
 2700TIP3    H1 8045   4.184   2.758   2.170
 2700TIP3    H2 8046   4.323   2.708   2.204
 2701TIP3   OH2 8047   5.041   2.011   3.413
 2701TIP3    H1 8048   4.958   2.024   3.365
 2701TIP3    H2 8049   5.056   1.915   3.403
 2702TIP3   OH2 8050   3.640   2.417   3.430
 2702TIP3    H1 8051   3.684   2.411   3.516
 2702TIP3    H2 8052   3.559   2.364   3.445
 2703TIP3   OH2 8053   4.038   1.244   3.224
 2703TIP3    H1 8054   3.950   1.213   3.194
 2703TIP3    H2 8055   4.012   1.325   3.270
 2704TIP3   OH2 8056   4.573   1.358   3.416
 2704TIP3    H1 8057   4.641   1.331   3.481
 2704TIP3    H2 8058   4.489   1.340   3.464
 2705TIP3   OH2 8059   4.808   1.789   3.334
 2705TIP3    H1 8060   4.758   1.787   3.418
 2705TIP3    H2 8061   4.786   1.876   3.298
 2706TIP3   OH2 8062   4.474   1.913   1.891
 2706TIP3    H1 8063   4.435   1.893   1.803
 2706TIP3    H2 8064   4.555   1.960   1.865
 2707TIP3   OH2 8065   4.186   1.288   2.194
 2707TIP3    H1 8066   4.147   1.286   2.284
 2707TIP3    H2 8067   4.142   1.210   2.155
 2708TIP3   OH2 8068   3.971   1.759   3.240
 2708TIP3    H1 8069   3.921   1.781   3.321
 2708TIP3    H2 8070   3.957   1.841   3.187
 2709TIP3   OH2 8071   3.854   1.646   2.754
 2709TIP3    H1 8072   3.760   1.622   2.771
 2709TIP3    H2 8073   3.865   1.606   2.665
 2710TIP3   OH2 8074   4.345   1.732   2.484
 2710TIP3    H1 8075   4.293   1.804   2.440
 2710TIP3    H2 8076   4.398   1.698   2.410
 2711TIP3   OH2 8077   4.519   2.006   3.564
 2711TIP3    H1 8078   4.497   1.934   3.628
 2711TIP3    H2 8079   4.612   2.023   3.588
 2712TIP3   OH2 8080   4.499   1.758   2.719
 2712TIP3    H1 8081   4.437   1.788   2.649
 2712TIP3    H2 8082   4.534   1.679   2.674
 2713TIP3   OH2 8083   3.790   1.790   3.448
 2713TIP3    H1 8084   3.826   1.851   3.515
 2713TIP3    H2 8085   3.778   1.708   3.500
 2714TIP3   OH2 8086   3.844   1.270   2.159
 2714TIP3    H1 8087   3.827   1.266   2.255
 2714TIP3    H2 8088   3.765   1.320   2.128
 2715TIP3   OH2 8089   3.381   1.306   3.035
 2715TIP3    H1 8090   3.458   1.340   3.083
 2715TIP3    H2 8091   3.416   1.281   2.948
 2716TIP3   OH2 8092   3.348   1.293   2.551
 2716TIP3    H1 8093   3.391   1.329   2.470
 2716TIP3    H2 8094   3.285   1.366   2.568
 2717TIP3   OH2 8095   4.511   2.003   3.141
 2717TIP3    H1 8096   4.545   1.932   3.082
 2717TIP3    H2 8097   4.480   1.949   3.217
 2718TIP3   OH2 8098   4.186   1.462   2.814
 2718TIP3    H1 8099   4.102   1.464   2.864
 2718TIP3    H2 8100   4.252   1.466   2.885
 2719TIP3   OH2 8101   3.613   1.526   2.822
 2719TIP3    H1 8102   3.519   1.536   2.793
 2719TIP3    H2 8103   3.634   1.434   2.796
 2720TIP3   OH2 8104   3.882   1.520   2.513
 2720TIP3    H1 8105   3.974   1.537   2.486
 2720TIP3    H2 8106   3.831   1.542   2.432
 2721TIP3   OH2 8107   4.673   1.542   3.015
 2721TIP3    H1 8108   4.643   1.557   3.108
 2721TIP3    H2 8109   4.603   1.483   2.983
 2722TIP3   OH2 8110   3.733   1.554   2.292
 2722TIP3    H1 8111   3.660   1.509   2.245
 2722TIP3    H2 8112   3.783   1.589   2.215
 2723TIP3   OH2 8113   4.847   3.232   3.238
 2723TIP3    H1 8114   4.844   3.260   3.145
 2723TIP3    H2 8115   4.925   3.281   3.271
 2724TIP3   OH2 8116   3.800   2.334   3.660
 2724TIP3    H1 8117   3.886   2.370   3.691
 2724TIP3    H2 8118   3.750   2.339   3.741
 2725TIP3   OH2 8119   4.263   1.796   2.911
 2725TIP3    H1 8120   4.338   1.760   2.862
 2725TIP3    H2 8121   4.271   1.752   2.998
 2726TIP3   OH2 8122   3.788   1.282   2.793
 2726TIP3    H1 8123   3.749   1.206   2.840
 2726TIP3    H2 8124   3.816   1.242   2.710
 2727TIP3   OH2 8125   4.240   1.695   3.203
 2727TIP3    H1 8126   4.150   1.730   3.216
 2727TIP3    H2 8127   4.296   1.758   3.252
 2728TIP3   OH2 8128   3.979   2.083   2.299
 2728TIP3    H1 8129   3.908   2.017   2.286
 2728TIP3    H2 8130   3.957   2.118   2.389
 2729TIP3   OH2 8131   4.876   2.319   2.923
 2729TIP3    H1 8132   4.899   2.371   2.843
 2729TIP3    H2 8133   4.790   2.277   2.896
 2730TIP3   OH2 8134   4.436   1.392   2.167
 2730TIP3    H1 8135   4.339   1.372   2.172
 2730TIP3    H2 8136   4.440   1.487   2.188
 2731TIP3   OH2 8137   4.372   2.401   3.296
 2731TIP3    H1 8138   4.408   2.390   3.384
 2731TIP3    H2 8139   4.338   2.492   3.297
 2732TIP3   OH2 8140   4.502   1.645   2.267
 2732TIP3    H1 8141   4.598   1.653   2.279
 2732TIP3    H2 8142   4.480   1.725   2.214
 2733TIP3   OH2 8143   3.672   2.110   2.971
 2733TIP3    H1 8144   3.706   2.083   2.883
 2733TIP3    H2 8145   3.714   2.045   3.028
 2734TIP3   OH2 8146   4.123   2.234   2.122
 2734TIP3    H1 8147   4.074   2.320   2.125
 2734TIP3    H2 8148   4.067   2.179   2.182
 2735TIP3   OH2 8149   3.506   2.050   3.620
 2735TIP3    H1 8150   3.561   2.020   3.696
 2735TIP3    H2 8151   3.479   1.964   3.581
 2736TIP3   OH2 8152   4.278   2.141   3.606
 2736TIP3    H1 8153   4.218   2.084   3.556
 2736TIP3    H2 8154   4.365   2.107   3.576
 2737TIP3   OH2 8155   4.535   2.657   3.194
 2737TIP3    H1 8156   4.438   2.661   3.205
 2737TIP3    H2 8157   4.564   2.712   3.269
 2738TIP3   OH2 8158   4.944   1.738   2.098
 2738TIP3    H1 8159   4.883   1.694   2.035
 2738TIP3    H2 8160   4.940   1.828   2.059
 2739TIP3   OH2 8161   5.165   2.593   3.179
 2739TIP3    H1 8162   5.067   2.588   3.170
 2739TIP3    H2 8163   5.191   2.563   3.089
 2740TIP3   OH2 8164   4.651   2.554   2.009
 2740TIP3    H1 8165   4.618   2.486   2.070
 2740TIP3    H2 8166   4.659   2.506   1.925
 2741TIP3   OH2 8167   4.642   2.183   2.841
 2741TIP3    H1 8168   4.548   2.159   2.855
 2741TIP3    H2 8169   4.674   2.103   2.795
 2742TIP3   OH2 8170   3.772   2.413   2.600
 2742TIP3    H1 8171   3.768   2.493   2.544
 2742TIP3    H2 8172   3.678   2.391   2.608
 2743TIP3   OH2 8173   3.339   1.710   2.301
 2743TIP3    H1 8174   3.377   1.799   2.313
 2743TIP3    H2 8175   3.257   1.718   2.355
 2744TIP3   OH2 8176   3.905   2.175   2.542
 2744TIP3    H1 8177   3.871   2.265   2.560
 2744TIP3    H2 8178   3.866   2.125   2.616
 2745TIP3   OH2 8179   4.041   2.753   3.065
 2745TIP3    H1 8180   4.082   2.827   3.015
 2745TIP3    H2 8181   4.119   2.718   3.112
 2746TIP3   OH2 8182   3.689   2.650   2.451
 2746TIP3    H1 8183   3.603   2.659   2.497
 2746TIP3    H2 8184   3.720   2.743   2.453
 2747TIP3   OH2 8185   4.424   2.387   3.027
 2747TIP3    H1 8186   4.413   2.385   3.125
 2747TIP3    H2 8187   4.505   2.337   3.015
 2748TIP3   OH2 8188   4.404   2.285   1.907
 2748TIP3    H1 8189   4.456   2.258   1.987
 2748TIP3    H2 8190   4.316   2.254   1.932
 2749TIP3   OH2 8191   4.675   2.918   3.073
 2749TIP3    H1 8192   4.593   2.865   3.066
 2749TIP3    H2 8193   4.661   2.984   3.002
 2750TIP3   OH2 8194   4.741   2.755   1.726
 2750TIP3    H1 8195   4.777   2.829   1.676
 2750TIP3    H2 8196   4.661   2.797   1.762
 2751TIP3   OH2 8197   3.757   1.533   3.591
 2751TIP3    H1 8198   3.660   1.535   3.600
 2751TIP3    H2 8199   3.783   1.474   3.664
 2752TIP3   OH2 8200   4.565   2.214   2.121
 2752TIP3    H1 8201   4.554   2.149   2.194
 2752TIP3    H2 8202   4.662   2.211   2.110
 2753TIP3   OH2 8203   3.478   2.615   3.224
 2753TIP3    H1 8204   3.537   2.546   3.258
 2753TIP3    H2 8205   3.511   2.694   3.270
 2754TIP3   OH2 8206   3.768   2.259   1.909
 2754TIP3    H1 8207   3.776   2.166   1.882
 2754TIP3    H2 8208   3.744   2.250   2.003
 2755TIP3   OH2 8209   3.711   2.272   2.181
 2755TIP3    H1 8210   3.782   2.242   2.238
 2755TIP3    H2 8211   3.716   2.370   2.189
 2756TIP3   OH2 8212   3.451   1.964   2.386
 2756TIP3    H1 8213   3.380   2.005   2.439
 2756TIP3    H2 8214   3.458   2.029   2.314
 2757TIP3   OH2 8215   4.603   1.594   3.275
 2757TIP3    H1 8216   4.681   1.635   3.316
 2757TIP3    H2 8217   4.589   1.514   3.330
 2758TIP3   OH2 8218   4.484   1.341   2.445
 2758TIP3    H1 8219   4.466   1.363   2.351
 2758TIP3    H2 8220   4.520   1.426   2.479
 2759TIP3   OH2 8221   3.982   2.465   2.129
 2759TIP3    H1 8222   3.895   2.488   2.166
 2759TIP3    H2 8223   3.994   2.538   2.066
 2760TIP3   OH2 8224   4.170   1.527   2.543
 2760TIP3    H1 8225   4.231   1.601   2.527
 2760TIP3    H2 8226   4.173   1.520   2.641
 2761TIP3   OH2 8227   4.436   1.843   3.350
 2761TIP3    H1 8228   4.461   1.898   3.427
 2761TIP3    H2 8229   4.490   1.763   3.362
 2762TIP3   OH2 8230   4.309   1.249   2.645
 2762TIP3    H1 8231   4.292   1.330   2.697
 2762TIP3    H2 8232   4.372   1.283   2.577
 2763TIP3   OH2 8233   3.730   2.543   2.199
 2763TIP3    H1 8234   3.696   2.612   2.137
 2763TIP3    H2 8235   3.710   2.584   2.286
 2764TIP3   OH2 8236   3.824   1.255   2.437
 2764TIP3    H1 8237   3.820   1.346   2.470
 2764TIP3    H2 8238   3.921   1.240   2.442
 2765TIP3   OH2 8239   5.075   1.744   3.334
 2765TIP3    H1 8240   4.977   1.742   3.340
 2765TIP3    H2 8241   5.087   1.708   3.245
 2766TIP3   OH2 8242   4.728   1.938   2.719
 2766TIP3    H1 8243   4.650   1.880   2.731
 2766TIP3    H2 8244   4.798   1.890   2.769
 2767TIP3   OH2 8245   3.441   2.167   2.190
 2767TIP3    H1 8246   3.515   2.231   2.194
 2767TIP3    H2 8247   3.481   2.105   2.125
 2768TIP3   OH2 8248   3.382   1.442   2.323
 2768TIP3    H1 8249   3.379   1.540   2.320
 2768TIP3    H2 8250   3.315   1.420   2.257
 2769TIP3   OH2 8251   4.697   2.897   2.666
 2769TIP3    H1 8252   4.654   2.944   2.591
 2769TIP3    H2 8253   4.792   2.916   2.646
 2770TIP3   OH2 8254   3.775   1.164   3.193
 2770TIP3    H1 8255   3.743   1.132   3.105
 2770TIP3    H2 8256   3.761   1.086   3.249
 2771TIP3   OH2 8257   3.312   2.385   2.572
 2771TIP3    H1 8258   3.247   2.412   2.638
 2771TIP3    H2 8259   3.275   2.427   2.490
 2772TIP3   OH2 8260   3.471   2.933   3.647
 2772TIP3    H1 8261   3.556   2.937   3.697
 2772TIP3    H2 8262   3.451   2.838   3.652
 2773TIP3   OH2 8263   3.942   2.884   3.697
 2773TIP3    H1 8264   4.038   2.882   3.701
 2773TIP3    H2 8265   3.924   2.822   3.623
 2774TIP3   OH2 8266   3.930   2.462   1.819
 2774TIP3    H1 8267   3.874   2.391   1.857
 2774TIP3    H2 8268   4.005   2.410   1.787
 2775TIP3   OH2 8269   4.590   2.794   3.425
 2775TIP3    H1 8270   4.582   2.726   3.496
 2775TIP3    H2 8271   4.665   2.848   3.456
 2776TIP3   OH2 8272   4.367   2.503   1.734
 2776TIP3    H1 8273   4.404   2.436   1.794
 2776TIP3    H2 8274   4.425   2.497   1.656
 2777TIP3   OH2 8275   3.593   1.993   2.055
 2777TIP3    H1 8276   3.650   1.950   2.120
 2777TIP3    H2 8277   3.649   1.990   1.975
 2778TIP3   OH2 8278   4.203   2.418   3.623
 2778TIP3    H1 8279   4.166   2.441   3.536
 2778TIP3    H2 8280   4.236   2.327   3.609
 2779TIP3   OH2 8281   4.098   2.183   1.851
 2779TIP3    H1 8282   4.093   2.194   1.949
 2779TIP3    H2 8283   4.094   2.085   1.844
 2780TIP3   OH2 8284   4.698   2.430   3.229
 2780TIP3    H1 8285   4.775   2.472   3.186
 2780TIP3    H2 8286   4.630   2.498   3.214
 2781TIP3   OH2 8287   3.727   2.042   3.824
 2781TIP3    H1 8288   3.818   2.016   3.805
 2781TIP3    H2 8289   3.737   2.094   3.906
 2782TIP3   OH2 8290   3.792   1.884   2.267
 2782TIP3    H1 8291   3.754   1.842   2.346
 2782TIP3    H2 8292   3.824   1.807   2.216
 2783TIP3   OH2 8293   4.053   1.948   3.491
 2783TIP3    H1 8294   3.977   2.009   3.493
 2783TIP3    H2 8295   4.105   1.984   3.415
 2784TIP3   OH2 8296   3.886   1.680   2.102
 2784TIP3    H1 8297   3.859   1.688   2.009
 2784TIP3    H2 8298   3.984   1.684   2.094
 2785TIP3   OH2 8299   4.569   2.351   3.625
 2785TIP3    H1 8300   4.648   2.324   3.577
 2785TIP3    H2 8301   4.566   2.287   3.698
 2786TIP3   OH2 8302   4.706   2.009   1.770
 2786TIP3    H1 8303   4.685   1.965   1.685
 2786TIP3    H2 8304   4.673   2.099   1.749
 2787TIP3   OH2 8305   4.177   1.740   3.617
 2787TIP3    H1 8306   4.178   1.662   3.558
 2787TIP3    H2 8307   4.134   1.808   3.560
 2788TIP3   OH2 8308   4.180   1.526   3.427
 2788TIP3    H1 8309   4.208   1.568   3.343
 2788TIP3    H2 8310   4.087   1.504   3.407
 2789TIP3   OH2 8311   4.203   2.061   3.300
 2789TIP3    H1 8312   4.288   2.076   3.259
 2789TIP3    H2 8313   4.146   2.126   3.254
 2790TIP3   OH2 8314   4.785   2.027   3.676
 2790TIP3    H1 8315   4.837   1.946   3.687
 2790TIP3    H2 8316   4.852   2.089   3.642
 2791TIP3   OH2 8317   4.827   2.280   3.413
 2791TIP3    H1 8318   4.769   2.336   3.355
 2791TIP3    H2 8319   4.915   2.303   3.374
 2792TIP3   OH2 8320   4.054   1.846   3.851
 2792TIP3    H1 8321   3.986   1.776   3.865
 2792TIP3    H2 8322   4.088   1.823   3.762
 2793TIP3   OH2 8323   4.311   1.288   3.495
 2793TIP3    H1 8324   4.262   1.369   3.471
 2793TIP3    H2 8325   4.242   1.219   3.483
 2794TIP3   OH2 8326   4.438   1.789   3.709
 2794TIP3    H1 8327   4.423   1.776   3.804
 2794TIP3    H2 8328   4.349   1.767   3.675
 2795TIP3   OH2 8329   4.675   1.739   3.563
 2795TIP3    H1 8330   4.601   1.743   3.626
 2795TIP3    H2 8331   4.750   1.712   3.620
 2796TIP3   OH2 8332   4.905   1.684   3.713
 2796TIP3    H1 8333   4.918   1.588   3.730
 2796TIP3    H2 8334   4.901   1.721   3.804
 2797TIP3   OH2 8335   3.888   1.628   3.905
 2797TIP3    H1 8336   3.892   1.537   3.870
 2797TIP3    H2 8337   3.927   1.615   3.994
 2798TIP3   OH2 8338   4.403   1.297   3.754
 2798TIP3    H1 8339   4.470   1.225   3.746
 2798TIP3    H2 8340   4.364   1.294   3.664
 2799TIP3   OH2 8341   4.471   1.512   3.912
 2799TIP3    H1 8342   4.450   1.441   3.847
 2799TIP3    H2 8343   4.393   1.571   3.904
 2800TIP3   OH2 8344   3.696   2.747   2.012
 2800TIP3    H1 8345   3.790   2.736   1.991
 2800TIP3    H2 8346   3.666   2.795   1.933
 2801TIP3   OH2 8347   3.172   2.118   2.239
 2801TIP3    H1 8348   3.264   2.140   2.211
 2801TIP3    H2 8349   3.147   2.053   2.169
 2802TIP3   OH2 8350   3.089   2.736   2.642
 2802TIP3    H1 8351   3.024   2.675   2.602
 2802TIP3    H2 8352   3.134   2.676   2.706
 2803TIP3   OH2 8353   3.222   2.583   2.828
 2803TIP3    H1 8354   3.215   2.513   2.895
 2803TIP3    H2 8355   3.274   2.648   2.879
 2804TIP3   OH2 8356   4.954   2.982   2.628
 2804TIP3    H1 8357   4.976   3.016   2.717
 2804TIP3    H2 8358   5.015   3.032   2.572
 2805TIP3   OH2 8359   4.978   3.006   2.909
 2805TIP3    H1 8360   4.935   2.918   2.906
 2805TIP3    H2 8361   5.053   2.985   2.967
 2806TIP3   OH2 8362   5.027   2.682   3.483
 2806TIP3    H1 8363   4.954   2.693   3.548
 2806TIP3    H2 8364   5.069   2.770   3.486
 2807TIP3   OH2 8365   4.844   2.194   2.100
 2807TIP3    H1 8366   4.909   2.261   2.071
 2807TIP3    H2 8367   4.889   2.158   2.180
 2808TIP3   OH2 8368   4.972   2.061   2.305
 2808TIP3    H1 8369   4.904   2.021   2.363
 2808TIP3    H2 8370   5.035   2.100   2.369
 2809TIP3   OH2 8371   5.028   2.458   2.738
 2809TIP3    H1 8372   5.079   2.391   2.689
 2809TIP3    H2 8373   5.023   2.532   2.674
 2810TIP3   OH2 8374   4.854   2.756   2.932
 2810TIP3    H1 8375   4.783   2.800   2.982
 2810TIP3    H2 8376   4.804   2.711   2.860
 2811TIP3   OH2 8377   4.908   1.971   1.950
 2811TIP3    H1 8378   4.836   1.973   1.883
 2811TIP3    H2 8379   4.879   2.047   2.006
 2812TIP3   OH2 8380   4.782   1.642   1.902
 2812TIP3    H1 8381   4.732   1.681   1.829
 2812TIP3    H2 8382   4.757   1.548   1.893
 2813TIP3   OH2 8383   4.783   1.923   2.450
 2813TIP3    H1 8384   4.789   1.826   2.442
 2813TIP3    H2 8385   4.768   1.935   2.546
 2814TIP3   OH2 8386   3.413   1.978   3.201
 2814TIP3    H1 8387   3.407   1.951   3.107
 2814TIP3    H2 8388   3.510   1.987   3.212
 2815TIP3   OH2 8389   5.073   2.346   3.309
 2815TIP3    H1 8390   5.145   2.280   3.296
 2815TIP3    H2 8391   5.098   2.416   3.246
 2816TIP3   OH2 8392   5.256   2.146   3.314
 2816TIP3    H1 8393   5.181   2.098   3.358
 2816TIP3    H2 8394   5.329   2.084   3.333
 2817TIP3   OH2 8395   4.722   1.376   1.886
 2817TIP3    H1 8396   4.790   1.344   1.948
 2817TIP3    H2 8397   4.644   1.322   1.906
 2818TIP3   OH2 8398   4.782   1.639   2.344
 2818TIP3    H1 8399   4.823   1.550   2.358
 2818TIP3    H2 8400   4.838   1.672   2.272
 2819TIP3   OH2 8401   4.940   1.805   2.842
 2819TIP3    H1 8402   5.025   1.831   2.800
 2819TIP3    H2 8403   4.954   1.846   2.930
 2820TIP3   OH2 8404   5.012   1.955   3.070
 2820TIP3    H1 8405   4.935   1.989   3.119
 2820TIP3    H2 8406   5.044   2.036   3.026
 2821TIP3   OH2 8407   3.617   1.692   3.877
 2821TIP3    H1 8408   3.715   1.686   3.875
 2821TIP3    H2 8409   3.596   1.605   3.915
 2822TIP3   OH2 8410   5.462   1.548   3.627
 2822TIP3    H1 8411   5.523   1.484   3.584
 2822TIP3    H2 8412   5.430   1.600   3.550
 2823TIP3   OH2 8413   4.891   1.388   2.382
 2823TIP3    H1 8414   4.936   1.371   2.467
 2823TIP3    H2 8415   4.828   1.313   2.380
 2824TIP3   OH2 8416   3.590   1.373   3.206
 2824TIP3    H1 8417   3.652   1.298   3.211
 2824TIP3    H2 8418   3.652   1.448   3.195
 2825TIP3   OH2 8419   3.390   1.646   3.278
 2825TIP3    H1 8420   3.438   1.639   3.193
 2825TIP3    H2 8421   3.408   1.737   3.302
 2826TIP3   OH2 8422   5.330   1.683   3.432
 2826TIP3    H1 8423   5.246   1.728   3.455
 2826TIP3    H2 8424   5.295   1.612   3.374
 2827TIP3   OH2 8425   4.968   1.317   2.021
 2827TIP3    H1 8426   5.006   1.250   1.961
 2827TIP3    H2 8427   5.033   1.390   2.013
 2828TIP3   OH2 8428   3.376   1.154   2.781
 2828TIP3    H1 8429   3.282   1.144   2.804
 2828TIP3    H2 8430   3.371   1.209   2.700
 2829TIP3   OH2 8431   4.535   2.854   2.283
 2829TIP3    H1 8432   4.587   2.845   2.201
 2829TIP3    H2 8433   4.585   2.921   2.332
 2830TIP3   OH2 8434   3.596   1.227   3.590
 2830TIP3    H1 8435   3.543   1.225   3.672
 2830TIP3    H2 8436   3.532   1.268   3.528
 2831TIP3   OH2 8437   3.635   2.631   3.678
 2831TIP3    H1 8438   3.538   2.618   3.669
 2831TIP3    H2 8439   3.642   2.674   3.764
 2832TIP3   OH2 8440   3.815   2.694   3.215
 2832TIP3    H1 8441   3.767   2.770   3.176
 2832TIP3    H2 8442   3.901   2.708   3.170
 2833TIP3   OH2 8443   4.254   2.933   3.349
 2833TIP3    H1 8444   4.295   2.934   3.439
 2833TIP3    H2 8445   4.319   2.987   3.299
 2834TIP3   OH2 8446   4.434   3.088   3.214
 2834TIP3    H1 8447   4.507   3.039   3.173
 2834TIP3    H2 8448   4.485   3.146   3.276
 2835TIP3   OH2 8449   5.232   1.448   3.311
 2835TIP3    H1 8450   5.141   1.442   3.275
 2835TIP3    H2 8451   5.262   1.355   3.301
 2836TIP3   OH2 8452   3.489   2.947   3.245
 2836TIP3    H1 8453   3.398   2.975   3.220
 2836TIP3    H2 8454   3.504   3.005   3.322
 2837TIP3   OH2 8455   3.724   2.925   3.099
 2837TIP3    H1 8456   3.637   2.938   3.143
 2837TIP3    H2 8457   3.705   2.958   3.008
 2838TIP3   OH2 8458   4.150   2.951   2.897
 2838TIP3    H1 8459   4.080   2.971   2.831
 2838TIP3    H2 8460   4.162   3.039   2.939
 2839TIP3   OH2 8461   4.420   2.890   2.948
 2839TIP3    H1 8462   4.326   2.909   2.929
 2839TIP3    H2 8463   4.464   2.965   2.906
 2840TIP3   OH2 8464   4.625   3.082   2.860
 2840TIP3    H1 8465   4.612   3.168   2.813
 2840TIP3    H2 8466   4.652   3.023   2.787
 2841TIP3   OH2 8467   3.404   2.745   2.981
 2841TIP3    H1 8468   3.425   2.713   3.071
 2841TIP3    H2 8469   3.475   2.698   2.930
 2842TIP3   OH2 8470   3.597   2.612   2.843
 2842TIP3    H1 8471   3.612   2.529   2.894
 2842TIP3    H2 8472   3.688   2.648   2.838
 2843TIP3   OH2 8473   3.864   2.706   2.847
 2843TIP3    H1 8474   3.894   2.614   2.835
 2843TIP3    H2 8475   3.911   2.728   2.930
 2844TIP3   OH2 8476   4.443   1.365   2.941
 2844TIP3    H1 8477   4.395   1.294   2.987
 2844TIP3    H2 8478   4.511   1.316   2.891
 2845TIP3   OH2 8479   4.958   1.242   2.836
 2845TIP3    H1 8480   4.993   1.295   2.761
 2845TIP3    H2 8481   4.862   1.262   2.831
 2846TIP3   OH2 8482   5.054   1.339   2.600
 2846TIP3    H1 8483   5.128   1.290   2.559
 2846TIP3    H2 8484   5.085   1.431   2.586
 2847TIP3   OH2 8485   3.684   1.072   2.947
 2847TIP3    H1 8486   3.591   1.041   2.947
 2847TIP3    H2 8487   3.731   0.986   2.940
 2848TIP3   OH2 8488   3.489   0.941   2.599
 2848TIP3    H1 8489   3.511   0.996   2.521
 2848TIP3    H2 8490   3.451   1.008   2.659
 2849TIP3   OH2 8491   4.136   1.097   2.829
 2849TIP3    H1 8492   4.189   1.148   2.765
 2849TIP3    H2 8493   4.150   1.147   2.910
 2850TIP3   OH2 8494   4.675   1.251   2.810
 2850TIP3    H1 8495   4.669   1.214   2.722
 2850TIP3    H2 8496   4.662   1.171   2.867
 2851TIP3   OH2 8497   4.706   1.177   2.375
 2851TIP3    H1 8498   4.621   1.222   2.391
 2851TIP3    H2 8499   4.689   1.090   2.418
 2852TIP3   OH2 8500   3.188   2.518   2.372
 2852TIP3    H1 8501   3.104   2.481   2.340
 2852TIP3    H2 8502   3.176   2.611   2.346
 2853TIP3   OH2 8503   3.595   1.094   2.380
 2853TIP3    H1 8504   3.628   1.039   2.306
 2853TIP3    H2 8505   3.674   1.147   2.402
 2854TIP3   OH2 8506   4.100   1.277   2.457
 2854TIP3    H1 8507   4.161   1.231   2.518
 2854TIP3    H2 8508   4.122   1.370   2.481
 2855TIP3   OH2 8509   3.961   2.697   1.956
 2855TIP3    H1 8510   4.049   2.720   1.919
 2855TIP3    H2 8511   3.938   2.623   1.896
 2856TIP3   OH2 8512   4.683   2.821   2.051
 2856TIP3    H1 8513   4.675   2.724   2.041
 2856TIP3    H2 8514   4.635   2.851   1.971
 2857TIP3   OH2 8515   3.891   1.351   3.839
 2857TIP3    H1 8516   3.856   1.280   3.896
 2857TIP3    H2 8517   3.985   1.352   3.867
 2858TIP3   OH2 8518   4.142   1.350   3.957
 2858TIP3    H1 8519   4.227   1.327   3.917
 2858TIP3    H2 8520   4.131   1.278   4.023
 2859TIP3   OH2 8521   3.269   2.545   2.013
 2859TIP3    H1 8522   3.267   2.550   2.109
 2859TIP3    H2 8523   3.353   2.496   1.997
 2860TIP3   OH2 8524   4.969   1.412   3.744
 2860TIP3    H1 8525   4.987   1.382   3.836
 2860TIP3    H2 8526   5.059   1.408   3.704
 2861TIP3   OH2 8527   4.905   2.963   3.235
 2861TIP3    H1 8528   4.825   2.933   3.186
 2861TIP3    H2 8529   4.886   3.059   3.242
 2862TIP3   OH2 8530   6.170   2.336   2.005
 2862TIP3    H1 8531   6.141   2.427   1.983
 2862TIP3    H2 8532   6.096   2.285   1.967
 2863TIP3   OH2 8533   6.175   2.338   2.387
 2863TIP3    H1 8534   6.207   2.312   2.475
 2863TIP3    H2 8535   6.132   2.257   2.356
 2864TIP3   OH2 8536   5.470   2.229   2.749
 2864TIP3    H1 8537   5.500   2.160   2.811
 2864TIP3    H2 8538   5.547   2.287   2.747
 2865TIP3   OH2 8539   6.419   2.640   2.068
 2865TIP3    H1 8540   6.399   2.573   2.135
 2865TIP3    H2 8541   6.447   2.716   2.121
 2866TIP3   OH2 8542   5.444   2.642   2.470
 2866TIP3    H1 8543   5.435   2.544   2.472
 2866TIP3    H2 8544   5.541   2.651   2.466
 2867TIP3   OH2 8545   5.150   1.841   2.255
 2867TIP3    H1 8546   5.102   1.924   2.275
 2867TIP3    H2 8547   5.078   1.791   2.210
 2868TIP3   OH2 8548   5.207   2.131   2.435
 2868TIP3    H1 8549   5.257   2.053   2.468
 2868TIP3    H2 8550   5.267   2.168   2.369
 2869TIP3   OH2 8551   6.068   3.102   2.085
 2869TIP3    H1 8552   6.109   3.030   2.033
 2869TIP3    H2 8553   6.057   3.061   2.171
 2870TIP3   OH2 8554   5.969   2.563   2.433
 2870TIP3    H1 8555   6.010   2.488   2.387
 2870TIP3    H2 8556   6.051   2.610   2.460
 2871TIP3   OH2 8557   6.986   1.882   2.431
 2871TIP3    H1 8558   7.015   1.965   2.472
 2871TIP3    H2 8559   7.009   1.897   2.337
 2872TIP3   OH2 8560   6.381   2.061   2.463
 2872TIP3    H1 8561   6.425   1.976   2.483
 2872TIP3    H2 8562   6.351   2.044   2.371
 2873TIP3   OH2 8563   5.726   1.722   2.428
 2873TIP3    H1 8564   5.704   1.796   2.367
 2873TIP3    H2 8565   5.676   1.649   2.384
 2874TIP3   OH2 8566   6.417   1.814   2.051
 2874TIP3    H1 8567   6.490   1.800   2.117
 2874TIP3    H2 8568   6.469   1.850   1.976
 2875TIP3   OH2 8569   5.354   1.924   2.537
 2875TIP3    H1 8570   5.437   1.906   2.585
 2875TIP3    H2 8571   5.369   1.869   2.457
 2876TIP3   OH2 8572   5.794   2.121   2.331
 2876TIP3    H1 8573   5.889   2.097   2.343
 2876TIP3    H2 8574   5.756   2.038   2.298
 2877TIP3   OH2 8575   7.060   2.092   2.599
 2877TIP3    H1 8576   6.975   2.137   2.578
 2877TIP3    H2 8577   7.071   2.118   2.692
 2878TIP3   OH2 8578   5.717   1.704   2.864
 2878TIP3    H1 8579   5.658   1.744   2.796
 2878TIP3    H2 8580   5.664   1.723   2.944
 2879TIP3   OH2 8581   6.054   2.552   1.876
 2879TIP3    H1 8582   6.023   2.544   1.784
 2879TIP3    H2 8583   6.013   2.638   1.901
 2880TIP3   OH2 8584   5.824   2.482   2.656
 2880TIP3    H1 8585   5.764   2.551   2.692
 2880TIP3    H2 8586   5.867   2.530   2.582
 2881TIP3   OH2 8587   6.623   1.818   2.230
 2881TIP3    H1 8588   6.603   1.783   2.318
 2881TIP3    H2 8589   6.675   1.898   2.252
 2882TIP3   OH2 8590   5.590   1.821   2.647
 2882TIP3    H1 8591   5.650   1.895   2.671
 2882TIP3    H2 8592   5.640   1.782   2.572
 2883TIP3   OH2 8593   5.654   2.679   2.755
 2883TIP3    H1 8594   5.629   2.766   2.720
 2883TIP3    H2 8595   5.575   2.661   2.810
 2884TIP3   OH2 8596   5.044   2.367   1.992
 2884TIP3    H1 8597   5.002   2.395   1.908
 2884TIP3    H2 8598   5.075   2.453   2.027
 2885TIP3   OH2 8599   6.485   2.884   2.231
 2885TIP3    H1 8600   6.396   2.875   2.271
 2885TIP3    H2 8601   6.476   2.970   2.187
 2886TIP3   OH2 8602   6.779   1.780   2.596
 2886TIP3    H1 8603   6.692   1.809   2.564
 2886TIP3    H2 8604   6.840   1.814   2.526
 2887TIP3   OH2 8605   6.072   1.448   2.573
 2887TIP3    H1 8606   6.075   1.360   2.613
 2887TIP3    H2 8607   5.993   1.486   2.619
 2888TIP3   OH2 8608   6.183   2.927   1.904
 2888TIP3    H1 8609   6.232   2.844   1.884
 2888TIP3    H2 8610   6.246   2.992   1.864
 2889TIP3   OH2 8611   6.327   2.711   1.816
 2889TIP3    H1 8612   6.311   2.630   1.766
 2889TIP3    H2 8613   6.364   2.677   1.900
 2890TIP3   OH2 8614   6.711   2.792   2.577
 2890TIP3    H1 8615   6.698   2.716   2.517
 2890TIP3    H2 8616   6.692   2.868   2.517
 2891TIP3   OH2 8617   6.007   2.187   1.831
 2891TIP3    H1 8618   5.926   2.240   1.815
 2891TIP3    H2 8619   6.051   2.193   1.744
 2892TIP3   OH2 8620   5.964   1.974   1.545
 2892TIP3    H1 8621   6.029   2.030   1.591
 2892TIP3    H2 8622   6.025   1.914   1.498
 2893TIP3   OH2 8623   6.907   2.435   2.425
 2893TIP3    H1 8624   6.822   2.484   2.428
 2893TIP3    H2 8625   6.936   2.458   2.334
 2894TIP3   OH2 8626   6.347   2.269   1.806
 2894TIP3    H1 8627   6.295   2.294   1.886
 2894TIP3    H2 8628   6.434   2.247   1.846
 2895TIP3   OH2 8629   6.585   2.308   2.722
 2895TIP3    H1 8630   6.582   2.391   2.773
 2895TIP3    H2 8631   6.498   2.313   2.676
 2896TIP3   OH2 8632   5.582   2.266   2.224
 2896TIP3    H1 8633   5.542   2.209   2.155
 2896TIP3    H2 8634   5.659   2.213   2.253
 2897TIP3   OH2 8635   5.713   2.680   2.370
 2897TIP3    H1 8636   5.693   2.645   2.281
 2897TIP3    H2 8637   5.802   2.643   2.387
 2898TIP3   OH2 8638   5.721   2.238   2.577
 2898TIP3    H1 8639   5.753   2.216   2.487
 2898TIP3    H2 8640   5.762   2.325   2.594
 2899TIP3   OH2 8641   6.246   2.877   2.354
 2899TIP3    H1 8642   6.231   2.958   2.406
 2899TIP3    H2 8643   6.227   2.806   2.419
 2900TIP3   OH2 8644   5.858   2.794   2.902
 2900TIP3    H1 8645   5.797   2.856   2.948
 2900TIP3    H2 8646   5.794   2.742   2.850
 2901TIP3   OH2 8647   6.203   2.136   1.615
 2901TIP3    H1 8648   6.252   2.190   1.681
 2901TIP3    H2 8649   6.266   2.140   1.541
 2902TIP3   OH2 8650   5.613   2.348   3.007
 2902TIP3    H1 8651   5.619   2.437   3.046
 2902TIP3    H2 8652   5.518   2.329   3.020
 2903TIP3   OH2 8653   5.937   2.805   1.907
 2903TIP3    H1 8654   6.019   2.857   1.915
 2903TIP3    H2 8655   5.876   2.869   1.866
 2904TIP3   OH2 8656   5.652   2.959   2.989
 2904TIP3    H1 8657   5.616   2.964   2.898
 2904TIP3    H2 8658   5.572   2.938   3.042
 2905TIP3   OH2 8659   6.705   1.364   1.681
 2905TIP3    H1 8660   6.624   1.389   1.729
 2905TIP3    H2 8661   6.723   1.446   1.630
 2906TIP3   OH2 8662   5.450   2.110   2.024
 2906TIP3    H1 8663   5.382   2.157   1.971
 2906TIP3    H2 8664   5.408   2.024   2.038
 2907TIP3   OH2 8665   6.507   2.733   1.229
 2907TIP3    H1 8666   6.515   2.830   1.216
 2907TIP3    H2 8667   6.600   2.706   1.218
 2908TIP3   OH2 8668   5.229   2.495   2.936
 2908TIP3    H1 8669   5.161   2.476   2.868
 2908TIP3    H2 8670   5.267   2.407   2.954
 2909TIP3   OH2 8671   5.084   2.688   2.567
 2909TIP3    H1 8672   5.181   2.686   2.560
 2909TIP3    H2 8673   5.070   2.767   2.621
 2910TIP3   OH2 8674   6.950   3.142   2.627
 2910TIP3    H1 8675   6.947   3.046   2.642
 2910TIP3    H2 8676   6.866   3.169   2.671
 2911TIP3   OH2 8677   6.054   2.923   2.759
 2911TIP3    H1 8678   6.051   3.016   2.790
 2911TIP3    H2 8679   5.983   2.883   2.813
 2912TIP3   OH2 8680   5.819   3.052   1.710
 2912TIP3    H1 8681   5.770   3.036   1.628
 2912TIP3    H2 8682   5.784   3.139   1.738
 2913TIP3   OH2 8683   5.254   2.901   2.096
 2913TIP3    H1 8684   5.301   2.893   2.182
 2913TIP3    H2 8685   5.201   2.820   2.096
 2914TIP3   OH2 8686   6.018   2.954   1.347
 2914TIP3    H1 8687   6.077   2.883   1.313
 2914TIP3    H2 8688   6.052   2.965   1.438
 2915TIP3   OH2 8689   6.069   3.004   1.616
 2915TIP3    H1 8690   5.981   3.014   1.659
 2915TIP3    H2 8691   6.120   2.965   1.689
 2916TIP3   OH2 8692   6.838   2.270   2.899
 2916TIP3    H1 8693   6.754   2.281   2.852
 2916TIP3    H2 8694   6.854   2.174   2.888
 2917TIP3   OH2 8695   5.435   2.676   2.918
 2917TIP3    H1 8696   5.482   2.663   3.002
 2917TIP3    H2 8697   5.359   2.615   2.927
 2918TIP3   OH2 8698   5.834   1.501   2.708
 2918TIP3    H1 8699   5.744   1.472   2.681
 2918TIP3    H2 8700   5.809   1.584   2.755
 2919TIP3   OH2 8701   6.372   1.612   2.905
 2919TIP3    H1 8702   6.443   1.587   2.968
 2919TIP3    H2 8703   6.290   1.596   2.956
 2920TIP3   OH2 8704   6.604   2.045   2.821
 2920TIP3    H1 8705   6.554   2.042   2.905
 2920TIP3    H2 8706   6.582   2.133   2.785
 2921TIP3   OH2 8707   5.979   1.547   1.680
 2921TIP3    H1 8708   5.943   1.544   1.770
 2921TIP3    H2 8709   5.939   1.466   1.643
 2922TIP3   OH2 8710   5.766   2.017   2.727
 2922TIP3    H1 8711   5.716   2.038   2.808
 2922TIP3    H2 8712   5.751   2.098   2.674
 2923TIP3   OH2 8713   5.651   1.902   2.241
 2923TIP3    H1 8714   5.557   1.878   2.259
 2923TIP3    H2 8715   5.661   1.862   2.151
 2924TIP3   OH2 8716   6.140   1.986   1.967
 2924TIP3    H1 8717   6.090   2.059   1.924
 2924TIP3    H2 8718   6.197   1.956   1.893
 2925TIP3   OH2 8719   6.315   2.262   3.051
 2925TIP3    H1 8720   6.293   2.191   3.114
 2925TIP3    H2 8721   6.408   2.279   3.075
 2926TIP3   OH2 8722   6.294   2.015   2.206
 2926TIP3    H1 8723   6.234   2.045   2.136
 2926TIP3    H2 8724   6.329   1.935   2.161
 2927TIP3   OH2 8725   5.586   2.045   2.934
 2927TIP3    H1 8726   5.610   2.112   3.000
 2927TIP3    H2 8727   5.574   1.965   2.989
 2928TIP3   OH2 8728   5.636   1.524   1.646
 2928TIP3    H1 8729   5.623   1.524   1.743
 2928TIP3    H2 8730   5.559   1.577   1.617
 2929TIP3   OH2 8731   5.177   1.563   2.519
 2929TIP3    H1 8732   5.253   1.598   2.571
 2929TIP3    H2 8733   5.217   1.539   2.434
 2930TIP3   OH2 8734   5.145   1.548   2.035
 2930TIP3    H1 8735   5.188   1.585   1.956
 2930TIP3    H2 8736   5.083   1.621   2.055
 2931TIP3   OH2 8737   6.306   2.260   2.628
 2931TIP3    H1 8738   6.340   2.188   2.569
 2931TIP3    H2 8739   6.276   2.206   2.704
 2932TIP3   OH2 8740   5.980   1.713   2.300
 2932TIP3    H1 8741   5.898   1.721   2.352
 2932TIP3    H2 8742   6.049   1.726   2.368
 2933TIP3   OH2 8743   5.410   1.783   2.308
 2933TIP3    H1 8744   5.316   1.793   2.280
 2933TIP3    H2 8745   5.430   1.691   2.284
 2934TIP3   OH2 8746   5.677   1.774   1.999
 2934TIP3    H1 8747   5.770   1.793   1.976
 2934TIP3    H2 8748   5.628   1.798   1.917
 2935TIP3   OH2 8749   6.470   1.800   2.501
 2935TIP3    H1 8750   6.441   1.813   2.595
 2935TIP3    H2 8751   6.398   1.743   2.469
 2936TIP3   OH2 8752   5.528   1.809   1.775
 2936TIP3    H1 8753   5.456   1.765   1.726
 2936TIP3    H2 8754   5.579   1.848   1.702
 2937TIP3   OH2 8755   6.644   3.488   2.724
 2937TIP3    H1 8756   6.639   3.516   2.631
 2937TIP3    H2 8757   6.721   3.539   2.756
 2938TIP3   OH2 8758   5.598   2.597   3.143
 2938TIP3    H1 8759   5.677   2.629   3.191
 2938TIP3    H2 8760   5.532   2.599   3.215
 2939TIP3   OH2 8761   6.058   2.050   2.396
 2939TIP3    H1 8762   6.137   2.019   2.349
 2939TIP3    H2 8763   6.069   2.009   2.484
 2940TIP3   OH2 8764   5.583   1.539   2.281
 2940TIP3    H1 8765   5.544   1.462   2.327
 2940TIP3    H2 8766   5.611   1.500   2.197
 2941TIP3   OH2 8767   6.036   1.952   2.691
 2941TIP3    H1 8768   5.946   1.989   2.703
 2941TIP3    H2 8769   6.093   2.015   2.739
 2942TIP3   OH2 8770   5.774   2.338   1.783
 2942TIP3    H1 8771   5.701   2.275   1.771
 2942TIP3    H2 8772   5.754   2.374   1.873
 2943TIP3   OH2 8773   6.672   2.576   2.410
 2943TIP3    H1 8774   6.694   2.628   2.330
 2943TIP3    H2 8775   6.586   2.534   2.384
 2944TIP3   OH2 8776   6.232   1.649   1.658
 2944TIP3    H1 8777   6.135   1.632   1.660
 2944TIP3    H2 8778   6.239   1.745   1.674
 2945TIP3   OH2 8779   6.170   2.658   2.782
 2945TIP3    H1 8780   6.201   2.644   2.872
 2945TIP3    H2 8781   6.132   2.748   2.786
 2946TIP3   OH2 8782   6.299   1.906   1.749
 2946TIP3    H1 8783   6.396   1.909   1.764
 2946TIP3    H2 8784   6.288   1.981   1.687
 2947TIP3   OH2 8785   5.466   2.364   2.458
 2947TIP3    H1 8786   5.504   2.335   2.373
 2947TIP3    H2 8787   5.509   2.304   2.521
 2948TIP3   OH2 8788   5.918   2.490   1.604
 2948TIP3    H1 8789   5.869   2.575   1.609
 2948TIP3    H2 8790   5.865   2.435   1.667
 2949TIP3   OH2 8791   5.350   2.280   3.071
 2949TIP3    H1 8792   5.365   2.267   3.167
 2949TIP3    H2 8793   5.277   2.217   3.055
 2950TIP3   OH2 8794   6.074   2.399   3.092
 2950TIP3    H1 8795   6.013   2.339   3.046
 2950TIP3    H2 8796   6.161   2.363   3.062
 2951TIP3   OH2 8797   6.331   2.916   2.679
 2951TIP3    H1 8798   6.234   2.917   2.692
 2951TIP3    H2 8799   6.360   2.969   2.756
 2952TIP3   OH2 8800   6.730   1.978   1.580
 2952TIP3    H1 8801   6.662   1.930   1.530
 2952TIP3    H2 8802   6.695   2.066   1.558
 2953TIP3   OH2 8803   6.961   2.851   2.665
 2953TIP3    H1 8804   6.864   2.845   2.657
 2953TIP3    H2 8805   6.987   2.820   2.575
 2954TIP3   OH2 8806   6.445   2.810   1.495
 2954TIP3    H1 8807   6.420   2.740   1.557
 2954TIP3    H2 8808   6.455   2.762   1.411
 2955TIP3   OH2 8809   6.438   2.440   2.328
 2955TIP3    H1 8810   6.345   2.417   2.341
 2955TIP3    H2 8811   6.470   2.359   2.282
 2956TIP3   OH2 8812   5.568   2.668   2.084
 2956TIP3    H1 8813   5.565   2.749   2.029
 2956TIP3    H2 8814   5.475   2.651   2.098
 2957TIP3   OH2 8815   5.134   1.970   1.793
 2957TIP3    H1 8816   5.176   2.056   1.813
 2957TIP3    H2 8817   5.055   1.974   1.851
 2958TIP3   OH2 8818   5.698   2.430   2.026
 2958TIP3    H1 8819   5.666   2.521   2.044
 2958TIP3    H2 8820   5.663   2.381   2.102
 2959TIP3   OH2 8821   5.837   3.010   2.551
 2959TIP3    H1 8822   5.879   3.084   2.502
 2959TIP3    H2 8823   5.914   2.974   2.600
 2960TIP3   OH2 8824   5.484   2.907   1.935
 2960TIP3    H1 8825   5.399   2.915   1.983
 2960TIP3    H2 8826   5.517   2.999   1.939
 2961TIP3   OH2 8827   6.220   2.644   2.514
 2961TIP3    H1 8828   6.210   2.643   2.611
 2961TIP3    H2 8829   6.301   2.593   2.503
 2962TIP3   OH2 8830   6.204   2.538   1.394
 2962TIP3    H1 8831   6.259   2.516   1.473
 2962TIP3    H2 8832   6.116   2.514   1.427
 2963TIP3   OH2 8833   6.472   3.174   2.560
 2963TIP3    H1 8834   6.391   3.121   2.554
 2963TIP3    H2 8835   6.456   3.240   2.489
 2964TIP3   OH2 8836   6.539   3.012   1.214
 2964TIP3    H1 8837   6.577   3.088   1.168
 2964TIP3    H2 8838   6.457   3.054   1.248
 2965TIP3   OH2 8839   5.555   1.786   3.078
 2965TIP3    H1 8840   5.459   1.792   3.091
 2965TIP3    H2 8841   5.583   1.733   3.154
 2966TIP3   OH2 8842   6.357   2.480   1.618
 2966TIP3    H1 8843   6.348   2.405   1.681
 2966TIP3    H2 8844   6.454   2.476   1.601
 2967TIP3   OH2 8845   5.275   2.871   2.709
 2967TIP3    H1 8846   5.330   2.802   2.749
 2967TIP3    H2 8847   5.297   2.947   2.765
 2968TIP3   OH2 8848   5.562   2.519   1.395
 2968TIP3    H1 8849   5.577   2.426   1.369
 2968TIP3    H2 8850   5.542   2.509   1.490
 2969TIP3   OH2 8851   5.508   2.524   1.667
 2969TIP3    H1 8852   5.582   2.497   1.723
 2969TIP3    H2 8853   5.511   2.622   1.675
 2970TIP3   OH2 8854   5.242   2.216   1.872
 2970TIP3    H1 8855   5.175   2.261   1.928
 2970TIP3    H2 8856   5.255   2.284   1.803
 2971TIP3   OH2 8857   6.400   1.848   2.761
 2971TIP3    H1 8858   6.477   1.891   2.802
 2971TIP3    H2 8859   6.388   1.769   2.818
 2972TIP3   OH2 8860   6.278   1.598   1.933
 2972TIP3    H1 8861   6.262   1.620   1.839
 2972TIP3    H2 8862   6.316   1.682   1.967
 2973TIP3   OH2 8863   5.775   2.719   1.614
 2973TIP3    H1 8864   5.688   2.743   1.652
 2973TIP3    H2 8865   5.791   2.796   1.557
 2974TIP3   OH2 8866   5.962   1.784   2.030
 2974TIP3    H1 8867   6.025   1.857   2.011
 2974TIP3    H2 8868   5.969   1.777   2.128
 2975TIP3   OH2 8869   6.234   2.099   2.836
 2975TIP3    H1 8870   6.256   2.155   2.914
 2975TIP3    H2 8871   6.287   2.020   2.851
 2976TIP3   OH2 8872   6.105   1.501   2.130
 2976TIP3    H1 8873   6.092   1.580   2.186
 2976TIP3    H2 8874   6.168   1.538   2.063
 2977TIP3   OH2 8875   5.521   2.796   1.685
 2977TIP3    H1 8876   5.491   2.866   1.624
 2977TIP3    H2 8877   5.505   2.838   1.772
 2978TIP3   OH2 8878   5.619   1.510   1.924
 2978TIP3    H1 8879   5.616   1.602   1.957
 2978TIP3    H2 8880   5.716   1.495   1.929
 2979TIP3   OH2 8881   6.871   2.003   2.817
 2979TIP3    H1 8882   6.773   2.002   2.827
 2979TIP3    H2 8883   6.880   1.956   2.733
 2980TIP3   OH2 8884   6.523   2.196   2.206
 2980TIP3    H1 8885   6.447   2.137   2.218
 2980TIP3    H2 8886   6.594   2.148   2.255
 2981TIP3   OH2 8887   5.238   2.420   1.675
 2981TIP3    H1 8888   5.308   2.488   1.685
 2981TIP3    H2 8889   5.281   2.363   1.608
 2982TIP3   OH2 8890   5.178   1.699   1.810
 2982TIP3    H1 8891   5.180   1.797   1.809
 2982TIP3    H2 8892   5.097   1.681   1.761
 2983TIP3   OH2 8893   6.493   3.154   2.153
 2983TIP3    H1 8894   6.450   3.201   2.078
 2983TIP3    H2 8895   6.588   3.173   2.133
 2984TIP3   OH2 8896   5.572   1.420   2.678
 2984TIP3    H1 8897   5.538   1.388   2.592
 2984TIP3    H2 8898   5.557   1.343   2.736
 2985TIP3   OH2 8899   5.103   2.636   2.059
 2985TIP3    H1 8900   5.041   2.668   2.126
 2985TIP3    H2 8901   5.068   2.681   1.978
 2986TIP3   OH2 8902   5.268   3.187   3.132
 2986TIP3    H1 8903   5.353   3.190   3.181
 2986TIP3    H2 8904   5.248   3.092   3.134
 2987TIP3   OH2 8905   5.742   3.141   3.182
 2987TIP3    H1 8906   5.838   3.129   3.185
 2987TIP3    H2 8907   5.718   3.080   3.109
 2988TIP3   OH2 8908   5.726   2.720   1.304
 2988TIP3    H1 8909   5.670   2.649   1.343
 2988TIP3    H2 8910   5.802   2.668   1.274
 2989TIP3   OH2 8911   6.386   3.051   2.911
 2989TIP3    H1 8912   6.379   2.983   2.982
 2989TIP3    H2 8913   6.461   3.105   2.943
 2990TIP3   OH2 8914   6.164   2.754   1.221
 2990TIP3    H1 8915   6.199   2.684   1.281
 2990TIP3    H2 8916   6.226   2.750   1.146
 2991TIP3   OH2 8917   5.395   2.588   3.334
 2991TIP3    H1 8918   5.409   2.492   3.341
 2991TIP3    H2 8919   5.308   2.592   3.289
 2992TIP3   OH2 8920   5.374   2.235   1.530
 2992TIP3    H1 8921   5.431   2.206   1.604
 2992TIP3    H2 8922   5.440   2.241   1.458
 2993TIP3   OH2 8923   6.002   2.676   3.108
 2993TIP3    H1 8924   5.960   2.697   3.023
 2993TIP3    H2 8925   6.032   2.584   3.096
 2994TIP3   OH2 8926   5.886   2.437   1.336
 2994TIP3    H1 8927   5.888   2.449   1.433
 2994TIP3    H2 8928   5.890   2.339   1.329
 2995TIP3   OH2 8929   6.494   2.686   2.716
 2995TIP3    H1 8930   6.570   2.729   2.672
 2995TIP3    H2 8931   6.425   2.753   2.701
 2996TIP3   OH2 8932   5.515   2.323   3.320
 2996TIP3    H1 8933   5.594   2.276   3.292
 2996TIP3    H2 8934   5.543   2.358   3.408
 2997TIP3   OH2 8935   5.578   2.144   1.748
 2997TIP3    H1 8936   5.550   2.104   1.832
 2997TIP3    H2 8937   5.616   2.068   1.700
 2998TIP3   OH2 8938   5.851   2.207   2.978
 2998TIP3    H1 8939   5.773   2.265   2.979
 2998TIP3    H2 8940   5.901   2.242   2.901
 2999TIP3   OH2 8941   5.684   1.938   1.590
 2999TIP3    H1 8942   5.658   1.946   1.496
 2999TIP3    H2 8943   5.782   1.940   1.582
 3000TIP3   OH2 8944   6.366   2.608   3.112
 3000TIP3    H1 8945   6.445   2.579   3.064
 3000TIP3    H2 8946   6.361   2.544   3.185
 3001TIP3   OH2 8947   5.974   1.997   3.102
 3001TIP3    H1 8948   5.974   1.919   3.044
 3001TIP3    H2 8949   5.930   2.065   3.046
 3002TIP3   OH2 8950   5.976   1.780   2.912
 3002TIP3    H1 8951   6.004   1.826   2.830
 3002TIP3    H2 8952   5.882   1.761   2.893
 3003TIP3   OH2 8953   5.999   2.316   2.784
 3003TIP3    H1 8954   6.085   2.334   2.744
 3003TIP3    H2 8955   5.942   2.382   2.739
 3004TIP3   OH2 8956   6.581   2.282   3.163
 3004TIP3    H1 8957   6.631   2.200   3.177
 3004TIP3    H2 8958   6.649   2.342   3.128
 3005TIP3   OH2 8959   6.624   2.537   2.900
 3005TIP3    H1 8960   6.566   2.592   2.843
 3005TIP3    H2 8961   6.711   2.559   2.861
 3006TIP3   OH2 8962   5.853   2.102   3.338
 3006TIP3    H1 8963   5.784   2.034   3.353
 3006TIP3    H2 8964   5.885   2.078   3.249
 3007TIP3   OH2 8965   6.106   1.543   2.981
 3007TIP3    H1 8966   6.058   1.625   2.958
 3007TIP3    H2 8967   6.037   1.475   2.970
 3008TIP3   OH2 8968   6.234   2.046   3.196
 3008TIP3    H1 8969   6.220   2.033   3.292
 3008TIP3    H2 8970   6.144   2.024   3.164
 3009TIP3   OH2 8971   6.471   1.995   3.050
 3009TIP3    H1 8972   6.397   1.999   3.114
 3009TIP3    H2 8973   6.546   1.968   3.106
 3010TIP3   OH2 8974   6.702   1.941   3.199
 3010TIP3    H1 8975   6.714   1.845   3.215
 3010TIP3    H2 8976   6.697   1.977   3.290
 3011TIP3   OH2 8977   5.689   1.882   3.391
 3011TIP3    H1 8978   5.696   1.791   3.359
 3011TIP3    H2 8979   5.727   1.873   3.481
 3012TIP3   OH2 8980   6.200   1.554   3.240
 3012TIP3    H1 8981   6.268   1.484   3.234
 3012TIP3    H2 8982   6.161   1.548   3.150
 3013TIP3   OH2 8983   6.267   1.769   3.398
 3013TIP3    H1 8984   6.246   1.698   3.334
 3013TIP3    H2 8985   6.189   1.828   3.391
 3014TIP3   OH2 8986   5.491   3.000   1.497
 3014TIP3    H1 8987   5.586   2.990   1.477
 3014TIP3    H2 8988   5.463   3.051   1.419
 3015TIP3   OH2 8989   4.968   2.381   1.710
 3015TIP3    H1 8990   5.064   2.401   1.696
 3015TIP3    H2 8991   4.962   2.292   1.669
 3016TIP3   OH2 8992   4.887   2.992   2.128
 3016TIP3    H1 8993   4.820   2.932   2.089
 3016TIP3    H2 8994   4.930   2.932   2.192
 3017TIP3   OH2 8995   5.021   2.838   2.313
 3017TIP3    H1 8996   5.006   2.769   2.381
 3017TIP3    H2 8997   5.072   2.902   2.366
 3018TIP3   OH2 8998   6.750   3.239   2.115
 3018TIP3    H1 8999   6.772   3.273   2.203
 3018TIP3    H2 9000   6.811   3.287   2.058
 3019TIP3   OH2 9001   6.774   3.263   2.396
 3019TIP3    H1 9002   6.730   3.175   2.393
 3019TIP3    H2 9003   6.849   3.241   2.454
 3020TIP3   OH2 9004   6.823   2.939   2.970
 3020TIP3    H1 9005   6.751   2.949   3.035
 3020TIP3    H2 9006   6.865   3.028   2.973
 3021TIP3   OH2 9007   6.631   2.473   1.597
 3021TIP3    H1 9008   6.706   2.523   1.562
 3021TIP3    H2 9009   6.676   2.411   1.658
 3022TIP3   OH2 9010   6.769   2.312   1.785
 3022TIP3    H1 9011   6.697   2.276   1.841
 3022TIP3    H2 9012   6.824   2.359   1.850
 3023TIP3   OH2 9013   6.825   2.716   2.226
 3023TIP3    H1 9014   6.875   2.648   2.177
 3023TIP3    H2 9015   6.819   2.788   2.160
 3024TIP3   OH2 9016   6.650   3.012   2.419
 3024TIP3    H1 9017   6.579   3.056   2.469
 3024TIP3    H2 9018   6.600   2.968   2.347
 3025TIP3   OH2 9019   6.580   2.181   1.936
 3025TIP3    H1 9020   6.583   2.084   1.929
 3025TIP3    H2 9021   6.565   2.194   2.033
 3026TIP3   OH2 9022   5.205   2.247   2.687
 3026TIP3    H1 9023   5.201   2.216   2.595
 3026TIP3    H2 9024   5.302   2.250   2.702
 3027TIP3   OH2 9025   6.870   2.603   2.796
 3027TIP3    H1 9026   6.941   2.537   2.783
 3027TIP3    H2 9027   6.893   2.672   2.731
 3028TIP3   OH2 9028   7.053   2.404   2.801
 3028TIP3    H1 9029   6.978   2.357   2.843
 3028TIP3    H2 9030   7.126   2.340   2.821
 3029TIP3   OH2 9031   6.528   1.606   1.357
 3029TIP3    H1 9032   6.590   1.606   1.432
 3029TIP3    H2 9033   6.444   1.578   1.396
 3030TIP3   OH2 9034   6.576   1.895   1.835
 3030TIP3    H1 9035   6.619   1.807   1.847
 3030TIP3    H2 9036   6.628   1.929   1.761
 3031TIP3   OH2 9037   6.736   2.063   2.327
 3031TIP3    H1 9038   6.821   2.088   2.286
 3031TIP3    H2 9039   6.750   2.102   2.416
 3032TIP3   OH2 9040   6.808   2.212   2.556
 3032TIP3    H1 9041   6.731   2.245   2.606
 3032TIP3    H2 9042   6.841   2.294   2.513
 3033TIP3   OH2 9043   5.422   1.933   3.355
 3033TIP3    H1 9044   5.520   1.930   3.362
 3033TIP3    H2 9045   5.399   1.848   3.397
 3034TIP3   OH2 9046   7.264   1.814   3.111
 3034TIP3    H1 9047   7.320   1.745   3.070
 3034TIP3    H2 9048   7.228   1.861   3.033
 3035TIP3   OH2 9049   6.688   1.645   1.867
 3035TIP3    H1 9050   6.736   1.629   1.951
 3035TIP3    H2 9051   6.626   1.569   1.866
 3036TIP3   OH2 9052   5.387   1.629   2.688
 3036TIP3    H1 9053   5.450   1.556   2.697
 3036TIP3    H2 9054   5.447   1.705   2.681
 3037TIP3   OH2 9055   5.186   1.900   2.763
 3037TIP3    H1 9056   5.235   1.900   2.679
 3037TIP3    H2 9057   5.208   1.987   2.798
 3038TIP3   OH2 9058   7.127   1.941   2.915
 3038TIP3    H1 9059   7.042   1.983   2.939
 3038TIP3    H2 9060   7.093   1.868   2.858
 3039TIP3   OH2 9061   6.769   1.574   1.512
 3039TIP3    H1 9062   6.802   1.507   1.449
 3039TIP3    H2 9063   6.834   1.646   1.502
 3040TIP3   OH2 9064   5.172   1.405   2.263
 3040TIP3    H1 9065   5.079   1.400   2.292
 3040TIP3    H2 9066   5.166   1.465   2.185
 3041TIP3   OH2 9067   6.329   3.111   1.769
 3041TIP3    H1 9068   6.383   3.101   1.687
 3041TIP3    H2 9069   6.381   3.177   1.819
 3042TIP3   OH2 9070   5.390   1.478   3.073
 3042TIP3    H1 9071   5.342   1.481   3.158
 3042TIP3    H2 9072   5.326   1.523   3.014
 3043TIP3   OH2 9073   5.432   2.911   3.152
 3043TIP3    H1 9074   5.337   2.891   3.138
 3043TIP3    H2 9075   5.440   2.901   3.248
 3044TIP3   OH2 9076   5.612   2.949   2.701
 3044TIP3    H1 9077   5.563   3.025   2.663
 3044TIP3    H2 9078   5.697   2.964   2.656
 3045TIP3   OH2 9079   6.051   3.189   2.837
 3045TIP3    H1 9080   6.092   3.190   2.926
 3045TIP3    H2 9081   6.116   3.243   2.787
 3046TIP3   OH2 9082   6.231   3.345   2.701
 3046TIP3    H1 9083   6.302   3.295   2.659
 3046TIP3    H2 9084   6.282   3.403   2.762
 3047TIP3   OH2 9085   7.026   1.705   2.798
 3047TIP3    H1 9086   6.935   1.694   2.765
 3047TIP3    H2 9087   7.061   1.613   2.788
 3048TIP3   OH2 9088   5.285   3.203   2.728
 3048TIP3    H1 9089   5.194   3.234   2.706
 3048TIP3    H2 9090   5.300   3.253   2.810
 3049TIP3   OH2 9091   5.521   3.182   2.585
 3049TIP3    H1 9092   5.434   3.194   2.629
 3049TIP3    H2 9093   5.502   3.215   2.495
 3050TIP3   OH2 9094   5.947   3.209   2.383
 3050TIP3    H1 9095   5.877   3.228   2.318
 3050TIP3    H2 9096   5.959   3.296   2.425
 3051TIP3   OH2 9097   6.217   3.147   2.435
 3051TIP3    H1 9098   6.123   3.166   2.416
 3051TIP3    H2 9099   6.261   3.222   2.392
 3052TIP3   OH2 9100   6.421   3.339   2.347
 3052TIP3    H1 9101   6.408   3.424   2.300
 3052TIP3    H2 9102   6.448   3.280   2.274
 3053TIP3   OH2 9103   5.197   2.997   2.469
 3053TIP3    H1 9104   5.222   2.969   2.559
 3053TIP3    H2 9105   5.270   2.953   2.418
 3054TIP3   OH2 9106   5.393   2.869   2.329
 3054TIP3    H1 9107   5.407   2.786   2.379
 3054TIP3    H2 9108   5.484   2.905   2.326
 3055TIP3   OH2 9109   5.660   2.962   2.335
 3055TIP3    H1 9110   5.689   2.869   2.325
 3055TIP3    H2 9111   5.707   2.985   2.417
 3056TIP3   OH2 9112   6.241   1.628   2.420
 3056TIP3    H1 9113   6.190   1.558   2.466
 3056TIP3    H2 9114   6.312   1.578   2.376
 3057TIP3   OH2 9115   6.750   1.497   2.318
 3057TIP3    H1 9116   6.789   1.550   2.245
 3057TIP3    H2 9117   6.657   1.526   2.316
 3058TIP3   OH2 9118   6.850   1.599   2.086
 3058TIP3    H1 9119   6.925   1.548   2.049
 3058TIP3    H2 9120   6.883   1.690   2.072
 3059TIP3   OH2 9121   5.482   1.325   2.432
 3059TIP3    H1 9122   5.388   1.295   2.435
 3059TIP3    H2 9123   5.527   1.239   2.425
 3060TIP3   OH2 9124   5.279   1.200   2.087
 3060TIP3    H1 9125   5.301   1.255   2.010
 3060TIP3    H2 9126   5.244   1.266   2.150
 3061TIP3   OH2 9127   5.941   1.352   2.317
 3061TIP3    H1 9128   5.985   1.404   2.247
 3061TIP3    H2 9129   5.942   1.416   2.390
 3062TIP3   OH2 9130   6.461   1.503   2.300
 3062TIP3    H1 9131   6.471   1.467   2.211
 3062TIP3    H2 9132   6.450   1.421   2.354
 3063TIP3   OH2 9133   6.503   1.434   1.860
 3063TIP3    H1 9134   6.417   1.479   1.875
 3063TIP3    H2 9135   6.486   1.348   1.905
 3064TIP3   OH2 9136   4.985   2.773   1.858
 3064TIP3    H1 9137   4.899   2.740   1.827
 3064TIP3    H2 9138   4.976   2.867   1.835
 3065TIP3   OH2 9139   5.387   1.354   1.846
 3065TIP3    H1 9140   5.434   1.292   1.786
 3065TIP3    H2 9141   5.461   1.408   1.880
 3066TIP3   OH2 9142   5.896   1.534   1.945
 3066TIP3    H1 9143   5.962   1.490   2.002
 3066TIP3    H2 9144   5.915   1.628   1.968
 3067TIP3   OH2 9145   5.758   2.953   1.443
 3067TIP3    H1 9146   5.846   2.976   1.407
 3067TIP3    H2 9147   5.735   2.879   1.383
 3068TIP3   OH2 9148   6.478   3.077   1.538
 3068TIP3    H1 9149   6.470   2.979   1.528
 3068TIP3    H2 9150   6.431   3.107   1.457
 3069TIP3   OH2 9151   5.689   1.605   3.322
 3069TIP3    H1 9152   5.652   1.537   3.381
 3069TIP3    H2 9153   5.782   1.606   3.352
 3070TIP3   OH2 9154   5.938   1.605   3.443
 3070TIP3    H1 9155   6.024   1.582   3.406
 3070TIP3    H2 9156   5.927   1.534   3.510
 3071TIP3   OH2 9157   5.060   2.793   1.498
 3071TIP3    H1 9158   5.061   2.812   1.592
 3071TIP3    H2 9159   5.148   2.751   1.484
 3072TIP3   OH2 9160   6.759   1.670   3.234
 3072TIP3    H1 9161   6.782   1.635   3.323
 3072TIP3    H2 9162   6.848   1.671   3.190
 3073TIP3   OH2 9163   6.701   3.219   2.722
 3073TIP3    H1 9164   6.622   3.189   2.673
 3073TIP3    H2 9165   6.682   3.315   2.729
 3074TIP3   OH2 9166   7.267   2.484   2.232
 3074TIP3    H1 9167   7.292   2.415   2.296
 3074TIP3    H2 9168   7.341   2.546   2.241
 3075TIP3   OH2 9169   7.237   2.901   1.960
 3075TIP3    H1 9170   7.230   2.803   1.962
 3075TIP3    H2 9171   7.333   2.911   1.951
 3076TIP3   OH2 9172   6.945   2.096   1.736
 3076TIP3    H1 9173   6.895   2.178   1.758
 3076TIP3    H2 9174   6.873   2.042   1.698
 3077TIP3   OH2 9175   7.004   2.389   1.923
 3077TIP3    H1 9176   7.053   2.311   1.956
 3077TIP3    H2 9177   7.059   2.417   1.849
 3078TIP3   OH2 9178   7.873   3.317   1.552
 3078TIP3    H1 9179   7.968   3.293   1.551
 3078TIP3    H2 9180   7.861   3.333   1.647
 3079TIP3   OH2 9181   7.780   2.800   1.922
 3079TIP3    H1 9182   7.784   2.782   1.827
 3079TIP3    H2 9183   7.855   2.862   1.936
 3080TIP3   OH2 9184   7.500   1.981   1.928
 3080TIP3    H1 9185   7.505   2.047   1.857
 3080TIP3    H2 9186   7.462   1.905   1.879
 3081TIP3   OH2 9187   7.151   2.181   2.022
 3081TIP3    H1 9188   7.231   2.160   2.074
 3081TIP3    H2 9189   7.167   2.125   1.943
 3082TIP3   OH2 9190   7.577   2.380   1.813
 3082TIP3    H1 9191   7.668   2.346   1.827
 3082TIP3    H2 9192   7.532   2.298   1.783
 3083TIP3   OH2 9193   7.516   1.970   2.361
 3083TIP3    H1 9194   7.458   2.004   2.290
 3083TIP3    H2 9195   7.460   1.987   2.439
 3084TIP3   OH2 9196   7.623   2.737   2.155
 3084TIP3    H1 9197   7.560   2.804   2.188
 3084TIP3    H2 9198   7.668   2.785   2.083
 3085TIP3   OH2 9199   7.379   2.080   2.146
 3085TIP3    H1 9200   7.443   2.152   2.165
 3085TIP3    H2 9201   7.424   2.038   2.068
 3086TIP3   OH2 9202   7.452   2.934   2.243
 3086TIP3    H1 9203   7.427   3.022   2.206
 3086TIP3    H2 9204   7.371   2.916   2.296
 3087TIP3   OH2 9205   6.846   2.623   1.477
 3087TIP3    H1 9206   6.797   2.653   1.399
 3087TIP3    H2 9207   6.875   2.708   1.516
 3088TIP3   OH2 9208   7.366   2.524   1.708
 3088TIP3    H1 9209   7.330   2.467   1.637
 3088TIP3    H2 9210   7.445   2.473   1.737
 3089TIP3   OH2 9211   7.498   2.939   1.854
 3089TIP3    H1 9212   7.474   2.908   1.764
 3089TIP3    H2 9213   7.582   2.896   1.870
 3090TIP3   OH2 9214   7.523   2.493   2.064
 3090TIP3    H1 9215   7.544   2.473   1.971
 3090TIP3    H2 9216   7.557   2.583   2.077
 3091TIP3   OH2 9217   7.650   3.045   2.400
 3091TIP3    H1 9218   7.589   3.111   2.440
 3091TIP3    H2 9219   7.587   2.996   2.345
 3092TIP3   OH2 9220   7.403   2.612   2.491
 3092TIP3    H1 9221   7.406   2.700   2.533
 3092TIP3    H2 9222   7.309   2.589   2.508
 3093TIP3   OH2 9223   7.742   3.103   1.427
 3093TIP3    H1 9224   7.770   3.190   1.460
 3093TIP3    H2 9225   7.682   3.127   1.354
 3094TIP3   OH2 9226   7.447   3.216   2.476
 3094TIP3    H1 9227   7.411   3.222   2.385
 3094TIP3    H2 9228   7.367   3.195   2.528
 3095TIP3   OH2 9229   7.248   2.365   1.506
 3095TIP3    H1 9230   7.178   2.410   1.453
 3095TIP3    H2 9231   7.201   2.285   1.533
 3096TIP3   OH2 9232   7.026   2.752   2.422
 3096TIP3    H1 9233   6.957   2.734   2.355
 3096TIP3    H2 9234   7.062   2.663   2.441
 3097TIP3   OH2 9235   6.880   2.945   2.053
 3097TIP3    H1 9236   6.977   2.944   2.047
 3097TIP3    H2 9237   6.866   3.024   2.107
 3098TIP3   OH2 9238   7.838   3.161   2.237
 3098TIP3    H1 9239   7.848   3.253   2.267
 3098TIP3    H2 9240   7.769   3.129   2.298
 3099TIP3   OH2 9241   7.615   3.304   1.197
 3099TIP3    H1 9242   7.570   3.292   1.112
 3099TIP3    H2 9243   7.583   3.393   1.224
 3100TIP3   OH2 9244   7.050   3.158   1.582
 3100TIP3    H1 9245   7.096   3.150   1.668
 3100TIP3    H2 9246   6.997   3.076   1.582
 3101TIP3   OH2 9247   7.881   3.271   1.128
 3101TIP3    H1 9248   7.788   3.285   1.156
 3101TIP3    H2 9249   7.894   3.177   1.152
 3102TIP3   OH2 9250   7.232   2.932   2.403
 3102TIP3    H1 9251   7.278   2.920   2.489
 3102TIP3    H2 9252   7.156   2.871   2.412
 3103TIP3   OH2 9253   7.631   1.767   2.212
 3103TIP3    H1 9254   7.557   1.731   2.161
 3103TIP3    H2 9255   7.586   1.839   2.261
 3104TIP3   OH2 9256   7.561   2.275   2.217
 3104TIP3    H1 9257   7.505   2.294   2.295
 3104TIP3    H2 9258   7.545   2.356   2.163
 3105TIP3   OH2 9259   7.447   2.157   1.723
 3105TIP3    H1 9260   7.356   2.127   1.746
 3105TIP3    H2 9261   7.459   2.116   1.635
 3106TIP3   OH2 9262   7.373   2.298   2.420
 3106TIP3    H1 9263   7.409   2.357   2.487
 3106TIP3    H2 9264   7.361   2.215   2.471
 3107TIP3   OH2 9265   7.393   1.728   1.126
 3107TIP3    H1 9266   7.417   1.750   1.217
 3107TIP3    H2 9267   7.352   1.811   1.097
 3108TIP3   OH2 9268   6.975   1.822   2.002
 3108TIP3    H1 9269   7.048   1.854   2.058
 3108TIP3    H2 9270   7.020   1.788   1.923
 3109TIP3   OH2 9271   6.943   1.806   1.519
 3109TIP3    H1 9272   6.989   1.848   1.443
 3109TIP3    H2 9273   6.877   1.876   1.539
 3110TIP3   OH2 9274   7.207   2.042   1.790
 3110TIP3    H1 9275   7.112   2.047   1.764
 3110TIP3    H2 9276   7.229   1.948   1.776
 3111TIP3   OH2 9277   7.485   2.040   1.476
 3111TIP3    H1 9278   7.567   2.058   1.428
 3111TIP3    H2 9279   7.419   2.051   1.404
 3112TIP3   OH2 9280   7.326   2.051   1.260
 3112TIP3    H1 9281   7.242   2.031   1.215
 3112TIP3    H2 9282   7.376   2.097   1.189
 3113TIP3   OH2 9283   7.394   2.856   2.630
 3113TIP3    H1 9284   7.472   2.888   2.679
 3113TIP3    H2 9285   7.327   2.856   2.702
 3114TIP3   OH2 9286   7.367   1.798   1.765
 3114TIP3    H1 9287   7.333   1.727   1.824
 3114TIP3    H2 9288   7.412   1.744   1.698
 3115TIP3   OH2 9289   7.824   2.192   2.202
 3115TIP3    H1 9290   7.731   2.222   2.192
 3115TIP3    H2 9291   7.872   2.277   2.207
 3116TIP3   OH2 9292   7.541   2.622   1.271
 3116TIP3    H1 9293   7.488   2.539   1.266
 3116TIP3    H2 9294   7.544   2.638   1.368
 3117TIP3   OH2 9295   7.930   2.885   2.305
 3117TIP3    H1 9296   7.971   2.892   2.392
 3117TIP3    H2 9297   7.904   2.977   2.287
 3118TIP3   OH2 9298   7.268   2.627   1.948
 3118TIP3    H1 9299   7.298   2.592   1.862
 3118TIP3    H2 9300   7.295   2.557   2.010
 3119TIP3   OH2 9301   7.672   2.741   1.062
 3119TIP3    H1 9302   7.648   2.833   1.089
 3119TIP3    H2 9303   7.646   2.692   1.143
 3120TIP3   OH2 9304   7.145   2.535   2.558
 3120TIP3    H1 9305   7.157   2.521   2.654
 3120TIP3    H2 9306   7.073   2.473   2.537
 3121TIP3   OH2 9307   7.868   2.649   2.583
 3121TIP3    H1 9308   7.806   2.606   2.523
 3121TIP3    H2 9309   7.952   2.619   2.545
 3122TIP3   OH2 9310   7.366   2.925   1.575
 3122TIP3    H1 9311   7.365   3.004   1.517
 3122TIP3    H2 9312   7.271   2.907   1.583
 3123TIP3   OH2 9313   6.909   2.234   1.274
 3123TIP3    H1 9314   6.963   2.313   1.295
 3123TIP3    H2 9315   6.827   2.255   1.321
 3124TIP3   OH2 9316   7.511   2.689   1.535
 3124TIP3    H1 9317   7.471   2.778   1.539
 3124TIP3    H2 9318   7.457   2.640   1.600
 3125TIP3   OH2 9319   7.631   3.263   2.038
 3125TIP3    H1 9320   7.665   3.341   1.990
 3125TIP3    H2 9321   7.710   3.235   2.088
 3126TIP3   OH2 9322   7.282   3.163   1.424
 3126TIP3    H1 9323   7.197   3.173   1.469
 3126TIP3    H2 9324   7.316   3.255   1.426
 3127TIP3   OH2 9325   7.348   2.047   2.568
 3127TIP3    H1 9326   7.251   2.049   2.576
 3127TIP3    H2 9327   7.372   1.984   2.638
 3128TIP3   OH2 9328   7.071   3.128   2.196
 3128TIP3    H1 9329   7.126   3.059   2.236
 3128TIP3    H2 9330   7.093   3.205   2.251
 3129TIP3   OH2 9331   7.356   2.774   0.884
 3129TIP3    H1 9332   7.358   2.680   0.859
 3129TIP3    H2 9333   7.339   2.768   0.980
 3130TIP3   OH2 9334   7.309   2.777   1.155
 3130TIP3    H1 9335   7.392   2.748   1.197
 3130TIP3    H2 9336   7.313   2.875   1.167
 3131TIP3   OH2 9337   7.038   2.468   1.356
 3131TIP3    H1 9338   6.973   2.516   1.412
 3131TIP3    H2 9339   7.053   2.537   1.288
 3132TIP3   OH2 9340   7.572   2.988   1.110
 3132TIP3    H1 9341   7.481   3.011   1.139
 3132TIP3    H2 9342   7.595   3.069   1.062
 3133TIP3   OH2 9343   7.312   3.052   1.171
 3133TIP3    H1 9344   7.279   3.122   1.110
 3133TIP3    H2 9345   7.298   3.095   1.258
 3134TIP3   OH2 9346   7.432   1.775   1.406
 3134TIP3    H1 9347   7.407   1.854   1.457
 3134TIP3    H2 9348   7.512   1.808   1.362
 3135TIP3   OH2 9349   7.037   2.676   1.162
 3135TIP3    H1 9350   7.106   2.743   1.174
 3135TIP3    H2 9351   7.081   2.621   1.093
 3136TIP3   OH2 9352   6.976   1.968   1.299
 3136TIP3    H1 9353   6.963   2.065   1.298
 3136TIP3    H2 9354   6.895   1.937   1.258
 3137TIP3   OH2 9355   7.360   1.681   2.168
 3137TIP3    H1 9356   7.340   1.644   2.080
 3137TIP3    H2 9357   7.352   1.602   2.225
 3138TIP3   OH2 9358   6.900   2.893   1.547
 3138TIP3    H1 9359   6.837   2.924   1.614
 3138TIP3    H2 9360   6.865   2.937   1.466
 3139TIP3   OH2 9361   7.063   3.444   2.620
 3139TIP3    H1 9362   7.149   3.446   2.669
 3139TIP3    H2 9363   7.043   3.349   2.621
 3140TIP3   OH2 9364   7.537   3.397   2.669
 3140TIP3    H1 9365   7.633   3.386   2.673
 3140TIP3    H2 9366   7.514   3.336   2.596
 3141TIP3   OH2 9367   7.515   2.976   0.791
 3141TIP3    H1 9368   7.454   2.906   0.824
 3141TIP3    H2 9369   7.601   2.938   0.816
 3142TIP3   OH2 9370   7.191   2.845   2.821
 3142TIP3    H1 9371   7.206   2.749   2.826
 3142TIP3    H2 9372   7.104   2.849   2.776
 3143TIP3   OH2 9373   7.175   2.490   1.017
 3143TIP3    H1 9374   7.232   2.466   1.092
 3143TIP3    H2 9375   7.242   2.496   0.945
 3144TIP3   OH2 9376   7.813   2.933   2.591
 3144TIP3    H1 9377   7.760   2.955   2.511
 3144TIP3    H2 9378   7.824   2.836   2.584
 3145TIP3   OH2 9379   7.664   2.670   0.807
 3145TIP3    H1 9380   7.684   2.709   0.896
 3145TIP3    H2 9381   7.588   2.617   0.832
 3146TIP3   OH2 9382   7.311   2.584   2.807
 3146TIP3    H1 9383   7.384   2.527   2.782
 3146TIP3    H2 9384   7.340   2.617   2.895
 3147TIP3   OH2 9385   7.370   2.397   1.233
 3147TIP3    H1 9386   7.345   2.360   1.319
 3147TIP3    H2 9387   7.415   2.323   1.188
 3148TIP3   OH2 9388   7.615   2.446   2.491
 3148TIP3    H1 9389   7.543   2.512   2.491
 3148TIP3    H2 9390   7.672   2.483   2.419
 3149TIP3   OH2 9391   7.480   2.185   1.076
 3149TIP3    H1 9392   7.450   2.203   0.985
 3149TIP3    H2 9393   7.573   2.159   1.055
 3150TIP3   OH2 9394   7.786   2.256   2.585
 3150TIP3    H1 9395   7.777   2.170   2.538
 3150TIP3    H2 9396   7.718   2.311   2.540
 3151TIP3   OH2 9397   7.784   2.029   2.416
 3151TIP3    H1 9398   7.787   2.081   2.333
 3151TIP3    H2 9399   7.696   1.988   2.408
 3152TIP3   OH2 9400   7.771   2.569   2.312
 3152TIP3    H1 9401   7.839   2.564   2.243
 3152TIP3    H2 9402   7.712   2.636   2.272
 3153TIP3   OH2 9403   7.660   2.355   2.825
 3153TIP3    H1 9404   7.587   2.291   2.837
 3153TIP3    H2 9405   7.683   2.341   2.732
 3154TIP3   OH2 9406   7.488   2.142   2.874
 3154TIP3    H1 9407   7.484   2.050   2.842
 3154TIP3    H2 9408   7.519   2.129   2.966
 3155TIP3   OH2 9409   7.275   3.255   0.983
 3155TIP3    H1 9410   7.372   3.250   0.972
 3155TIP3    H2 9411   7.253   3.309   0.904
 3156TIP3   OH2 9412   6.766   2.644   1.195
 3156TIP3    H1 9413   6.862   2.664   1.183
 3156TIP3    H2 9414   6.760   2.554   1.157
 3157TIP3   OH2 9415   6.682   3.248   1.614
 3157TIP3    H1 9416   6.616   3.187   1.576
 3157TIP3    H2 9417   6.726   3.189   1.679
 3158TIP3   OH2 9418   6.816   3.094   1.800
 3158TIP3    H1 9419   6.802   3.026   1.868
 3158TIP3    H2 9420   6.868   3.158   1.852
 3159TIP3   OH2 9421   7.000   2.504   2.175
 3159TIP3    H1 9422   6.996   2.472   2.082
 3159TIP3    H2 9423   7.098   2.506   2.189
 3160TIP3   OH2 9424   7.220   2.194   2.850
 3160TIP3    H1 9425   7.318   2.187   2.850
 3160TIP3    H2 9426   7.196   2.107   2.886
 3161TIP3   OH2 9427   7.177   1.887   2.178
 3161TIP3    H1 9428   7.238   1.810   2.183
 3161TIP3    H2 9429   7.241   1.960   2.174
 3162TIP3   OH2 9430   6.981   2.158   2.248
 3162TIP3    H1 9431   7.031   2.154   2.164
 3162TIP3    H2 9432   7.008   2.244   2.283
 3163TIP3   OH2 9433   6.967   1.661   1.747
 3163TIP3    H1 9434   6.874   1.657   1.776
 3163TIP3    H2 9435   6.961   1.722   1.671
 3164TIP3   OH2 9436   7.192   1.749   2.567
 3164TIP3    H1 9437   7.137   1.739   2.647
 3164TIP3    H2 9438   7.125   1.783   2.504
 3165TIP3   OH2 9439   7.228   3.167   2.639
 3165TIP3    H1 9440   7.134   3.147   2.624
 3165TIP3    H2 9441   7.235   3.158   2.735
 3166TIP3   OH2 9442   7.408   3.204   2.188
 3166TIP3    H1 9443   7.358   3.279   2.150
 3166TIP3    H2 9444   7.493   3.219   2.142
 3167TIP3   OH2 9445   7.841   3.433   2.323
 3167TIP3    H1 9446   7.885   3.440   2.410
 3167TIP3    H2 9447   7.892   3.496   2.269
 3168TIP3   OH2 9448   7.986   3.609   2.149
 3168TIP3    H1 9449   8.029   3.592   2.063
 3168TIP3    H2 9450   8.020   3.698   2.168
 3169TIP3   OH2 9451   7.081   3.459   2.217
 3169TIP3    H1 9452   6.990   3.489   2.193
 3169TIP3    H2 9453   7.096   3.511   2.297
 3170TIP3   OH2 9454   7.315   3.435   2.072
 3170TIP3    H1 9455   7.228   3.449   2.115
 3170TIP3    H2 9456   7.297   3.470   1.982
 3171TIP3   OH2 9457   7.713   3.473   1.875
 3171TIP3    H1 9458   7.641   3.488   1.811
 3171TIP3    H2 9459   7.728   3.564   1.908
 3172TIP3   OH2 9460   7.963   3.370   1.841
 3172TIP3    H1 9461   7.874   3.406   1.855
 3172TIP3    H2 9462   8.019   3.446   1.866
 3173TIP3   OH2 9463   6.992   3.254   1.956
 3173TIP3    H1 9464   7.018   3.226   2.046
 3173TIP3    H2 9465   7.064   3.211   1.905
 3174TIP3   OH2 9466   7.187   3.127   1.816
 3174TIP3    H1 9467   7.201   3.044   1.867
 3174TIP3    H2 9468   7.278   3.164   1.813
 3175TIP3   OH2 9469   7.452   3.221   1.821
 3175TIP3    H1 9470   7.481   3.129   1.810
 3175TIP3    H2 9471   7.501   3.244   1.903
 3176TIP3   OH2 9472   7.274   1.591   1.915
 3176TIP3    H1 9473   7.184   1.553   1.923
 3176TIP3    H2 9474   7.327   1.508   1.914
 3177TIP3   OH2 9475   7.067   1.455   1.579
 3177TIP3    H1 9476   7.084   1.513   1.502
 3177TIP3    H2 9477   7.036   1.520   1.645
 3178TIP3   OH2 9478   6.781   3.029   1.346
 3178TIP3    H1 9479   6.695   2.996   1.313
 3178TIP3    H2 9480   6.772   3.123   1.325
 3179TIP3   OH2 9481   7.180   1.612   1.340
 3179TIP3    H1 9482   7.231   1.538   1.303
 3179TIP3    H2 9483   7.250   1.673   1.369
 3180TIP3   OH2 9484   7.542   3.211   0.939
 3180TIP3    H1 9485   7.635   3.221   0.908
 3180TIP3    H2 9486   7.515   3.141   0.877
 3181TIP3   OH2 9487   7.478   1.869   2.810
 3181TIP3    H1 9488   7.441   1.797   2.864
 3181TIP3    H2 9489   7.571   1.867   2.840
 3182TIP3   OH2 9490   7.722   1.867   2.941
 3182TIP3    H1 9491   7.798   1.826   2.894
 3182TIP3    H2 9492   7.706   1.799   3.011
 3183TIP3   OH2 9493   6.854   3.046   0.984
 3183TIP3    H1 9494   6.859   3.069   1.078
 3183TIP3    H2 9495   6.943   3.006   0.969
 3184TIP3   OH2 9496   0.419   3.378   3.180
 3184TIP3    H1 9497   0.389   3.469   3.161
 3184TIP3    H2 9498   0.345   3.328   3.143
 3185TIP3   OH2 9499   0.411   3.381   3.568
 3185TIP3    H1 9500   0.452   3.360   3.654
 3185TIP3    H2 9501   0.376   3.294   3.544
 3186TIP3   OH2 9502  -0.176   3.291   3.873
 3186TIP3    H1 9503  -0.222   3.211   3.906
 3186TIP3    H2 9504  -0.220   3.357   3.931
 3187TIP3   OH2 9505   0.664   3.684   3.247
 3187TIP3    H1 9506   0.657   3.616   3.315
 3187TIP3    H2 9507   0.698   3.760   3.296
 3188TIP3   OH2 9508  -0.302   3.647   3.590
 3188TIP3    H1 9509  -0.363   3.628   3.662
 3188TIP3    H2 9510  -0.222   3.679   3.635
 3189TIP3   OH2 9511  -0.530   3.187   3.583
 3189TIP3    H1 9512  -0.493   3.124   3.646
 3189TIP3    H2 9513  -0.458   3.201   3.523
 3190TIP3   OH2 9514   0.314   4.142   3.265
 3190TIP3    H1 9515   0.352   4.075   3.204
 3190TIP3    H2 9516   0.323   4.096   3.349
 3191TIP3   OH2 9517   0.225   3.593   3.612
 3191TIP3    H1 9518   0.274   3.519   3.573
 3191TIP3    H2 9519   0.302   3.650   3.634
 3192TIP3   OH2 9520   1.232   2.925   3.606
 3192TIP3    H1 9521   1.263   3.008   3.649
 3192TIP3    H2 9522   1.261   2.940   3.514
 3193TIP3   OH2 9523   0.634   3.109   3.640
 3193TIP3    H1 9524   0.680   3.025   3.660
 3193TIP3    H2 9525   0.601   3.091   3.550
 3194TIP3   OH2 9526  -0.027   2.773   3.600
 3194TIP3    H1 9527  -0.047   2.847   3.539
 3194TIP3    H2 9528  -0.074   2.699   3.554
 3195TIP3   OH2 9529   0.661   2.840   3.221
 3195TIP3    H1 9530   0.731   2.835   3.290
 3195TIP3    H2 9531   0.712   2.883   3.150
 3196TIP3   OH2 9532  -0.386   2.979   3.711
 3196TIP3    H1 9533  -0.311   2.950   3.766
 3196TIP3    H2 9534  -0.372   2.925   3.631
 3197TIP3   OH2 9535   1.305   3.130   3.783
 3197TIP3    H1 9536   1.223   3.181   3.763
 3197TIP3    H2 9537   1.336   3.175   3.863
 3198TIP3   OH2 9538  -0.034   2.750   4.044
 3198TIP3    H1 9539  -0.095   2.789   3.979
 3198TIP3    H2 9540  -0.085   2.763   4.127
 3199TIP3   OH2 9541   0.293   3.593   3.055
 3199TIP3    H1 9542   0.277   3.594   2.960
 3199TIP3    H2 9543   0.258   3.680   3.081
 3200TIP3   OH2 9544   0.015   3.516   3.783
 3200TIP3    H1 9545  -0.008   3.591   3.854
 3200TIP3    H2 9546   0.093   3.567   3.737
 3201TIP3   OH2 9547   0.862   2.867   3.402
 3201TIP3    H1 9548   0.866   2.819   3.486
 3201TIP3    H2 9549   0.920   2.944   3.422
 3202TIP3   OH2 9550  -0.154   2.867   3.823
 3202TIP3    H1 9551  -0.091   2.939   3.847
 3202TIP3    H2 9552  -0.105   2.828   3.746
 3203TIP3   OH2 9553  -0.112   3.701   3.956
 3203TIP3    H1 9554  -0.158   3.770   3.906
 3203TIP3    H2 9555  -0.185   3.670   4.013
 3204TIP3   OH2 9556   0.730   3.931   3.409
 3204TIP3    H1 9557   0.638   3.922   3.444
 3204TIP3    H2 9558   0.723   4.015   3.360
 3205TIP3   OH2 9559   1.028   2.824   3.772
 3205TIP3    H1 9560   0.942   2.855   3.740
 3205TIP3    H2 9561   1.090   2.859   3.704
 3206TIP3   OH2 9562   0.317   2.464   3.754
 3206TIP3    H1 9563   0.304   2.370   3.777
 3206TIP3    H2 9564   0.242   2.505   3.803
 3207TIP3   OH2 9565   0.427   3.971   3.079
 3207TIP3    H1 9566   0.476   3.888   3.059
 3207TIP3    H2 9567   0.491   4.036   3.042
 3208TIP3   OH2 9568   0.566   3.751   2.996
 3208TIP3    H1 9569   0.568   3.673   2.939
 3208TIP3    H2 9570   0.606   3.718   3.079
 3209TIP3   OH2 9571   0.956   3.836   3.755
 3209TIP3    H1 9572   0.948   3.761   3.693
 3209TIP3    H2 9573   0.941   3.913   3.695
 3210TIP3   OH2 9574   0.251   3.232   3.012
 3210TIP3    H1 9575   0.175   3.290   2.990
 3210TIP3    H2 9576   0.301   3.232   2.929
 3211TIP3   OH2 9577   0.220   3.019   2.732
 3211TIP3    H1 9578   0.286   3.074   2.777
 3211TIP3    H2 9579   0.279   2.958   2.682
 3212TIP3   OH2 9580   1.152   3.475   3.599
 3212TIP3    H1 9581   1.070   3.529   3.602
 3212TIP3    H2 9582   1.186   3.499   3.510
 3213TIP3   OH2 9583   0.597   3.313   2.981
 3213TIP3    H1 9584   0.546   3.338   3.061
 3213TIP3    H2 9585   0.684   3.290   3.022
 3214TIP3   OH2 9586   0.833   3.352   3.901
 3214TIP3    H1 9587   0.833   3.435   3.953
 3214TIP3    H2 9588   0.751   3.361   3.850
 3215TIP3   OH2 9589  -0.134   3.281   3.413
 3215TIP3    H1 9590  -0.208   3.262   3.353
 3215TIP3    H2 9591  -0.082   3.200   3.399
 3216TIP3   OH2 9592  -0.020   3.731   3.546
 3216TIP3    H1 9593  -0.051   3.700   3.459
 3216TIP3    H2 9594   0.067   3.688   3.553
 3217TIP3   OH2 9595   0.486   3.923   3.530
 3217TIP3    H1 9596   0.479   4.005   3.583
 3217TIP3    H2 9597   0.474   3.852   3.596
 3218TIP3   OH2 9598   0.101   3.846   4.077
 3218TIP3    H1 9599   0.043   3.905   4.129
 3218TIP3    H2 9600   0.035   3.786   4.037
 3219TIP3   OH2 9601   0.434   3.178   2.809
 3219TIP3    H1 9602   0.496   3.237   2.858
 3219TIP3    H2 9603   0.461   3.198   2.716
 3220TIP3   OH2 9604  -0.153   3.401   4.173
 3220TIP3    H1 9605  -0.140   3.481   4.228
 3220TIP3    H2 9606  -0.249   3.390   4.181
 3221TIP3   OH2 9607   0.180   3.855   3.086
 3221TIP3    H1 9608   0.267   3.900   3.091
 3221TIP3    H2 9609   0.126   3.921   3.041
 3222TIP3   OH2 9610  -0.118   4.019   4.164
 3222TIP3    H1 9611  -0.135   4.022   4.068
 3222TIP3    H2 9612  -0.197   3.971   4.196
 3223TIP3   OH2 9613   0.958   2.416   2.858
 3223TIP3    H1 9614   0.874   2.439   2.903
 3223TIP3    H2 9615   0.973   2.496   2.803
 3224TIP3   OH2 9616  -0.300   3.160   3.222
 3224TIP3    H1 9617  -0.360   3.198   3.154
 3224TIP3    H2 9618  -0.330   3.068   3.224
 3225TIP3   OH2 9619   0.757   3.779   2.408
 3225TIP3    H1 9620   0.769   3.874   2.389
 3225TIP3    H2 9621   0.849   3.746   2.398
 3226TIP3   OH2 9622   1.196   4.185   3.804
 3226TIP3    H1 9623   1.195   4.089   3.817
 3226TIP3    H2 9624   1.113   4.211   3.848
 3227TIP3   OH2 9625   0.301   3.970   3.931
 3227TIP3    H1 9626   0.299   4.062   3.965
 3227TIP3    H2 9627   0.231   3.928   3.986
 3228TIP3   OH2 9628   0.063   4.092   2.892
 3228TIP3    H1 9629   0.023   4.084   2.804
 3228TIP3    H2 9630   0.037   4.183   2.918
 3229TIP3   OH2 9631   0.264   3.998   2.524
 3229TIP3    H1 9632   0.323   3.929   2.488
 3229TIP3    H2 9633   0.302   4.012   2.613
 3230TIP3   OH2 9634   0.314   4.044   2.795
 3230TIP3    H1 9635   0.228   4.054   2.842
 3230TIP3    H2 9636   0.372   4.015   2.867
 3231TIP3   OH2 9637   1.083   3.311   4.078
 3231TIP3    H1 9638   1.005   3.320   4.023
 3231TIP3    H2 9639   1.102   3.215   4.070
 3232TIP3   OH2 9640   0.082   2.545   3.887
 3232TIP3    H1 9641  -0.006   2.512   3.858
 3232TIP3    H2 9642   0.055   2.624   3.937
 3233TIP3   OH2 9643   0.619   2.660   4.080
 3233TIP3    H1 9644   0.689   2.631   4.142
 3233TIP3    H2 9645   0.537   2.640   4.129
 3234TIP3   OH2 9646   0.848   3.086   3.993
 3234TIP3    H1 9647   0.802   3.086   4.080
 3234TIP3    H2 9648   0.831   3.176   3.960
 3235TIP3   OH2 9649   0.508   3.221   2.554
 3235TIP3    H1 9650   0.479   3.197   2.464
 3235TIP3    H2 9651   0.596   3.258   2.534
 3236TIP3   OH2 9652   0.263   2.570   2.887
 3236TIP3    H1 9653   0.191   2.594   2.950
 3236TIP3    H2 9654   0.208   2.536   2.810
 3237TIP3   OH2 9655   0.008   3.075   3.907
 3237TIP3    H1 9656  -0.025   3.060   3.999
 3237TIP3    H2 9657  -0.033   3.161   3.891
 3238TIP3   OH2 9658  -0.116   2.955   3.418
 3238TIP3    H1 9659  -0.207   2.924   3.431
 3238TIP3    H2 9660  -0.094   2.911   3.333
 3239TIP3   OH2 9661   0.388   3.028   3.143
 3239TIP3    H1 9662   0.339   3.102   3.101
 3239TIP3    H2 9663   0.447   3.001   3.070
 3240TIP3   OH2 9664   0.562   3.309   4.230
 3240TIP3    H1 9665   0.543   3.236   4.293
 3240TIP3    H2 9666   0.657   3.324   4.250
 3241TIP3   OH2 9667   0.548   3.055   3.381
 3241TIP3    H1 9668   0.487   3.088   3.312
 3241TIP3    H2 9669   0.580   2.975   3.335
 3242TIP3   OH2 9670  -0.147   3.066   4.126
 3242TIP3    H1 9671  -0.165   3.142   4.183
 3242TIP3    H2 9672  -0.169   2.991   4.185
 3243TIP3   OH2 9673  -0.553   2.646   3.690
 3243TIP3    H1 9674  -0.475   2.652   3.749
 3243TIP3    H2 9675  -0.534   2.570   3.635
 3244TIP3   OH2 9676   0.545   3.305   3.803
 3244TIP3    H1 9677   0.583   3.237   3.742
 3244TIP3    H2 9678   0.525   3.248   3.880
 3245TIP3   OH2 9679   0.229   2.768   3.474
 3245TIP3    H1 9680   0.149   2.770   3.530
 3245TIP3    H2 9681   0.300   2.759   3.540
 3246TIP3   OH2 9682  -0.347   2.816   3.484
 3246TIP3    H1 9683  -0.438   2.789   3.466
 3246TIP3    H2 9684  -0.298   2.732   3.469
 3247TIP3   OH2 9685  -0.066   2.821   3.186
 3247TIP3    H1 9686   0.029   2.838   3.166
 3247TIP3    H2 9687  -0.111   2.851   3.104
 3248TIP3   OH2 9688   0.721   2.848   3.685
 3248TIP3    H1 9689   0.684   2.860   3.775
 3248TIP3    H2 9690   0.656   2.787   3.646
 3249TIP3   OH2 9691  -0.219   2.882   2.972
 3249TIP3    H1 9692  -0.300   2.829   2.956
 3249TIP3    H2 9693  -0.185   2.896   2.882
 3250TIP3   OH2 9694   0.890   4.535   3.900
 3250TIP3    H1 9695   0.887   4.559   3.806
 3250TIP3    H2 9696   0.971   4.582   3.930
 3251TIP3   OH2 9697  -0.144   3.635   4.334
 3251TIP3    H1 9698  -0.075   3.671   4.393
 3251TIP3    H2 9699  -0.224   3.674   4.372
 3252TIP3   OH2 9700   0.326   3.109   3.587
 3252TIP3    H1 9701   0.384   3.061   3.527
 3252TIP3    H2 9702   0.323   3.053   3.666
 3253TIP3   OH2 9703  -0.179   2.590   3.454
 3253TIP3    H1 9704  -0.201   2.507   3.500
 3253TIP3    H2 9705  -0.145   2.558   3.368
 3254TIP3   OH2 9706   0.281   2.995   3.870
 3254TIP3    H1 9707   0.196   3.042   3.877
 3254TIP3    H2 9708   0.343   3.056   3.915
 3255TIP3   OH2 9709   0.020   3.385   2.957
 3255TIP3    H1 9710  -0.052   3.320   2.948
 3255TIP3    H2 9711   0.002   3.419   3.049
 3256TIP3   OH2 9712   0.920   3.622   3.586
 3256TIP3    H1 9713   0.947   3.673   3.506
 3256TIP3    H2 9714   0.836   3.580   3.556
 3257TIP3   OH2 9715   0.504   2.696   2.833
 3257TIP3    H1 9716   0.409   2.706   2.813
 3257TIP3    H2 9717   0.532   2.790   2.840
 3258TIP3   OH2 9718   0.399   3.692   3.967
 3258TIP3    H1 9719   0.460   3.686   4.041
 3258TIP3    H2 9720   0.383   3.788   3.960
 3259TIP3   OH2 9721   0.555   2.951   2.926
 3259TIP3    H1 9722   0.651   2.959   2.944
 3259TIP3    H2 9723   0.537   3.031   2.873
 3260TIP3   OH2 9724   0.164   3.534   2.776
 3260TIP3    H1 9725   0.117   3.621   2.783
 3260TIP3    H2 9726   0.115   3.482   2.843
 3261TIP3   OH2 9727   0.320   3.442   4.271
 3261TIP3    H1 9728   0.258   3.375   4.238
 3261TIP3    H2 9729   0.406   3.406   4.240
 3262TIP3   OH2 9730   0.575   3.953   3.864
 3262TIP3    H1 9731   0.479   3.966   3.871
 3262TIP3    H2 9732   0.606   4.012   3.935
 3263TIP3   OH2 9733   0.983   3.040   2.763
 3263TIP3    H1 9734   0.921   2.998   2.699
 3263TIP3    H2 9735   0.984   3.129   2.721
 3264TIP3   OH2 9736   1.207   3.894   3.842
 3264TIP3    H1 9737   1.110   3.888   3.833
 3264TIP3    H2 9738   1.235   3.865   3.752
 3265TIP3   OH2 9739   0.681   3.854   2.666
 3265TIP3    H1 9740   0.675   3.778   2.724
 3265TIP3    H2 9741   0.707   3.814   2.580
 3266TIP3   OH2 9742   0.685   3.485   3.504
 3266TIP3    H1 9743   0.591   3.460   3.514
 3266TIP3    H2 9744   0.721   3.405   3.460
 3267TIP3   OH2 9745  -0.173   3.716   3.267
 3267TIP3    H1 9746  -0.182   3.792   3.206
 3267TIP3    H2 9747  -0.264   3.708   3.300
 3268TIP3   OH2 9748   7.535   1.404   1.344
 3268TIP3    H1 9749   7.594   1.477   1.371
 3268TIP3    H2 9750   7.458   1.418   1.401
 3269TIP3   OH2 9751  -0.058   3.469   3.203
 3269TIP3    H1 9752  -0.085   3.561   3.224
 3269TIP3    H2 9753  -0.074   3.422   3.286
 3270TIP3   OH2 9754   0.093   4.057   3.730
 3270TIP3    H1 9755   0.134   4.128   3.676
 3270TIP3    H2 9756   0.171   4.020   3.774
 3271TIP3   OH2 9757  -0.267   3.953   3.118
 3271TIP3    H1 9758  -0.348   3.982   3.161
 3271TIP3    H2 9759  -0.219   4.039   3.115
 3272TIP3   OH2 9760   0.468   3.691   3.693
 3272TIP3    H1 9761   0.461   3.681   3.790
 3272TIP3    H2 9762   0.551   3.645   3.675
 3273TIP3   OH2 9763   0.449   3.580   2.580
 3273TIP3    H1 9764   0.507   3.558   2.657
 3273TIP3    H2 9765   0.363   3.558   2.617
 3274TIP3   OH2 9766   0.718   4.222   3.737
 3274TIP3    H1 9767   0.635   4.172   3.723
 3274TIP3    H2 9768   0.710   4.289   3.665
 3275TIP3   OH2 9769   0.789   4.058   2.393
 3275TIP3    H1 9770   0.835   4.135   2.354
 3275TIP3    H2 9771   0.706   4.101   2.420
 3276TIP3   OH2 9772  -0.188   2.820   4.274
 3276TIP3    H1 9773  -0.281   2.799   4.295
 3276TIP3    H2 9774  -0.142   2.768   4.343
 3277TIP3   OH2 9775   0.611   3.524   2.799
 3277TIP3    H1 9776   0.602   3.450   2.863
 3277TIP3    H2 9777   0.707   3.516   2.778
 3278TIP3   OH2 9778  -0.186   3.562   2.571
 3278TIP3    H1 9779  -0.171   3.468   2.550
 3278TIP3    H2 9780  -0.211   3.557   2.665
 3279TIP3   OH2 9781  -0.239   3.571   2.845
 3279TIP3    H1 9782  -0.158   3.544   2.892
 3279TIP3    H2 9783  -0.234   3.669   2.852
 3280TIP3   OH2 9784  -0.492   3.257   3.058
 3280TIP3    H1 9785  -0.544   3.314   3.117
 3280TIP3    H2 9786  -0.478   3.319   2.983
 3281TIP3   OH2 9787   0.639   2.900   3.944
 3281TIP3    H1 9788   0.723   2.939   3.973
 3281TIP3    H2 9789   0.632   2.819   3.998
 3282TIP3   OH2 9790   0.519   2.626   3.091
 3282TIP3    H1 9791   0.527   2.671   3.003
 3282TIP3    H2 9792   0.559   2.697   3.146
 3283TIP3   OH2 9793   0.022   3.765   2.791
 3283TIP3    H1 9794  -0.063   3.793   2.828
 3283TIP3    H2 9795   0.046   3.844   2.739
 3284TIP3   OH2 9796   0.213   2.826   3.204
 3284TIP3    H1 9797   0.276   2.900   3.186
 3284TIP3    H2 9798   0.219   2.820   3.301
 3285TIP3   OH2 9799   0.480   3.145   4.014
 3285TIP3    H1 9800   0.511   3.193   4.093
 3285TIP3    H2 9801   0.534   3.064   4.018
 3286TIP3   OH2 9802   0.362   2.550   3.325
 3286TIP3    H1 9803   0.365   2.623   3.390
 3286TIP3    H2 9804   0.419   2.587   3.254
 3287TIP3   OH2 9805  -0.234   3.841   2.864
 3287TIP3    H1 9806  -0.258   3.912   2.799
 3287TIP3    H2 9807  -0.249   3.888   2.949
 3288TIP3   OH2 9808  -0.122   2.551   3.139
 3288TIP3    H1 9809  -0.123   2.648   3.144
 3288TIP3    H2 9810  -0.027   2.534   3.126
 3289TIP3   OH2 9811   1.117   3.046   4.002
 3289TIP3    H1 9812   1.019   3.040   4.000
 3289TIP3    H2 9813   1.139   3.018   3.911
 3290TIP3   OH2 9814   0.772   3.242   3.385
 3290TIP3    H1 9815   0.698   3.179   3.396
 3290TIP3    H2 9816   0.845   3.197   3.432
 3291TIP3   OH2 9817  -0.509   3.473   2.887
 3291TIP3    H1 9818  -0.431   3.531   2.879
 3291TIP3    H2 9819  -0.489   3.413   2.811
 3292TIP3   OH2 9820   0.738   4.202   3.323
 3292TIP3    H1 9821   0.702   4.249   3.244
 3292TIP3    H2 9822   0.834   4.218   3.309
 3293TIP3   OH2 9823  -0.181   2.459   3.853
 3293TIP3    H1 9824  -0.214   2.419   3.771
 3293TIP3    H2 9825  -0.188   2.384   3.916
 3294TIP3   OH2 9826   0.003   4.166   4.387
 3294TIP3    H1 9827   0.089   4.191   4.349
 3294TIP3    H2 9828  -0.037   4.122   4.309
 3295TIP3   OH2 9829  -0.026   3.765   2.478
 3295TIP3    H1 9830  -0.080   3.693   2.517
 3295TIP3    H2 9831   0.054   3.715   2.452
 3296TIP3   OH2 9832   0.628   4.100   4.094
 3296TIP3    H1 9833   0.626   4.028   4.161
 3296TIP3    H2 9834   0.709   4.149   4.118
 3297TIP3   OH2 9835   0.407   3.801   2.400
 3297TIP3    H1 9836   0.460   3.744   2.459
 3297TIP3    H2 9837   0.461   3.801   2.318
 3298TIP3   OH2 9838  -0.377   3.292   2.729
 3298TIP3    H1 9839  -0.312   3.259   2.793
 3298TIP3    H2 9840  -0.323   3.295   2.648
 3299TIP3   OH2 9841   0.243   3.718   4.289
 3299TIP3    H1 9842   0.213   3.738   4.198
 3299TIP3    H2 9843   0.280   3.628   4.279
 3300TIP3   OH2 9844   0.128   3.477   2.511
 3300TIP3    H1 9845   0.135   3.497   2.607
 3300TIP3    H2 9846   0.134   3.380   2.512
 3301TIP3   OH2 9847   0.740   3.733   3.892
 3301TIP3    H1 9848   0.820   3.767   3.847
 3301TIP3    H2 9849   0.678   3.807   3.875
 3302TIP3   OH2 9850  -0.234   3.366   4.500
 3302TIP3    H1 9851  -0.171   3.306   4.459
 3302TIP3    H2 9852  -0.185   3.400   4.577
 3303TIP3   OH2 9853  -0.171   3.183   2.920
 3303TIP3    H1 9854  -0.191   3.136   3.003
 3303TIP3    H2 9855  -0.132   3.112   2.866
 3304TIP3   OH2 9856   0.109   3.264   4.157
 3304TIP3    H1 9857   0.024   3.312   4.156
 3304TIP3    H2 9858   0.150   3.293   4.072
 3305TIP3   OH2 9859  -0.059   2.977   2.752
 3305TIP3    H1 9860  -0.057   2.946   2.660
 3305TIP3    H2 9861   0.038   2.990   2.765
 3306TIP3   OH2 9862   0.617   3.653   4.287
 3306TIP3    H1 9863   0.697   3.626   4.240
 3306TIP3    H2 9864   0.613   3.587   4.359
 3307TIP3   OH2 9865   0.740   3.308   2.438
 3307TIP3    H1 9866   0.736   3.260   2.354
 3307TIP3    H2 9867   0.715   3.399   2.408
 3308TIP3   OH2 9868   0.224   3.045   4.281
 3308TIP3    H1 9869   0.224   2.964   4.227
 3308TIP3    H2 9870   0.180   3.110   4.222
 3309TIP3   OH2 9871   0.225   2.828   4.093
 3309TIP3    H1 9872   0.254   2.869   4.009
 3309TIP3    H2 9873   0.132   2.803   4.072
 3310TIP3   OH2 9874   0.240   3.359   3.938
 3310TIP3    H1 9875   0.333   3.338   3.919
 3310TIP3    H2 9876   0.236   3.452   3.914
 3311TIP3   OH2 9877   0.831   3.328   4.340
 3311TIP3    H1 9878   0.878   3.244   4.350
 3311TIP3    H2 9879   0.901   3.384   4.304
 3312TIP3   OH2 9880   0.871   3.584   4.076
 3312TIP3    H1 9881   0.815   3.640   4.017
 3312TIP3    H2 9882   0.959   3.604   4.039
 3313TIP3   OH2 9883   0.101   3.165   4.510
 3313TIP3    H1 9884   0.044   3.086   4.524
 3313TIP3    H2 9885   0.138   3.145   4.422
 3314TIP3   OH2 9886   0.357   2.589   4.158
 3314TIP3    H1 9887   0.307   2.670   4.137
 3314TIP3    H2 9888   0.288   2.520   4.148
 3315TIP3   OH2 9889   0.483   3.093   4.375
 3315TIP3    H1 9890   0.469   3.076   4.470
 3315TIP3    H2 9891   0.394   3.069   4.341
 3316TIP3   OH2 9892   0.720   3.047   4.228
 3316TIP3    H1 9893   0.647   3.045   4.292
 3316TIP3    H2 9894   0.796   3.016   4.282
 3317TIP3   OH2 9895   0.943   2.984   4.378
 3317TIP3    H1 9896   0.961   2.888   4.393
 3317TIP3    H2 9897   0.945   3.020   4.469
 3318TIP3   OH2 9898  -0.029   2.933   4.564
 3318TIP3    H1 9899  -0.046   2.843   4.531
 3318TIP3    H2 9900  -0.004   2.914   4.656
 3319TIP3   OH2 9901   0.450   2.599   4.416
 3319TIP3    H1 9902   0.516   2.528   4.410
 3319TIP3    H2 9903   0.410   2.594   4.327
 3320TIP3   OH2 9904   0.518   2.813   4.574
 3320TIP3    H1 9905   0.496   2.742   4.510
 3320TIP3    H2 9906   0.439   2.871   4.567
 3321TIP3   OH2 9907  -0.261   4.027   2.666
 3321TIP3    H1 9908  -0.165   4.031   2.650
 3321TIP3    H2 9909  -0.291   4.092   2.600
 3322TIP3   OH2 9910   0.996   4.282   3.295
 3322TIP3    H1 9911   1.027   4.326   3.376
 3322TIP3    H2 9912   1.047   4.328   3.226
 3323TIP3   OH2 9913   1.021   4.310   3.580
 3323TIP3    H1 9914   0.981   4.221   3.568
 3323TIP3    H2 9915   1.101   4.286   3.629
 3324TIP3   OH2 9916   1.069   3.985   4.146
 3324TIP3    H1 9917   0.999   3.996   4.213
 3324TIP3    H2 9918   1.114   4.072   4.149
 3325TIP3   OH2 9919   0.884   3.500   2.765
 3325TIP3    H1 9920   0.950   3.564   2.730
 3325TIP3    H2 9921   0.933   3.462   2.841
 3326TIP3   OH2 9922   1.015   3.366   2.968
 3326TIP3    H1 9923   0.949   3.326   3.028
 3326TIP3    H2 9924   1.082   3.401   3.030
 3327TIP3   OH2 9925   1.069   3.757   3.399
 3327TIP3    H1 9926   1.123   3.690   3.352
 3327TIP3    H2 9927   1.072   3.833   3.336
 3328TIP3   OH2 9928   0.899   4.056   3.596
 3328TIP3    H1 9929   0.826   4.101   3.643
 3328TIP3    H2 9930   0.851   4.011   3.522
 3329TIP3   OH2 9931   0.950   3.274   2.615
 3329TIP3    H1 9932   0.879   3.274   2.547
 3329TIP3    H2 9933   0.923   3.352   2.666
 3330TIP3   OH2 9934   0.810   2.952   2.573
 3330TIP3    H1 9935   0.782   2.972   2.482
 3330TIP3    H2 9936   0.789   2.856   2.575
 3331TIP3   OH2 9937   0.824   3.225   3.114
 3331TIP3    H1 9938   0.839   3.129   3.105
 3331TIP3    H2 9939   0.813   3.236   3.211
 3332TIP3   OH2 9940   1.117   3.647   3.972
 3332TIP3    H1 9941   1.188   3.580   3.962
 3332TIP3    H2 9942   1.145   3.716   3.909
 3333TIP3   OH2 9943   1.298   3.448   3.984
 3333TIP3    H1 9944   1.225   3.396   4.025
 3333TIP3    H2 9945   1.373   3.386   3.999
 3334TIP3   OH2 9946   0.760   2.686   2.579
 3334TIP3    H1 9947   0.844   2.649   2.613
 3334TIP3    H2 9948   0.706   2.609   2.556
 3335TIP3   OH2 9949   0.824   2.941   3.005
 3335TIP3    H1 9950   0.867   2.853   3.021
 3335TIP3    H2 9951   0.882   2.974   2.933
 3336TIP3   OH2 9952   0.984   3.111   3.503
 3336TIP3    H1 9953   1.070   3.135   3.461
 3336TIP3    H2 9954   1.001   3.147   3.592
 3337TIP3   OH2 9955   1.057   3.256   3.735
 3337TIP3    H1 9956   0.980   3.292   3.782
 3337TIP3    H2 9957   1.091   3.336   3.688
 3338TIP3   OH2 9958  -0.310   2.898   4.643
 3338TIP3    H1 9959  -0.257   2.942   4.575
 3338TIP3    H2 9960  -0.400   2.926   4.616
 3339TIP3   OH2 9961   1.503   2.846   4.293
 3339TIP3    H1 9962   1.567   2.785   4.250
 3339TIP3    H2 9963   1.477   2.902   4.216
 3340TIP3   OH2 9964   0.930   2.692   3.051
 3340TIP3    H1 9965   0.983   2.675   3.131
 3340TIP3    H2 9966   0.880   2.609   3.044
 3341TIP3   OH2 9967  -0.349   2.674   3.870
 3341TIP3    H1 9968  -0.289   2.596   3.876
 3341TIP3    H2 9969  -0.285   2.746   3.856
 3342TIP3   OH2 9970   1.374   2.986   4.096
 3342TIP3    H1 9971   1.287   3.028   4.110
 3342TIP3    H2 9972   1.347   2.912   4.037
 3343TIP3   OH2 9973   1.014   2.620   2.682
 3343TIP3    H1 9974   1.053   2.552   2.623
 3343TIP3    H2 9975   1.080   2.693   2.674
 3344TIP3   OH2 9976   0.574   4.156   2.951
 3344TIP3    H1 9977   0.624   4.147   2.867
 3344TIP3    H2 9978   0.627   4.224   2.997
 3345TIP3   OH2 9979  -0.365   2.544   4.270
 3345TIP3    H1 9980  -0.404   2.533   4.358
 3345TIP3    H2 9981  -0.436   2.590   4.224
 3346TIP3   OH2 9982  -0.141   4.018   3.876
 3346TIP3    H1 9983  -0.165   4.098   3.825
 3346TIP3    H2 9984  -0.050   4.006   3.841
 3347TIP3   OH2 9985   0.301   4.234   4.015
 3347TIP3    H1 9986   0.344   4.236   4.103
 3347TIP3    H2 9987   0.366   4.286   3.963
 3348TIP3   OH2 9988   0.480   4.388   3.879
 3348TIP3    H1 9989   0.552   4.343   3.832
 3348TIP3    H2 9990   0.532   4.446   3.939
 3349TIP3   OH2 9991   1.268   2.755   3.975
 3349TIP3    H1 9992   1.178   2.762   3.938
 3349TIP3    H2 9993   1.287   2.661   3.962
 3350TIP3   OH2 9994  -0.229   4.254   3.739
 3350TIP3    H1 9995  -0.252   4.346   3.763
 3350TIP3    H2 9996  -0.277   4.244   3.655
 3351TIP3   OH2 9997   0.195   4.252   3.565
 3351TIP3    H1 9998   0.152   4.274   3.480
 3351TIP3    H2 9999   0.212   4.341   3.603
 3352TIP3   OH210000   0.467   4.191   3.614
 3352TIP3    H110001   0.374   4.212   3.593
 3352TIP3    H210002   0.515   4.261   3.567
 3353TIP3   OH210003   0.664   4.380   3.522
 3353TIP3    H110004   0.653   4.468   3.478
 3353TIP3    H210005   0.694   4.325   3.447
 3354TIP3   OH210006  -0.356   3.906   3.495
 3354TIP3    H110007  -0.343   3.815   3.527
 3354TIP3    H210008  -0.266   3.943   3.500
 3355TIP3   OH210009  -0.086   4.014   3.516
 3355TIP3    H110010  -0.053   3.926   3.490
 3355TIP3    H210011  -0.031   4.029   3.595
 3356TIP3   OH210012   0.471   2.656   3.582
 3356TIP3    H110013   0.438   2.586   3.641
 3356TIP3    H210014   0.554   2.617   3.547
 3357TIP3   OH210015   1.000   2.548   3.502
 3357TIP3    H110016   1.038   2.596   3.424
 3357TIP3    H210017   0.905   2.568   3.492
 3358TIP3   OH210018   1.097   2.642   3.266
 3358TIP3    H110019   1.169   2.589   3.225
 3358TIP3    H210020   1.133   2.733   3.250
 3359TIP3   OH210021  -0.286   2.364   3.600
 3359TIP3    H110022  -0.364   2.308   3.618
 3359TIP3    H210023  -0.218   2.293   3.597
 3360TIP3   OH210024   0.175   2.414   3.488
 3360TIP3    H110025   0.238   2.468   3.438
 3360TIP3    H210026   0.196   2.438   3.580
 3361TIP3   OH210027   0.710   2.548   3.474
 3361TIP3    H110028   0.735   2.503   3.392
 3361TIP3    H210029   0.701   2.471   3.535
 3362TIP3   OH210030   0.751   2.475   3.037
 3362TIP3    H110031   0.674   2.524   3.071
 3362TIP3    H210032   0.742   2.389   3.084
 3363TIP3   OH210033   0.153   2.571   3.142
 3363TIP3    H110034   0.195   2.533   3.221
 3363TIP3    H210035   0.169   2.666   3.160
 3364TIP3   OH210036   0.009   3.998   2.623
 3364TIP3    H110037   0.097   4.021   2.587
 3364TIP3    H210038  -0.014   3.924   2.562
 3365TIP3   OH210039   0.712   4.122   2.716
 3365TIP3    H110040   0.704   4.025   2.702
 3365TIP3    H210041   0.674   4.155   2.632
 3366TIP3   OH210042  -0.063   2.661   4.493
 3366TIP3    H110043  -0.101   2.588   4.547
 3366TIP3    H210044   0.029   2.658   4.527
 3367TIP3   OH210045   0.185   2.652   4.624
 3367TIP3    H110046   0.270   2.627   4.584
 3367TIP3    H210047   0.171   2.579   4.688
 3368TIP3   OH210048   1.016   2.715   4.407
 3368TIP3    H110049   1.034   2.686   4.499
 3368TIP3    H210050   1.106   2.710   4.367
 3369TIP3   OH210051   0.946   4.264   3.903
 3369TIP3    H110052   0.870   4.236   3.848
 3369TIP3    H210053   0.930   4.361   3.905
 3370TIP3   OH210054   2.218   3.639   2.663
 3370TIP3    H110055   2.187   3.730   2.642
 3370TIP3    H210056   2.142   3.587   2.631
 3371TIP3   OH210057   2.217   3.639   3.052
 3371TIP3    H110058   2.252   3.614   3.140
 3371TIP3    H210059   2.176   3.556   3.023
 3372TIP3   OH210060   1.512   3.531   3.418
 3372TIP3    H110061   1.544   3.462   3.479
 3372TIP3    H210062   1.594   3.581   3.403
 3373TIP3   OH210063   2.462   3.943   2.731
 3373TIP3    H110064   2.446   3.873   2.797
 3373TIP3    H210065   2.493   4.016   2.787
 3374TIP3   OH210066   1.489   3.942   3.137
 3374TIP3    H110067   1.480   3.845   3.137
 3374TIP3    H210068   1.586   3.952   3.129
 3375TIP3   OH210069   1.191   3.140   2.920
 3375TIP3    H110070   1.145   3.224   2.934
 3375TIP3    H210071   1.121   3.091   2.871
 3376TIP3   OH210072   1.249   3.431   3.099
 3376TIP3    H110073   1.301   3.354   3.131
 3376TIP3    H210074   1.309   3.469   3.033
 3377TIP3   OH210075   2.114   4.404   2.749
 3377TIP3    H110076   2.156   4.332   2.697
 3377TIP3    H210077   2.103   4.361   2.835
 3378TIP3   OH210078   2.014   3.865   3.097
 3378TIP3    H110079   2.055   3.787   3.054
 3378TIP3    H210080   2.096   3.912   3.122
 3379TIP3   OH210081   3.032   3.183   3.094
 3379TIP3    H110082   3.061   3.266   3.137
 3379TIP3    H210083   3.054   3.201   3.001
 3380TIP3   OH210084   2.427   3.364   3.126
 3380TIP3    H110085   2.470   3.279   3.147
 3380TIP3    H210086   2.395   3.345   3.035
 3381TIP3   OH210087   1.770   3.024   3.091
 3381TIP3    H110088   1.748   3.097   3.029
 3381TIP3    H210089   1.721   2.950   3.048
 3382TIP3   OH210090   2.462   3.116   2.712
 3382TIP3    H110091   2.533   3.101   2.779
 3382TIP3    H210092   2.516   3.150   2.639
 3383TIP3   OH210093   1.398   3.224   3.201
 3383TIP3    H110094   1.482   3.207   3.247
 3383TIP3    H210095   1.413   3.170   3.120
 3384TIP3   OH210096   1.838   3.423   2.999
 3384TIP3    H110097   1.933   3.399   3.009
 3384TIP3    H210098   1.800   3.339   2.964
 3385TIP3   OH210099   3.104   3.392   3.264
 3385TIP3    H110100   3.018   3.437   3.248
 3385TIP3    H210101   3.127   3.426   3.352
 3386TIP3   OH210102   1.768   3.007   3.525
 3386TIP3    H110103   1.707   3.041   3.458
 3386TIP3    H210104   1.714   3.019   3.606
 3387TIP3   OH210105   2.107   3.859   2.532
 3387TIP3    H110106   2.063   3.842   2.448
 3387TIP3    H210107   2.061   3.941   2.561
 3388TIP3   OH210108   1.869   3.783   3.318
 3388TIP3    H110109   1.809   3.853   3.355
 3388TIP3    H210110   1.912   3.831   3.245
 3389TIP3   OH210111   2.666   3.121   2.891
 3389TIP3    H110112   2.653   3.078   2.976
 3389TIP3    H210113   2.719   3.200   2.917
 3390TIP3   OH210114   1.634   3.122   3.310
 3390TIP3    H110115   1.696   3.194   3.335
 3390TIP3    H210116   1.684   3.081   3.236
 3391TIP3   OH210117   1.698   3.980   3.420
 3391TIP3    H110118   1.672   4.067   3.383
 3391TIP3    H210119   1.619   3.963   3.475
 3392TIP3   OH210120   1.084   3.666   2.659
 3392TIP3    H110121   1.052   3.685   2.568
 3392TIP3    H210122   1.116   3.754   2.688
 3393TIP3   OH210123   2.529   4.186   2.895
 3393TIP3    H110124   2.439   4.176   2.935
 3393TIP3    H210125   2.519   4.272   2.850
 3394TIP3   OH210126   2.822   3.087   3.258
 3394TIP3    H110127   2.735   3.114   3.223
 3394TIP3    H210128   2.883   3.118   3.188
 3395TIP3   OH210129   2.123   2.750   3.230
 3395TIP3    H110130   2.119   2.654   3.235
 3395TIP3    H210131   2.043   2.777   3.281
 3396TIP3   OH210132   2.228   4.229   2.566
 3396TIP3    H110133   2.278   4.146   2.549
 3396TIP3    H210134   2.291   4.294   2.526
 3397TIP3   OH210135   2.374   4.014   2.480
 3397TIP3    H110136   2.331   3.935   2.447
 3397TIP3    H210137   2.413   3.981   2.564
 3398TIP3   OH210138   2.754   4.095   3.239
 3398TIP3    H110139   2.742   4.017   3.180
 3398TIP3    H210140   2.737   4.169   3.178
 3399TIP3   OH210141   2.048   3.489   2.500
 3399TIP3    H110142   1.968   3.542   2.480
 3399TIP3    H210143   2.093   3.487   2.413
 3400TIP3   OH210144   2.006   3.278   2.207
 3400TIP3    H110145   2.072   3.329   2.258
 3400TIP3    H210146   2.064   3.214   2.162
 3401TIP3   OH210147   2.949   3.733   3.085
 3401TIP3    H110148   2.866   3.785   3.090
 3401TIP3    H210149   2.981   3.758   2.996
 3402TIP3   OH210150   2.396   3.573   2.467
 3402TIP3    H110151   2.342   3.596   2.545
 3402TIP3    H210152   2.480   3.548   2.510
 3403TIP3   OH210153   2.629   3.609   3.386
 3403TIP3    H110154   2.627   3.692   3.438
 3403TIP3    H210155   2.543   3.615   3.340
 3404TIP3   OH210156   1.627   3.569   2.887
 3404TIP3    H110157   1.585   3.511   2.820
 3404TIP3    H210158   1.703   3.514   2.917
 3405TIP3   OH210159   1.757   3.981   3.033
 3405TIP3    H110160   1.737   3.946   2.945
 3405TIP3    H210161   1.846   3.944   3.051
 3406TIP3   OH210162   1.758   3.542   3.241
 3406TIP3    H110163   1.793   3.515   3.154
 3406TIP3    H210164   1.805   3.626   3.258
 3407TIP3   OH210165   2.289   4.179   3.018
 3407TIP3    H110166   2.277   4.258   3.073
 3407TIP3    H210167   2.273   4.105   3.081
 3408TIP3   OH210168   1.903   4.098   3.564
 3408TIP3    H110169   1.842   4.158   3.611
 3408TIP3    H210170   1.839   4.044   3.513
 3409TIP3   OH210171   2.234   3.431   2.294
 3409TIP3    H110172   2.293   3.491   2.345
 3409TIP3    H210173   2.261   3.452   2.201
 3410TIP3   OH210174   1.660   3.652   3.671
 3410TIP3    H110175   1.663   3.741   3.712
 3410TIP3    H210176   1.564   3.632   3.680
 3411TIP3   OH210177   1.982   4.105   2.571
 3411TIP3    H110178   2.063   4.159   2.579
 3411TIP3    H210179   1.920   4.167   2.529
 3412TIP3   OH210180   1.696   4.263   3.651
 3412TIP3    H110181   1.661   4.266   3.560
 3412TIP3    H210182   1.615   4.242   3.704
 3413TIP3   OH210183   2.751   2.669   2.345
 3413TIP3    H110184   2.669   2.691   2.394
 3413TIP3    H210185   2.766   2.752   2.294
 3414TIP3   OH210186   1.493   3.413   2.692
 3414TIP3    H110187   1.425   3.459   2.637
 3414TIP3    H210188   1.455   3.324   2.696
 3415TIP3   OH210189   2.551   4.036   1.892
 3415TIP3    H110190   2.560   4.132   1.878
 3415TIP3    H210191   2.644   4.006   1.880
 3416TIP3   OH210192   1.273   3.797   3.599
 3416TIP3    H110193   1.210   3.774   3.528
 3416TIP3    H210194   1.313   3.711   3.621
 3417TIP3   OH210195   1.129   3.986   3.238
 3417TIP3    H110196   1.224   3.983   3.221
 3417TIP3    H210197   1.121   4.069   3.287
 3418TIP3   OH210198   2.991   4.442   3.287
 3418TIP3    H110199   2.992   4.345   3.303
 3418TIP3    H210200   2.909   4.467   3.334
 3419TIP3   OH210201   2.098   4.226   3.421
 3419TIP3    H110202   2.095   4.319   3.454
 3419TIP3    H210203   2.027   4.185   3.475
 3420TIP3   OH210204   1.864   4.355   2.373
 3420TIP3    H110205   1.813   4.336   2.292
 3420TIP3    H210206   1.828   4.441   2.401
 3421TIP3   OH210207   1.300   4.206   2.759
 3421TIP3    H110208   1.344   4.194   2.845
 3421TIP3    H210209   1.237   4.132   2.759
 3422TIP3   OH210210   2.061   4.257   2.011
 3422TIP3    H110211   2.120   4.187   1.976
 3422TIP3    H210212   2.095   4.267   2.103
 3423TIP3   OH210213   2.114   4.305   2.280
 3423TIP3    H110214   2.026   4.315   2.321
 3423TIP3    H210215   2.164   4.264   2.353
 3424TIP3   OH210216   2.882   3.569   3.563
 3424TIP3    H110217   2.799   3.578   3.514
 3424TIP3    H210218   2.899   3.473   3.555
 3425TIP3   OH210219   1.479   3.979   3.585
 3425TIP3    H110220   1.529   3.962   3.667
 3425TIP3    H210221   1.405   3.916   3.592
 3426TIP3   OH210222   1.888   2.796   3.371
 3426TIP3    H110223   1.798   2.763   3.352
 3426TIP3    H210224   1.865   2.869   3.431
 3427TIP3   OH210225   2.418   2.911   3.564
 3427TIP3    H110226   2.489   2.888   3.627
 3427TIP3    H210227   2.337   2.898   3.617
 3428TIP3   OH210228   2.647   3.345   3.483
 3428TIP3    H110229   2.598   3.343   3.569
 3428TIP3    H210230   2.626   3.434   3.449
 3429TIP3   OH210231   2.309   3.472   2.037
 3429TIP3    H110232   2.277   3.448   1.948
 3429TIP3    H210233   2.394   3.516   2.015
 3430TIP3   OH210234   2.025   2.849   2.344
 3430TIP3    H110235   1.988   2.846   2.435
 3430TIP3    H210236   1.984   2.768   2.307
 3431TIP3   OH210237   1.810   3.319   3.389
 3431TIP3    H110238   1.762   3.340   3.472
 3431TIP3    H210239   1.793   3.400   3.337
 3432TIP3   OH210240   1.694   3.205   2.904
 3432TIP3    H110241   1.601   3.180   2.922
 3432TIP3    H210242   1.706   3.164   2.816
 3433TIP3   OH210243   2.185   3.289   2.634
 3433TIP3    H110244   2.135   3.361   2.589
 3433TIP3    H210245   2.240   3.255   2.561
 3434TIP3   OH210246   2.359   3.564   3.715
 3434TIP3    H110247   2.338   3.493   3.778
 3434TIP3    H210248   2.453   3.580   3.738
 3435TIP3   OH210249   2.340   3.315   2.869
 3435TIP3    H110250   2.278   3.342   2.799
 3435TIP3    H210251   2.376   3.236   2.825
 3436TIP3   OH210252   1.629   3.346   3.599
 3436TIP3    H110253   1.668   3.407   3.664
 3436TIP3    H210254   1.622   3.263   3.650
 3437TIP3   OH210255   1.683   2.825   2.309
 3437TIP3    H110256   1.668   2.823   2.405
 3437TIP3    H210257   1.604   2.874   2.279
 3438TIP3   OH210258   1.221   2.865   3.186
 3438TIP3    H110259   1.298   2.900   3.235
 3438TIP3    H210260   1.258   2.841   3.100
 3439TIP3   OH210261   1.188   2.851   2.703
 3439TIP3    H110262   1.230   2.885   2.620
 3439TIP3    H210263   1.125   2.924   2.719
 3440TIP3   OH210264   2.349   3.562   3.290
 3440TIP3    H110265   2.384   3.490   3.232
 3440TIP3    H210266   2.321   3.508   3.367
 3441TIP3   OH210267   2.025   3.022   2.964
 3441TIP3    H110268   1.944   3.025   3.018
 3441TIP3    H210269   2.095   3.023   3.031
 3442TIP3   OH210270   1.454   3.083   2.972
 3442TIP3    H110271   1.360   3.090   2.943
 3442TIP3    H210272   1.479   2.992   2.947
 3443TIP3   OH210273   1.721   3.077   2.664
 3443TIP3    H110274   1.814   3.093   2.640
 3443TIP3    H210275   1.673   3.100   2.581
 3444TIP3   OH210276   2.514   3.103   3.167
 3444TIP3    H110277   2.483   3.115   3.259
 3444TIP3    H210278   2.444   3.044   3.132
 3445TIP3   OH210279   1.572   3.115   2.441
 3445TIP3    H110280   1.501   3.068   2.393
 3445TIP3    H210281   1.624   3.149   2.366
 3446TIP3   OH210282   2.687   4.791   3.388
 3446TIP3    H110283   2.686   4.815   3.294
 3446TIP3    H210284   2.768   4.837   3.419
 3447TIP3   OH210285   1.642   3.902   3.808
 3447TIP3    H110286   1.723   3.929   3.855
 3447TIP3    H210287   1.578   3.901   3.882
 3448TIP3   OH210288   2.104   3.355   3.061
 3448TIP3    H110289   2.179   3.318   3.013
 3448TIP3    H210290   2.111   3.311   3.148
 3449TIP3   OH210291   1.624   2.842   2.943
 3449TIP3    H110292   1.587   2.765   2.991
 3449TIP3    H210293   1.661   2.801   2.864
 3450TIP3   OH210294   2.081   3.256   3.350
 3450TIP3    H110295   1.991   3.291   3.366
 3450TIP3    H210296   2.138   3.317   3.401
 3451TIP3   OH210297   1.819   3.642   2.447
 3451TIP3    H110298   1.748   3.574   2.436
 3451TIP3    H210299   1.798   3.676   2.538
 3452TIP3   OH210300   2.716   3.879   3.073
 3452TIP3    H110301   2.740   3.929   2.992
 3452TIP3    H210302   2.632   3.835   3.046
 3453TIP3   OH210303   2.275   2.952   2.311
 3453TIP3    H110304   2.179   2.932   2.322
 3453TIP3    H210305   2.281   3.046   2.339
 3454TIP3   OH210306   2.215   3.960   3.444
 3454TIP3    H110307   2.249   3.942   3.533
 3454TIP3    H210308   2.178   4.049   3.453
 3455TIP3   OH210309   2.343   3.202   2.416
 3455TIP3    H110310   2.439   3.208   2.431
 3455TIP3    H210311   2.325   3.283   2.365
 3456TIP3   OH210312   1.510   3.664   3.120
 3456TIP3    H110313   1.547   3.637   3.034
 3456TIP3    H210314   1.560   3.607   3.181
 3457TIP3   OH210315   1.962   3.791   2.269
 3457TIP3    H110316   1.913   3.877   2.273
 3457TIP3    H210317   1.907   3.736   2.330
 3458TIP3   OH210318   1.392   3.588   3.738
 3458TIP3    H110319   1.417   3.574   3.832
 3458TIP3    H210320   1.327   3.517   3.724
 3459TIP3   OH210321   2.121   3.702   3.754
 3459TIP3    H110322   2.061   3.642   3.707
 3459TIP3    H210323   2.208   3.666   3.728
 3460TIP3   OH210324   2.375   4.222   3.340
 3460TIP3    H110325   2.279   4.220   3.354
 3460TIP3    H210326   2.404   4.273   3.419
 3461TIP3   OH210327   2.784   3.295   2.249
 3461TIP3    H110328   2.722   3.251   2.186
 3461TIP3    H210329   2.781   3.385   2.209
 3462TIP3   OH210330   3.004   4.152   3.328
 3462TIP3    H110331   2.906   4.145   3.319
 3462TIP3    H210332   3.031   4.122   3.238
 3463TIP3   OH210333   2.489   4.112   2.159
 3463TIP3    H110334   2.460   4.044   2.221
 3463TIP3    H210335   2.500   4.063   2.075
 3464TIP3   OH210336   2.482   3.742   2.989
 3464TIP3    H110337   2.389   3.717   3.004
 3464TIP3    H210338   2.516   3.661   2.946
 3465TIP3   OH210339   1.612   3.971   2.749
 3465TIP3    H110340   1.607   4.051   2.694
 3465TIP3    H210341   1.518   3.949   2.758
 3466TIP3   OH210342   1.179   3.265   2.451
 3466TIP3    H110343   1.221   3.352   2.467
 3466TIP3    H210344   1.099   3.273   2.507
 3467TIP3   OH210345   1.744   3.733   2.690
 3467TIP3    H110346   1.710   3.823   2.710
 3467TIP3    H210347   1.709   3.682   2.765
 3468TIP3   OH210348   1.882   4.311   3.216
 3468TIP3    H110349   1.925   4.383   3.166
 3468TIP3    H210350   1.958   4.273   3.264
 3469TIP3   OH210351   1.529   4.208   2.600
 3469TIP3    H110352   1.443   4.215   2.647
 3469TIP3    H210353   1.559   4.301   2.602
 3470TIP3   OH210354   2.266   3.946   3.176
 3470TIP3    H110355   2.255   3.944   3.274
 3470TIP3    H210356   2.346   3.893   3.165
 3471TIP3   OH210357   2.245   3.843   2.059
 3471TIP3    H110358   2.299   3.816   2.137
 3471TIP3    H210359   2.158   3.812   2.086
 3472TIP3   OH210360   2.516   4.477   3.226
 3472TIP3    H110361   2.436   4.420   3.221
 3472TIP3    H210362   2.499   4.541   3.153
 3473TIP3   OH210363   2.582   4.312   1.876
 3473TIP3    H110364   2.620   4.388   1.828
 3473TIP3    H210365   2.502   4.355   1.912
 3474TIP3   OH210366   1.603   3.089   3.741
 3474TIP3    H110367   1.507   3.086   3.756
 3474TIP3    H210368   1.637   3.032   3.813
 3475TIP3   OH210369   2.406   3.771   2.271
 3475TIP3    H110370   2.395   3.707   2.344
 3475TIP3    H210371   2.504   3.768   2.261
 3476TIP3   OH210372   1.319   4.173   3.376
 3476TIP3    H110373   1.373   4.101   3.409
 3476TIP3    H210374   1.351   4.247   3.429
 3477TIP3   OH210375   1.605   3.817   2.058
 3477TIP3    H110376   1.616   3.724   2.032
 3477TIP3    H210377   1.584   3.808   2.153
 3478TIP3   OH210378   1.553   3.831   2.329
 3478TIP3    H110379   1.622   3.798   2.388
 3478TIP3    H210380   1.560   3.928   2.341
 3479TIP3   OH210381   1.288   3.519   2.537
 3479TIP3    H110382   1.220   3.563   2.591
 3479TIP3    H210383   1.298   3.584   2.464
 3480TIP3   OH210384   2.442   3.152   3.427
 3480TIP3    H110385   2.522   3.194   3.464
 3480TIP3    H210386   2.432   3.071   3.481
 3481TIP3   OH210387   2.321   2.901   2.596
 3481TIP3    H110388   2.308   2.924   2.502
 3481TIP3    H210389   2.361   2.984   2.631
 3482TIP3   OH210390   1.823   4.023   2.278
 3482TIP3    H110391   1.736   4.046   2.316
 3482TIP3    H210392   1.835   4.099   2.219
 3483TIP3   OH210393   2.006   3.087   2.694
 3483TIP3    H110394   2.070   3.159   2.678
 3483TIP3    H210395   2.012   3.077   2.792
 3484TIP3   OH210396   2.279   3.401   3.499
 3484TIP3    H110397   2.303   3.454   3.578
 3484TIP3    H210398   2.332   3.321   3.511
 3485TIP3   OH210399   2.149   2.805   2.793
 3485TIP3    H110400   2.141   2.882   2.852
 3485TIP3    H210401   2.212   2.839   2.725
 3486TIP3   OH210402   1.570   4.102   2.349
 3486TIP3    H110403   1.537   4.172   2.289
 3486TIP3    H210404   1.551   4.142   2.437
 3487TIP3   OH210405   1.664   2.812   2.586
 3487TIP3    H110406   1.661   2.903   2.621
 3487TIP3    H210407   1.760   2.795   2.592
 3488TIP3   OH210408   2.914   3.303   3.483
 3488TIP3    H110409   2.816   3.301   3.489
 3488TIP3    H210410   2.927   3.258   3.399
 3489TIP3   OH210411   2.568   3.497   2.870
 3489TIP3    H110412   2.492   3.438   2.882
 3489TIP3    H210413   2.639   3.451   2.918
 3490TIP3   OH210414   1.283   3.726   2.343
 3490TIP3    H110415   1.358   3.788   2.347
 3490TIP3    H210416   1.320   3.663   2.277
 3491TIP3   OH210417   1.223   2.994   2.474
 3491TIP3    H110418   1.219   3.091   2.468
 3491TIP3    H210419   1.176   2.966   2.394
 3492TIP3   OH210420   2.537   4.457   2.817
 3492TIP3    H110421   2.495   4.504   2.742
 3492TIP3    H210422   2.632   4.476   2.797
 3493TIP3   OH210423   1.615   2.722   3.346
 3493TIP3    H110424   1.584   2.688   3.259
 3493TIP3    H210425   1.614   2.642   3.402
 3494TIP3   OH210426   1.146   3.936   2.725
 3494TIP3    H110427   1.082   3.974   2.786
 3494TIP3    H210428   1.118   3.976   2.639
 3495TIP3   OH210429   1.312   4.488   3.800
 3495TIP3    H110430   1.399   4.489   3.846
 3495TIP3    H210431   1.295   4.393   3.796
 3496TIP3   OH210432   1.786   4.444   3.842
 3496TIP3    H110433   1.881   4.426   3.851
 3496TIP3    H210434   1.763   4.383   3.770
 3497TIP3   OH210435   1.770   4.019   1.968
 3497TIP3    H110436   1.713   3.948   2.007
 3497TIP3    H210437   1.847   3.966   1.941
 3498TIP3   OH210438   2.429   4.355   3.575
 3498TIP3    H110439   2.420   4.284   3.643
 3498TIP3    H210440   2.507   4.405   3.607
 3499TIP3   OH210441   2.207   4.060   1.884
 3499TIP3    H110442   2.245   3.994   1.945
 3499TIP3    H210443   2.266   4.055   1.807
 3500TIP3   OH210444   1.438   3.890   3.999
 3500TIP3    H110445   1.456   3.795   4.007
 3500TIP3    H210446   1.352   3.891   3.951
 3501TIP3   OH210447   1.436   3.550   2.209
 3501TIP3    H110448   1.495   3.509   2.274
 3501TIP3    H210449   1.489   3.547   2.128
 3502TIP3   OH210450   2.045   3.977   3.773
 3502TIP3    H110451   2.006   3.996   3.685
 3502TIP3    H210452   2.078   3.885   3.763
 3503TIP3   OH210453   1.934   3.740   1.999
 3503TIP3    H110454   1.934   3.751   2.097
 3503TIP3    H210455   1.932   3.642   1.993
 3504TIP3   OH210456   2.539   3.988   3.379
 3504TIP3    H110457   2.616   4.029   3.336
 3504TIP3    H210458   2.470   4.055   3.363
 3505TIP3   OH210459   1.560   3.622   3.980
 3505TIP3    H110460   1.641   3.579   3.951
 3505TIP3    H210461   1.587   3.656   4.068
 3506TIP3   OH210462   1.631   3.443   2.416
 3506TIP3    H110463   1.596   3.402   2.497
 3506TIP3    H210464   1.665   3.365   2.367
 3507TIP3   OH210465   1.891   3.504   3.639
 3507TIP3    H110466   1.816   3.568   3.642
 3507TIP3    H210467   1.945   3.540   3.564
 3508TIP3   OH210468   1.728   3.239   2.253
 3508TIP3    H110469   1.701   3.247   2.159
 3508TIP3    H210470   1.826   3.242   2.244
 3509TIP3   OH210471   2.412   3.909   3.774
 3509TIP3    H110472   2.490   3.877   3.728
 3509TIP3    H210473   2.406   3.847   3.848
 3510TIP3   OH210474   2.544   3.567   1.921
 3510TIP3    H110475   2.526   3.523   1.836
 3510TIP3    H210476   2.511   3.657   1.899
 3511TIP3   OH210477   2.017   3.299   3.767
 3511TIP3    H110478   2.019   3.220   3.708
 3511TIP3    H210479   1.973   3.365   3.710
 3512TIP3   OH210480   2.023   3.089   3.575
 3512TIP3    H110481   2.050   3.130   3.490
 3512TIP3    H210482   1.930   3.064   3.556
 3513TIP3   OH210483   2.043   3.617   3.449
 3513TIP3    H110484   2.129   3.630   3.409
 3513TIP3    H210485   1.988   3.683   3.402
 3514TIP3   OH210486   2.626   3.584   3.825
 3514TIP3    H110487   2.673   3.502   3.848
 3514TIP3    H210488   2.698   3.638   3.788
 3515TIP3   OH210489   2.669   3.839   3.563
 3515TIP3    H110490   2.611   3.894   3.506
 3515TIP3    H210491   2.757   3.860   3.525
 3516TIP3   OH210492   1.891   3.406   3.996
 3516TIP3    H110493   1.827   3.334   4.014
 3516TIP3    H210494   1.929   3.377   3.911
 3517TIP3   OH210495   2.150   2.855   3.647
 3517TIP3    H110496   2.112   2.943   3.625
 3517TIP3    H210497   2.077   2.797   3.622
 3518TIP3   OH210498   2.279   3.348   3.860
 3518TIP3    H110499   2.268   3.336   3.956
 3518TIP3    H210500   2.189   3.325   3.830
 3519TIP3   OH210501   2.515   3.298   3.713
 3519TIP3    H110502   2.442   3.301   3.778
 3519TIP3    H210503   2.591   3.270   3.768
 3520TIP3   OH210504   2.744   3.240   3.859
 3520TIP3    H110505   2.759   3.145   3.878
 3520TIP3    H210506   2.740   3.279   3.949
 3521TIP3   OH210507   1.731   3.190   4.058
 3521TIP3    H110508   1.733   3.097   4.027
 3521TIP3    H210509   1.771   3.179   4.147
 3522TIP3   OH210510   2.242   2.853   3.907
 3522TIP3    H110511   2.312   2.785   3.898
 3522TIP3    H210512   2.205   2.853   3.816
 3523TIP3   OH210513   2.310   3.070   4.064
 3523TIP3    H110514   2.289   2.999   3.999
 3523TIP3    H210515   2.233   3.129   4.057
 3524TIP3   OH210516   1.537   4.306   2.162
 3524TIP3    H110517   1.631   4.293   2.141
 3524TIP3    H210518   1.508   4.353   2.081
 3525TIP3   OH210519   1.013   3.680   2.392
 3525TIP3    H110520   1.101   3.707   2.359
 3525TIP3    H210521   1.002   3.594   2.344
 3526TIP3   OH210522   0.967   4.252   2.742
 3526TIP3    H110523   0.872   4.231   2.735
 3526TIP3    H210524   0.986   4.223   2.833
 3527TIP3   OH210525   1.064   4.141   2.982
 3527TIP3    H110526   1.052   4.072   3.049
 3527TIP3    H210527   1.116   4.206   3.033
 3528TIP3   OH210528   2.792   4.546   2.778
 3528TIP3    H110529   2.819   4.574   2.868
 3528TIP3    H210530   2.861   4.585   2.723
 3529TIP3   OH210531   2.821   4.563   3.060
 3529TIP3    H110532   2.775   4.477   3.057
 3529TIP3    H210533   2.895   4.539   3.119
 3530TIP3   OH210534   2.866   4.242   3.632
 3530TIP3    H110535   2.793   4.253   3.697
 3530TIP3    H210536   2.910   4.330   3.637
 3531TIP3   OH210537   2.685   3.754   2.251
 3531TIP3    H110538   2.751   3.818   2.221
 3531TIP3    H210539   2.729   3.716   2.331
 3532TIP3   OH210540   2.811   3.621   2.456
 3532TIP3    H110541   2.745   3.580   2.515
 3532TIP3    H210542   2.877   3.657   2.519
 3533TIP3   OH210543   2.867   4.015   2.886
 3533TIP3    H110544   2.921   3.947   2.841
 3533TIP3    H210545   2.863   4.086   2.819
 3534TIP3   OH210546   2.694   4.316   3.080
 3534TIP3    H110547   2.623   4.355   3.132
 3534TIP3    H210548   2.645   4.269   3.009
 3535TIP3   OH210549   2.748   3.530   2.100
 3535TIP3    H110550   2.676   3.532   2.034
 3535TIP3    H210551   2.720   3.606   2.156
 3536TIP3   OH210552   2.618   3.203   2.054
 3536TIP3    H110553   2.574   3.235   1.975
 3536TIP3    H210554   2.597   3.107   2.049
 3537TIP3   OH210555   2.623   3.480   2.600
 3537TIP3    H110556   2.631   3.384   2.593
 3537TIP3    H210557   2.609   3.493   2.697
 3538TIP3   OH210558   1.249   3.551   3.351
 3538TIP3    H110559   1.246   3.518   3.259
 3538TIP3    H210560   1.346   3.553   3.367
 3539TIP3   OH210561   2.915   3.905   3.459
 3539TIP3    H110562   2.985   3.837   3.449
 3539TIP3    H210563   2.943   3.973   3.396
 3540TIP3   OH210564   3.096   3.705   3.468
 3540TIP3    H110565   3.023   3.654   3.509
 3540TIP3    H210566   3.170   3.642   3.483
 3541TIP3   OH210567   2.563   2.937   2.039
 3541TIP3    H110568   2.637   2.904   2.093
 3541TIP3    H210569   2.490   2.876   2.060
 3542TIP3   OH210570   2.621   3.196   2.493
 3542TIP3    H110571   2.661   3.107   2.507
 3542TIP3    H210572   2.680   3.229   2.422
 3543TIP3   OH210573   2.780   3.365   2.991
 3543TIP3    H110574   2.866   3.390   2.949
 3543TIP3    H210575   2.795   3.403   3.080
 3544TIP3   OH210576   2.852   3.512   3.220
 3544TIP3    H110577   2.776   3.547   3.270
 3544TIP3    H210578   2.886   3.593   3.176
 3545TIP3   OH210579   1.465   3.235   4.016
 3545TIP3    H110580   1.563   3.234   4.023
 3545TIP3    H210581   1.445   3.149   4.060
 3546TIP3   OH210582   3.301   3.105   3.776
 3546TIP3    H110583   3.364   3.044   3.732
 3546TIP3    H210584   3.270   3.160   3.701
 3547TIP3   OH210585   2.728   2.947   2.531
 3547TIP3    H110586   2.778   2.930   2.614
 3547TIP3    H210587   2.668   2.869   2.531
 3548TIP3   OH210588   1.429   2.932   3.359
 3548TIP3    H110589   1.492   2.857   3.364
 3548TIP3    H210590   1.491   3.006   3.347
 3549TIP3   OH210591   1.229   3.204   3.424
 3549TIP3    H110592   1.279   3.198   3.340
 3549TIP3    H210593   1.261   3.288   3.459
 3550TIP3   OH210594   3.170   3.240   3.582
 3550TIP3    H110595   3.087   3.286   3.605
 3550TIP3    H210596   3.136   3.169   3.525
 3551TIP3   OH210597   2.807   2.877   2.166
 3551TIP3    H110598   2.847   2.806   2.111
 3551TIP3    H210599   2.876   2.946   2.163
 3552TIP3   OH210600   1.217   2.713   2.932
 3552TIP3    H110601   1.123   2.704   2.951
 3552TIP3    H210602   1.216   2.769   2.851
 3553TIP3   OH210603   2.374   4.414   2.432
 3553TIP3    H110604   2.427   4.402   2.351
 3553TIP3    H210605   2.429   4.477   2.482
 3554TIP3   OH210606   1.437   2.787   3.741
 3554TIP3    H110607   1.387   2.791   3.824
 3554TIP3    H210608   1.371   2.824   3.678
 3555TIP3   OH210609   1.475   4.221   3.815
 3555TIP3    H110610   1.382   4.193   3.802
 3555TIP3    H210611   1.490   4.197   3.908
 3556TIP3   OH210612   1.655   4.252   3.366
 3556TIP3    H110613   1.608   4.328   3.326
 3556TIP3    H210614   1.741   4.264   3.321
 3557TIP3   OH210615   2.095   4.493   3.503
 3557TIP3    H110616   2.138   4.491   3.591
 3557TIP3    H210617   2.162   4.545   3.452
 3558TIP3   OH210618   2.276   4.647   3.364
 3558TIP3    H110619   2.346   4.595   3.323
 3558TIP3    H210620   2.329   4.703   3.425
 3559TIP3   OH210621   3.070   3.007   3.462
 3559TIP3    H110622   2.979   2.994   3.431
 3559TIP3    H210623   3.105   2.915   3.450
 3560TIP3   OH210624   1.331   4.505   3.391
 3560TIP3    H110625   1.240   4.535   3.366
 3560TIP3    H210626   1.341   4.552   3.475
 3561TIP3   OH210627   1.566   4.485   3.248
 3561TIP3    H110628   1.479   4.497   3.292
 3561TIP3    H210629   1.547   4.516   3.158
 3562TIP3   OH210630   1.992   4.511   3.047
 3562TIP3    H110631   1.920   4.528   2.982
 3562TIP3    H210632   2.003   4.598   3.088
 3563TIP3   OH210633   2.261   4.450   3.099
 3563TIP3    H110634   2.167   4.468   3.078
 3563TIP3    H210635   2.306   4.524   3.054
 3564TIP3   OH210636   2.467   4.641   3.011
 3564TIP3    H110637   2.453   4.725   2.962
 3564TIP3    H210638   2.494   4.581   2.939
 3565TIP3   OH210639   1.240   4.299   3.134
 3565TIP3    H110640   1.267   4.273   3.224
 3565TIP3    H210641   1.313   4.257   3.083
 3566TIP3   OH210642   1.436   4.171   2.995
 3566TIP3    H110643   1.452   4.087   3.044
 3566TIP3    H210644   1.527   4.206   2.989
 3567TIP3   OH210645   1.705   4.264   2.997
 3567TIP3    H110646   1.734   4.171   2.986
 3567TIP3    H210647   1.753   4.285   3.080
 3568TIP3   OH210648   2.283   2.929   3.078
 3568TIP3    H110649   2.235   2.860   3.128
 3568TIP3    H210650   2.355   2.879   3.035
 3569TIP3   OH210651   2.795   2.802   2.977
 3569TIP3    H110652   2.831   2.854   2.901
 3569TIP3    H210653   2.700   2.825   2.973
 3570TIP3   OH210654   2.894   2.903   2.745
 3570TIP3    H110655   2.968   2.850   2.709
 3570TIP3    H210656   2.929   2.994   2.731
 3571TIP3   OH210657   1.522   2.631   3.098
 3571TIP3    H110658   1.429   2.599   3.097
 3571TIP3    H210659   1.569   2.545   3.093
 3572TIP3   OH210660   1.322   2.501   2.750
 3572TIP3    H110661   1.353   2.552   2.673
 3572TIP3    H210662   1.293   2.571   2.811
 3573TIP3   OH210663   1.979   2.659   2.982
 3573TIP3    H110664   2.028   2.703   2.911
 3573TIP3    H210665   1.993   2.719   3.056
 3574TIP3   OH210666   2.509   2.807   2.961
 3574TIP3    H110667   2.518   2.765   2.874
 3574TIP3    H210668   2.499   2.728   3.019
 3575TIP3   OH210669   2.546   2.734   2.525
 3575TIP3    H110670   2.460   2.776   2.542
 3575TIP3    H210671   2.533   2.647   2.569
 3576TIP3   OH210672   1.037   4.066   2.518
 3576TIP3    H110673   0.950   4.042   2.481
 3576TIP3    H210674   1.021   4.157   2.547
 3577TIP3   OH210675   1.433   2.645   2.527
 3577TIP3    H110676   1.475   2.592   2.457
 3577TIP3    H210677   1.507   2.704   2.553
 3578TIP3   OH210678   1.941   2.837   2.607
 3578TIP3    H110679   2.003   2.790   2.665
 3578TIP3    H210680   1.962   2.930   2.632
 3579TIP3   OH210681   1.801   4.254   2.106
 3579TIP3    H110682   1.890   4.277   2.070
 3579TIP3    H210683   1.779   4.179   2.046
 3580TIP3   OH210684   2.523   4.379   2.201
 3580TIP3    H110685   2.515   4.281   2.191
 3580TIP3    H210686   2.476   4.409   2.121
 3581TIP3   OH210687   1.729   2.925   3.997
 3581TIP3    H110688   1.695   2.841   4.032
 3581TIP3    H210689   1.824   2.916   4.020
 3582TIP3   OH210690   1.983   2.907   4.108
 3582TIP3    H110691   2.069   2.885   4.068
 3582TIP3    H210692   1.972   2.835   4.173
 3583TIP3   OH210693   1.105   4.099   2.163
 3583TIP3    H110694   1.096   4.113   2.258
 3583TIP3    H210695   1.193   4.055   2.157
 3584TIP3   OH210696   2.811   2.969   3.893
 3584TIP3    H110697   2.829   2.939   3.985
 3584TIP3    H210698   2.901   2.965   3.854
 3585TIP3   OH210699   2.744   4.521   3.387
 3585TIP3    H110700   2.666   4.491   3.337
 3585TIP3    H210701   2.725   4.617   3.394
 3586TIP3   OH210702   4.015   3.896   2.149
 3586TIP3    H110703   3.984   3.986   2.129
 3586TIP3    H210704   3.939   3.844   2.119
 3587TIP3   OH210705   4.014   3.894   2.539
 3587TIP3    H110706   4.049   3.872   2.627
 3587TIP3    H210707   3.972   3.811   2.513
 3588TIP3   OH210708   3.309   3.786   2.901
 3588TIP3    H110709   3.338   3.716   2.963
 3588TIP3    H210710   3.387   3.843   2.901
 3589TIP3   OH210711   4.259   4.199   2.218
 3589TIP3    H110712   4.241   4.130   2.283
 3589TIP3    H210713   4.288   4.273   2.274
 3590TIP3   OH210714   3.283   4.199   2.620
 3590TIP3    H110715   3.275   4.101   2.621
 3590TIP3    H210716   3.380   4.209   2.620
 3591TIP3   OH210717   2.991   3.400   2.404
 3591TIP3    H110718   2.943   3.483   2.423
 3591TIP3    H210719   2.920   3.348   2.363
 3592TIP3   OH210720   3.047   3.688   2.585
 3592TIP3    H110721   3.096   3.610   2.619
 3592TIP3    H210722   3.109   3.723   2.520
 3593TIP3   OH210723   3.910   4.660   2.235
 3593TIP3    H110724   3.951   4.588   2.184
 3593TIP3    H210725   3.898   4.619   2.322
 3594TIP3   OH210726   3.811   4.122   2.582
 3594TIP3    H110727   3.851   4.044   2.541
 3594TIP3    H210728   3.893   4.169   2.608
 3595TIP3   OH210729   4.828   3.440   2.582
 3595TIP3    H110730   4.856   3.523   2.625
 3595TIP3    H210731   4.847   3.459   2.489
 3596TIP3   OH210732   4.225   3.621   2.612
 3596TIP3    H110733   4.266   3.535   2.634
 3596TIP3    H210734   4.192   3.602   2.522
 3597TIP3   OH210735   3.566   3.280   2.578
 3597TIP3    H110736   3.544   3.353   2.515
 3597TIP3    H210737   3.516   3.207   2.535
 3598TIP3   OH210738   4.259   3.373   2.199
 3598TIP3    H110739   4.330   3.357   2.266
 3598TIP3    H210740   4.313   3.407   2.126
 3599TIP3   OH210741   3.196   3.482   2.687
 3599TIP3    H110742   3.278   3.463   2.735
 3599TIP3    H210743   3.210   3.426   2.607
 3600TIP3   OH210744   3.635   3.680   2.482
 3600TIP3    H110745   3.729   3.655   2.495
 3600TIP3    H210746   3.597   3.596   2.450
 3601TIP3   OH210747   4.900   3.650   2.750
 3601TIP3    H110748   4.814   3.695   2.733
 3601TIP3    H210749   4.917   3.679   2.841
 3602TIP3   OH210750   3.558   3.263   3.014
 3602TIP3    H110751   3.499   3.301   2.947
 3602TIP3    H210752   3.506   3.281   3.095
 3603TIP3   OH210753   3.904   4.117   2.019
 3603TIP3    H110754   3.860   4.099   1.935
 3603TIP3    H210755   3.858   4.198   2.047
 3604TIP3   OH210756   3.665   4.041   2.805
 3604TIP3    H110757   3.605   4.108   2.843
 3604TIP3    H210758   3.708   4.090   2.732
 3605TIP3   OH210759   4.463   3.377   2.379
 3605TIP3    H110760   4.442   3.337   2.464
 3605TIP3    H210761   4.514   3.456   2.406
 3606TIP3   OH210762   3.431   3.379   2.797
 3606TIP3    H110763   3.492   3.452   2.822
 3606TIP3    H210764   3.481   3.339   2.722
 3607TIP3   OH210765   3.493   4.236   2.905
 3607TIP3    H110766   3.467   4.325   2.872
 3607TIP3    H210767   3.415   4.218   2.962
 3608TIP3   OH210768   2.885   3.926   2.142
 3608TIP3    H110769   2.844   3.954   2.058
 3608TIP3    H210770   2.918   4.011   2.178
 3609TIP3   OH210771   4.325   4.443   2.381
 3609TIP3    H110772   4.236   4.432   2.422
 3609TIP3    H210773   4.315   4.529   2.337
 3610TIP3   OH210774   4.620   3.337   2.746
 3610TIP3    H110775   4.533   3.366   2.716
 3610TIP3    H210776   4.680   3.371   2.676
 3611TIP3   OH210777   3.911   2.980   2.730
 3611TIP3    H110778   3.895   2.886   2.748
 3611TIP3    H210779   3.835   3.020   2.777
 3612TIP3   OH210780   4.024   4.486   2.053
 3612TIP3    H110781   4.075   4.403   2.036
 3612TIP3    H210782   4.087   4.550   2.013
 3613TIP3   OH210783   4.171   4.271   1.967
 3613TIP3    H110784   4.126   4.191   1.935
 3613TIP3    H210785   4.210   4.238   2.051
 3614TIP3   OH210786   4.552   4.352   2.726
 3614TIP3    H110787   4.538   4.274   2.668
 3614TIP3    H210788   4.534   4.426   2.664
 3615TIP3   OH210789   3.844   3.746   1.986
 3615TIP3    H110790   3.764   3.798   1.965
 3615TIP3    H210791   3.889   3.743   1.900
 3616TIP3   OH210792   3.801   3.534   1.696
 3616TIP3    H110793   3.868   3.585   1.746
 3616TIP3    H210794   3.859   3.470   1.649
 3617TIP3   OH210795   4.747   3.991   2.573
 3617TIP3    H110796   4.663   4.041   2.578
 3617TIP3    H210797   4.776   4.016   2.482
 3618TIP3   OH210798   4.193   3.830   1.953
 3618TIP3    H110799   4.138   3.853   2.031
 3618TIP3    H210800   4.277   3.805   1.997
 3619TIP3   OH210801   4.425   3.866   2.872
 3619TIP3    H110802   4.423   3.948   2.926
 3619TIP3    H210803   4.339   3.872   2.827
 3620TIP3   OH210804   3.425   3.825   2.373
 3620TIP3    H110805   3.384   3.767   2.306
 3620TIP3    H210806   3.501   3.771   2.404
 3621TIP3   OH210807   3.556   4.241   2.519
 3621TIP3    H110808   3.535   4.201   2.433
 3621TIP3    H210809   3.644   4.204   2.538
 3622TIP3   OH210810   3.559   3.797   2.727
 3622TIP3    H110811   3.593   3.773   2.638
 3622TIP3    H210812   3.603   3.883   2.745
 3623TIP3   OH210813   4.086   4.435   2.505
 3623TIP3    H110814   4.074   4.514   2.559
 3623TIP3    H210815   4.069   4.362   2.568
 3624TIP3   OH210816   3.699   4.354   3.049
 3624TIP3    H110817   3.639   4.414   3.098
 3624TIP3    H210818   3.634   4.300   3.000
 3625TIP3   OH210819   4.030   3.688   1.782
 3625TIP3    H110820   4.089   3.748   1.832
 3625TIP3    H210821   4.057   3.708   1.689
 3626TIP3   OH210822   3.454   3.911   3.152
 3626TIP3    H110823   3.460   3.997   3.198
 3626TIP3    H210824   3.360   3.889   3.170
 3627TIP3   OH210825   3.778   4.362   2.056
 3627TIP3    H110826   3.859   4.415   2.066
 3627TIP3    H210827   3.717   4.425   2.016
 3628TIP3   OH210828   3.492   4.518   3.139
 3628TIP3    H110829   3.455   4.520   3.048
 3628TIP3    H210830   3.412   4.499   3.193
 3629TIP3   OH210831   4.547   2.925   1.832
 3629TIP3    H110832   4.465   2.946   1.881
 3629TIP3    H210833   4.561   3.008   1.782
 3630TIP3   OH210834   3.292   3.669   2.175
 3630TIP3    H110835   3.221   3.711   2.122
 3630TIP3    H210836   3.255   3.581   2.190
 3631TIP3   OH210837   4.347   4.292   1.380
 3631TIP3    H110838   4.356   4.389   1.365
 3631TIP3    H210839   4.440   4.263   1.367
 3632TIP3   OH210840   3.071   4.053   3.085
 3632TIP3    H110841   3.004   4.030   3.017
 3632TIP3    H210842   3.109   3.966   3.109
 3633TIP3   OH210843   2.926   4.247   2.713
 3633TIP3    H110844   3.022   4.238   2.707
 3633TIP3    H210845   2.918   4.322   2.773
 3634TIP3   OH210846   4.788   4.699   2.774
 3634TIP3    H110847   4.788   4.603   2.790
 3634TIP3    H210848   4.705   4.724   2.820
 3635TIP3   OH210849   3.893   4.484   2.906
 3635TIP3    H110850   3.891   4.576   2.941
 3635TIP3    H210851   3.823   4.442   2.961
 3636TIP3   OH210852   3.660   4.611   1.860
 3636TIP3    H110853   3.611   4.593   1.778
 3636TIP3    H210854   3.624   4.698   1.887
 3637TIP3   OH210855   3.095   4.459   2.247
 3637TIP3    H110856   3.142   4.451   2.333
 3637TIP3    H210857   3.045   4.375   2.245
 3638TIP3   OH210858   3.857   4.514   1.498
 3638TIP3    H110859   3.916   4.443   1.463
 3638TIP3    H210860   3.892   4.524   1.590
 3639TIP3   OH210861   3.910   4.562   1.768
 3639TIP3    H110862   3.821   4.571   1.809
 3639TIP3    H210863   3.960   4.522   1.841
 3640TIP3   OH210864   4.681   3.828   3.048
 3640TIP3    H110865   4.594   3.836   3.007
 3640TIP3    H210866   4.696   3.731   3.042
 3641TIP3   OH210867   3.276   4.236   3.071
 3641TIP3    H110868   3.325   4.220   3.154
 3641TIP3    H210869   3.201   4.172   3.079
 3642TIP3   OH210870   3.675   3.058   2.861
 3642TIP3    H110871   3.586   3.028   2.830
 3642TIP3    H210872   3.648   3.139   2.909
 3643TIP3   OH210873   4.210   3.171   3.053
 3643TIP3    H110874   4.279   3.147   3.118
 3643TIP3    H210875   4.127   3.154   3.102
 3644TIP3   OH210876   4.446   3.604   2.973
 3644TIP3    H110877   4.395   3.600   3.057
 3644TIP3    H210878   4.421   3.692   2.938
 3645TIP3   OH210879   4.108   3.729   1.527
 3645TIP3    H110880   4.073   3.707   1.439
 3645TIP3    H210881   4.192   3.774   1.502
 3646TIP3   OH210882   3.821   3.106   1.830
 3646TIP3    H110883   3.785   3.102   1.921
 3646TIP3    H210884   3.780   3.024   1.794
 3647TIP3   OH210885   3.606   3.575   2.877
 3647TIP3    H110886   3.558   3.597   2.959
 3647TIP3    H210887   3.590   3.657   2.824
 3648TIP3   OH210888   3.490   3.461   2.390
 3648TIP3    H110889   3.398   3.434   2.410
 3648TIP3    H210890   3.502   3.420   2.302
 3649TIP3   OH210891   3.981   3.546   2.121
 3649TIP3    H110892   3.930   3.617   2.076
 3649TIP3    H210893   4.036   3.512   2.047
 3650TIP3   OH210894   4.155   3.820   3.199
 3650TIP3    H110895   4.133   3.750   3.264
 3650TIP3    H210896   4.248   3.838   3.224
 3651TIP3   OH210897   4.137   3.572   2.356
 3651TIP3    H110898   4.074   3.599   2.286
 3651TIP3    H210899   4.173   3.492   2.311
 3652TIP3   OH210900   3.425   3.602   3.085
 3652TIP3    H110901   3.459   3.664   3.151
 3652TIP3    H210902   3.414   3.521   3.138
 3653TIP3   OH210903   3.477   3.083   1.795
 3653TIP3    H110904   3.466   3.080   1.892
 3653TIP3    H210905   3.398   3.134   1.769
 3654TIP3   OH210906   3.020   3.126   2.665
 3654TIP3    H110907   3.095   3.157   2.720
 3654TIP3    H210908   3.062   3.094   2.584
 3655TIP3   OH210909   2.984   3.104   2.185
 3655TIP3    H110910   3.032   3.140   2.107
 3655TIP3    H210911   2.924   3.178   2.203
 3656TIP3   OH210912   4.147   3.819   2.777
 3656TIP3    H110913   4.181   3.747   2.718
 3656TIP3    H210914   4.118   3.765   2.853
 3657TIP3   OH210915   3.822   3.281   2.451
 3657TIP3    H110916   3.741   3.281   2.504
 3657TIP3    H210917   3.891   3.277   2.519
 3658TIP3   OH210918   3.253   3.340   2.458
 3658TIP3    H110919   3.158   3.347   2.430
 3658TIP3    H210920   3.275   3.247   2.436
 3659TIP3   OH210921   3.517   3.333   2.150
 3659TIP3    H110922   3.611   3.348   2.127
 3659TIP3    H210923   3.470   3.355   2.066
 3660TIP3   OH210924   4.310   3.358   2.650
 3660TIP3    H110925   4.283   3.371   2.744
 3660TIP3    H210926   4.240   3.298   2.619
 3661TIP3   OH210927   3.367   3.371   1.926
 3661TIP3    H110928   3.295   3.324   1.878
 3661TIP3    H210929   3.418   3.407   1.850
 3662TIP3   OH210930   4.484   5.047   2.875
 3662TIP3    H110931   4.482   5.072   2.781
 3662TIP3    H210932   4.564   5.094   2.907
 3663TIP3   OH210933   3.439   4.160   3.293
 3663TIP3    H110934   3.519   4.188   3.342
 3663TIP3    H210935   3.374   4.155   3.367
 3664TIP3   OH210936   3.899   3.613   2.550
 3664TIP3    H110937   3.973   3.572   2.503
 3664TIP3    H210938   3.903   3.570   2.637
 3665TIP3   OH210939   3.419   3.097   2.433
 3665TIP3    H110940   3.382   3.021   2.482
 3665TIP3    H210941   3.465   3.053   2.360
 3666TIP3   OH210942   3.877   3.514   2.836
 3666TIP3    H110943   3.787   3.548   2.853
 3666TIP3    H210944   3.934   3.574   2.888
 3667TIP3   OH210945   3.613   3.898   1.932
 3667TIP3    H110946   3.541   3.832   1.921
 3667TIP3    H210947   3.593   3.931   2.023
 3668TIP3   OH210948   4.512   4.135   2.560
 3668TIP3    H110949   4.535   4.186   2.479
 3668TIP3    H210950   4.428   4.092   2.534
 3669TIP3   OH210951   4.070   3.209   1.799
 3669TIP3    H110952   3.974   3.188   1.809
 3669TIP3    H210953   4.076   3.303   1.825
 3670TIP3   OH210954   4.015   4.218   2.931
 3670TIP3    H110955   4.045   4.196   3.020
 3670TIP3    H210956   3.973   4.305   2.943
 3671TIP3   OH210957   4.139   3.459   1.903
 3671TIP3    H110958   4.235   3.465   1.918
 3671TIP3    H210959   4.120   3.540   1.851
 3672TIP3   OH210960   3.307   3.922   2.607
 3672TIP3    H110961   3.346   3.892   2.523
 3672TIP3    H210962   3.351   3.864   2.672
 3673TIP3   OH210963   3.758   4.047   1.756
 3673TIP3    H110964   3.710   4.133   1.760
 3673TIP3    H210965   3.704   3.992   1.817
 3674TIP3   OH210966   3.189   3.843   3.223
 3674TIP3    H110967   3.215   3.831   3.316
 3674TIP3    H210968   3.122   3.773   3.212
 3675TIP3   OH210969   3.918   3.961   3.235
 3675TIP3    H110970   3.857   3.896   3.196
 3675TIP3    H210971   4.005   3.923   3.210
 3676TIP3   OH210972   4.171   4.482   2.823
 3676TIP3    H110973   4.075   4.477   2.840
 3676TIP3    H210974   4.200   4.530   2.903
 3677TIP3   OH210975   4.581   3.552   1.735
 3677TIP3    H110976   4.519   3.508   1.672
 3677TIP3    H210977   4.577   3.642   1.696
 3678TIP3   OH210978   4.802   4.411   2.814
 3678TIP3    H110979   4.704   4.403   2.807
 3678TIP3    H210980   4.828   4.379   2.725
 3679TIP3   OH210981   4.287   4.369   1.646
 3679TIP3    H110982   4.256   4.301   1.708
 3679TIP3    H210983   4.296   4.320   1.563
 3680TIP3   OH210984   4.279   3.999   2.475
 3680TIP3    H110985   4.186   3.974   2.491
 3680TIP3    H210986   4.312   3.917   2.432
 3681TIP3   OH210987   3.408   4.226   2.233
 3681TIP3    H110988   3.404   4.307   2.179
 3681TIP3    H210989   3.315   4.207   2.249
 3682TIP3   OH210990   2.972   3.529   1.940
 3682TIP3    H110991   3.017   3.613   1.962
 3682TIP3    H210992   2.895   3.532   2.001
 3683TIP3   OH210993   3.540   3.989   2.175
 3683TIP3    H110994   3.507   4.078   2.196
 3683TIP3    H210995   3.507   3.938   2.251
 3684TIP3   OH210996   3.678   4.567   2.702
 3684TIP3    H110997   3.723   4.640   2.654
 3684TIP3    H210998   3.753   4.530   2.752
 3685TIP3   OH210999   3.324   4.466   2.085
 3685TIP3    H111000   3.239   4.473   2.133
 3685TIP3    H211001   3.356   4.558   2.089
 3686TIP3   OH211002   4.062   4.203   2.663
 3686TIP3    H111003   4.050   4.203   2.761
 3686TIP3    H211004   4.142   4.149   2.654
 3687TIP3   OH211005   4.042   4.100   1.545
 3687TIP3    H111006   4.095   4.073   1.624
 3687TIP3    H211007   3.954   4.069   1.573
 3688TIP3   OH211008   4.313   4.732   2.713
 3688TIP3    H111009   4.235   4.674   2.711
 3688TIP3    H211010   4.293   4.795   2.640
 3689TIP3   OH211011   4.378   4.568   1.363
 3689TIP3    H111012   4.413   4.642   1.311
 3689TIP3    H211013   4.298   4.611   1.400
 3690TIP3   OH211014   3.397   3.345   3.227
 3690TIP3    H111015   3.300   3.349   3.242
 3690TIP3    H211016   3.427   3.295   3.304
 3691TIP3   OH211017   4.203   4.028   1.758
 3691TIP3    H111018   4.191   3.964   1.831
 3691TIP3    H211019   4.300   4.025   1.748
 3692TIP3   OH211020   3.115   4.428   2.861
 3692TIP3    H111021   3.169   4.356   2.897
 3692TIP3    H211022   3.140   4.501   2.919
 3693TIP3   OH211023   3.404   4.076   1.546
 3693TIP3    H111024   3.417   3.983   1.519
 3693TIP3    H211025   3.383   4.066   1.641
 3694TIP3   OH211026   3.348   4.082   1.817
 3694TIP3    H111027   3.421   4.053   1.873
 3694TIP3    H211028   3.352   4.180   1.826
 3695TIP3   OH211029   3.082   3.773   2.022
 3695TIP3    H111030   3.016   3.817   2.078
 3695TIP3    H211031   3.096   3.841   1.954
 3696TIP3   OH211032   4.243   3.405   2.910
 3696TIP3    H111033   4.316   3.449   2.956
 3696TIP3    H211034   4.227   3.327   2.966
 3697TIP3   OH211035   4.119   3.158   2.082
 3697TIP3    H111036   4.104   3.180   1.988
 3697TIP3    H211037   4.158   3.241   2.117
 3698TIP3   OH211038   3.617   4.277   1.765
 3698TIP3    H111039   3.530   4.301   1.802
 3698TIP3    H211040   3.631   4.353   1.706
 3699TIP3   OH211041   3.802   3.344   2.182
 3699TIP3    H111042   3.866   3.416   2.166
 3699TIP3    H211043   3.808   3.334   2.279
 3700TIP3   OH211044   4.076   3.659   2.986
 3700TIP3    H111045   4.098   3.714   3.064
 3700TIP3    H211046   4.128   3.578   3.004
 3701TIP3   OH211047   3.946   3.063   2.281
 3701TIP3    H111048   3.938   3.141   2.339
 3701TIP3    H211049   4.009   3.097   2.213
 3702TIP3   OH211050   3.363   4.354   1.835
 3702TIP3    H111051   3.332   4.424   1.774
 3702TIP3    H211052   3.346   4.396   1.923
 3703TIP3   OH211053   3.460   3.068   2.071
 3703TIP3    H111054   3.458   3.158   2.110
 3703TIP3    H211055   3.556   3.050   2.078
 3704TIP3   OH211056   4.712   3.559   2.968
 3704TIP3    H111057   4.614   3.559   2.978
 3704TIP3    H211058   4.720   3.514   2.883
 3705TIP3   OH211059   4.365   3.753   2.356
 3705TIP3    H111060   4.288   3.695   2.370
 3705TIP3    H211061   4.435   3.706   2.405
 3706TIP3   OH211062   3.079   3.979   1.825
 3706TIP3    H111063   3.151   4.044   1.835
 3706TIP3    H211064   3.122   3.920   1.758
 3707TIP3   OH211065   3.021   3.258   1.961
 3707TIP3    H111066   3.021   3.356   1.958
 3707TIP3    H211067   2.940   3.237   1.913
 3708TIP3   OH211068   4.334   4.714   2.304
 3708TIP3    H111069   4.291   4.761   2.228
 3708TIP3    H211070   4.428   4.732   2.283
 3709TIP3   OH211071   3.410   2.980   2.829
 3709TIP3    H111072   3.379   2.945   2.743
 3709TIP3    H211073   3.401   2.902   2.887
 3710TIP3   OH211074   2.946   4.198   2.209
 3710TIP3    H111075   2.883   4.226   2.276
 3710TIP3    H211076   2.910   4.241   2.128
 3711TIP3   OH211077   3.109   4.746   3.285
 3711TIP3    H111078   3.195   4.747   3.332
 3711TIP3    H211079   3.091   4.650   3.283
 3712TIP3   OH211080   3.583   4.704   3.325
 3712TIP3    H111081   3.676   4.683   3.339
 3712TIP3    H211082   3.560   4.640   3.255
 3713TIP3   OH211083   3.567   4.278   1.455
 3713TIP3    H111084   3.511   4.206   1.494
 3713TIP3    H211085   3.643   4.225   1.423
 3714TIP3   OH211086   4.230   4.609   3.058
 3714TIP3    H111087   4.217   4.540   3.126
 3714TIP3    H211088   4.303   4.661   3.095
 3715TIP3   OH211089   4.003   4.317   1.371
 3715TIP3    H111090   4.041   4.250   1.431
 3715TIP3    H211091   4.061   4.311   1.293
 3716TIP3   OH211092   3.236   4.148   3.483
 3716TIP3    H111093   3.252   4.053   3.497
 3716TIP3    H211094   3.149   4.148   3.438
 3717TIP3   OH211095   3.215   3.793   1.681
 3717TIP3    H111096   3.271   3.762   1.754
 3717TIP3    H211097   3.282   3.798   1.609
 3718TIP3   OH211098   3.843   4.234   3.260
 3718TIP3    H111099   3.802   4.252   3.173
 3718TIP3    H211100   3.876   4.142   3.250
 3719TIP3   OH211101   3.730   3.996   1.487
 3719TIP3    H111102   3.730   4.007   1.584
 3719TIP3    H211103   3.730   3.898   1.480
 3720TIP3   OH211104   4.335   4.243   2.865
 3720TIP3    H111105   4.410   4.288   2.822
 3720TIP3    H211106   4.264   4.308   2.851
 3721TIP3   OH211107   3.359   3.874   3.456
 3721TIP3    H111108   3.440   3.825   3.438
 3721TIP3    H211109   3.376   3.902   3.549
 3722TIP3   OH211110   3.418   3.702   1.898
 3722TIP3    H111111   3.392   3.662   1.983
 3722TIP3    H211112   3.456   3.626   1.850
 3723TIP3   OH211113   3.688   3.761   3.125
 3723TIP3    H111114   3.613   3.824   3.129
 3723TIP3    H211115   3.741   3.797   3.050
 3724TIP3   OH211116   3.523   3.497   1.739
 3724TIP3    H111117   3.498   3.504   1.645
 3724TIP3    H211118   3.621   3.499   1.733
 3725TIP3   OH211119   4.206   4.166   3.259
 3725TIP3    H111120   4.289   4.135   3.221
 3725TIP3    H211121   4.197   4.105   3.335
 3726TIP3   OH211122   4.342   3.824   1.407
 3726TIP3    H111123   4.321   3.779   1.322
 3726TIP3    H211124   4.308   3.914   1.386
 3727TIP3   OH211125   3.816   3.553   3.251
 3727TIP3    H111126   3.816   3.475   3.192
 3727TIP3    H211127   3.771   3.621   3.195
 3728TIP3   OH211128   3.818   3.339   3.060
 3728TIP3    H111129   3.845   3.382   2.976
 3728TIP3    H211130   3.724   3.318   3.042
 3729TIP3   OH211131   3.839   3.871   2.932
 3729TIP3    H111132   3.926   3.887   2.894
 3729TIP3    H211133   3.783   3.938   2.888
 3730TIP3   OH211134   4.419   3.837   3.310
 3730TIP3    H111135   4.468   3.760   3.343
 3730TIP3    H211136   4.491   3.896   3.284
 3731TIP3   OH211137   4.467   4.093   3.048
 3731TIP3    H111138   4.408   4.149   2.991
 3731TIP3    H211139   4.554   4.116   3.009
 3732TIP3   OH211140   3.683   3.662   3.471
 3732TIP3    H111141   3.620   3.592   3.496
 3732TIP3    H211142   3.724   3.625   3.390
 3733TIP3   OH211143   3.948   3.102   3.132
 3733TIP3    H111144   3.899   3.184   3.108
 3733TIP3    H211145   3.878   3.034   3.120
 3734TIP3   OH211146   4.076   3.605   3.347
 3734TIP3    H111147   4.067   3.595   3.444
 3734TIP3    H211148   3.985   3.581   3.319
 3735TIP3   OH211149   4.309   3.548   3.197
 3735TIP3    H111150   4.237   3.556   3.263
 3735TIP3    H211151   4.385   3.523   3.254
 3736TIP3   OH211152   4.544   3.494   3.341
 3736TIP3    H111153   4.556   3.399   3.364
 3736TIP3    H211154   4.535   3.536   3.429
 3737TIP3   OH211155   3.530   3.440   3.538
 3737TIP3    H111156   3.538   3.346   3.513
 3737TIP3    H211157   3.562   3.438   3.630
 3738TIP3   OH211158   4.038   3.110   3.392
 3738TIP3    H111159   4.107   3.040   3.383
 3738TIP3    H211160   4.000   3.107   3.302
 3739TIP3   OH211161   4.105   3.328   3.550
 3739TIP3    H111162   4.084   3.258   3.485
 3739TIP3    H211163   4.027   3.387   3.545
 3740TIP3   OH211164   3.332   4.559   1.648
 3740TIP3    H111165   3.427   4.548   1.628
 3740TIP3    H211166   3.304   4.609   1.569
 3741TIP3   OH211167   2.810   3.940   1.859
 3741TIP3    H111168   2.905   3.960   1.846
 3741TIP3    H211169   2.803   3.850   1.820
 3742TIP3   OH211170   2.727   4.550   2.279
 3742TIP3    H111171   2.661   4.489   2.240
 3742TIP3    H211172   2.771   4.491   2.344
 3743TIP3   OH211173   2.860   4.396   2.465
 3743TIP3    H111174   2.849   4.326   2.532
 3743TIP3    H211175   2.913   4.460   2.517
 3744TIP3   OH211176   4.589   4.802   2.265
 3744TIP3    H111177   4.614   4.828   2.355
 3744TIP3    H211178   4.657   4.844   2.211
 3745TIP3   OH211179   4.618   4.820   2.546
 3745TIP3    H111180   4.571   4.734   2.543
 3745TIP3    H211181   4.690   4.795   2.606
 3746TIP3   OH211182   4.663   4.499   3.121
 3746TIP3    H111183   4.590   4.507   3.185
 3746TIP3    H211184   4.705   4.587   3.127
 3747TIP3   OH211185   4.481   4.009   1.738
 3747TIP3    H111186   4.548   4.075   1.709
 3747TIP3    H211187   4.525   3.972   1.818
 3748TIP3   OH211188   4.608   3.878   1.943
 3748TIP3    H111189   4.541   3.836   2.001
 3748TIP3    H211190   4.673   3.914   2.007
 3749TIP3   OH211191   4.665   4.273   2.374
 3749TIP3    H111192   4.717   4.204   2.328
 3749TIP3    H211193   4.657   4.342   2.305
 3750TIP3   OH211194   4.491   4.573   2.566
 3750TIP3    H111195   4.419   4.612   2.620
 3750TIP3    H211196   4.440   4.525   2.496
 3751TIP3   OH211197   4.545   3.786   1.587
 3751TIP3    H111198   4.473   3.788   1.520
 3751TIP3    H211199   4.516   3.862   1.643
 3752TIP3   OH211200   4.417   3.458   1.539
 3752TIP3    H111201   4.368   3.493   1.463
 3752TIP3    H211202   4.395   3.362   1.532
 3753TIP3   OH211203   4.420   3.737   2.087
 3753TIP3    H111204   4.427   3.640   2.080
 3753TIP3    H211205   4.405   3.749   2.183
 3754TIP3   OH211206   3.045   3.810   2.836
 3754TIP3    H111207   3.043   3.775   2.744
 3754TIP3    H211208   3.142   3.810   2.852
 3755TIP3   OH211209   4.713   4.162   2.945
 3755TIP3    H111210   4.783   4.094   2.934
 3755TIP3    H211211   4.739   4.229   2.881
 3756TIP3   OH211212   4.895   3.962   2.951
 3756TIP3    H111213   4.820   3.913   2.992
 3756TIP3    H211214   4.968   3.899   2.970
 3757TIP3   OH211215   4.359   3.192   1.523
 3757TIP3    H111216   4.430   3.160   1.582
 3757TIP3    H211217   4.283   3.135   1.545
 3758TIP3   OH211218   4.418   3.452   1.980
 3758TIP3    H111219   4.458   3.363   1.995
 3758TIP3    H211220   4.476   3.485   1.909
 3759TIP3   OH211221   4.576   3.621   2.477
 3759TIP3    H111222   4.662   3.646   2.436
 3759TIP3    H211223   4.590   3.659   2.566
 3760TIP3   OH211224   4.648   3.768   2.706
 3760TIP3    H111225   4.572   3.802   2.758
 3760TIP3    H211226   4.680   3.851   2.664
 3761TIP3   OH211227   3.262   3.490   3.502
 3761TIP3    H111228   3.359   3.492   3.512
 3761TIP3    H211229   3.241   3.406   3.547
 3762TIP3   OH211230   5.099   3.362   3.263
 3762TIP3    H111231   5.160   3.298   3.220
 3762TIP3    H211232   5.068   3.415   3.187
 3763TIP3   OH211233   4.526   3.202   2.019
 3763TIP3    H111234   4.573   3.186   2.103
 3763TIP3    H211235   4.465   3.126   2.018
 3764TIP3   OH211236   3.226   3.188   2.840
 3764TIP3    H111237   3.287   3.112   2.848
 3764TIP3    H211238   3.288   3.262   2.832
 3765TIP3   OH211239   3.025   3.459   2.910
 3765TIP3    H111240   3.076   3.457   2.827
 3765TIP3    H211241   3.056   3.542   2.950
 3766TIP3   OH211242   4.968   3.499   3.068
 3766TIP3    H111243   4.885   3.543   3.095
 3766TIP3    H211244   4.932   3.428   3.012
 3767TIP3   OH211245   4.603   3.133   1.655
 3767TIP3    H111246   4.643   3.063   1.599
 3767TIP3    H211247   4.671   3.204   1.651
 3768TIP3   OH211248   3.013   2.965   2.414
 3768TIP3    H111249   2.920   2.958   2.442
 3768TIP3    H211250   3.007   3.023   2.336
 3769TIP3   OH211251   4.171   4.670   1.919
 3769TIP3    H111252   4.224   4.659   1.838
 3769TIP3    H211253   4.224   4.733   1.970
 3770TIP3   OH211254   3.231   3.039   3.226
 3770TIP3    H111255   3.181   3.039   3.309
 3770TIP3    H211256   3.167   3.081   3.165
 3771TIP3   OH211257   3.271   4.478   3.302
 3771TIP3    H111258   3.178   4.449   3.291
 3771TIP3    H211259   3.289   4.452   3.393
 3772TIP3   OH211260   3.451   4.507   2.851
 3772TIP3    H111261   3.404   4.584   2.812
 3772TIP3    H211262   3.537   4.520   2.807
 3773TIP3   OH211263   3.891   4.750   2.988
 3773TIP3    H111264   3.933   4.746   3.077
 3773TIP3    H211265   3.958   4.802   2.939
 3774TIP3   OH211266   4.072   4.904   2.850
 3774TIP3    H111267   4.143   4.850   2.812
 3774TIP3    H211268   4.124   4.960   2.912
 3775TIP3   OH211269   4.869   3.262   2.948
 3775TIP3    H111270   4.778   3.254   2.914
 3775TIP3    H211271   4.901   3.170   2.939
 3776TIP3   OH211272   3.125   4.763   2.875
 3776TIP3    H111273   3.035   4.796   2.856
 3776TIP3    H211274   3.140   4.805   2.961
 3777TIP3   OH211275   3.363   4.742   2.736
 3777TIP3    H111276   3.275   4.753   2.779
 3777TIP3    H211277   3.343   4.773   2.645
 3778TIP3   OH211278   3.789   4.768   2.532
 3778TIP3    H111279   3.717   4.786   2.469
 3778TIP3    H211280   3.799   4.855   2.576
 3779TIP3   OH211281   4.057   4.707   2.584
 3779TIP3    H111282   3.963   4.724   2.565
 3779TIP3    H211283   4.100   4.783   2.542
 3780TIP3   OH211284   4.265   4.899   2.498
 3780TIP3    H111285   4.250   4.982   2.449
 3780TIP3    H211286   4.290   4.837   2.426
 3781TIP3   OH211287   3.038   4.554   2.621
 3781TIP3    H111288   3.065   4.526   2.711
 3781TIP3    H211289   3.110   4.511   2.570
 3782TIP3   OH211290   3.234   4.428   2.480
 3782TIP3    H111291   3.247   4.343   2.529
 3782TIP3    H211292   3.325   4.462   2.477
 3783TIP3   OH211293   3.502   4.519   2.485
 3783TIP3    H111294   3.530   4.426   2.476
 3783TIP3    H211295   3.550   4.542   2.567
 3784TIP3   OH211296   4.073   3.176   2.570
 3784TIP3    H111297   4.031   3.106   2.621
 3784TIP3    H211298   4.147   3.130   2.527
 3785TIP3   OH211299   4.594   3.056   2.471
 3785TIP3    H111300   4.630   3.109   2.397
 3785TIP3    H211301   4.499   3.077   2.467
 3786TIP3   OH211302   4.690   3.156   2.236
 3786TIP3    H111303   4.765   3.105   2.198
 3786TIP3    H211304   4.724   3.248   2.222
 3787TIP3   OH211305   3.321   2.884   2.583
 3787TIP3    H111306   3.228   2.852   2.587
 3787TIP3    H211307   3.369   2.799   2.579
 3788TIP3   OH211308   3.109   2.758   2.237
 3788TIP3    H111309   3.140   2.812   2.162
 3788TIP3    H211310   3.084   2.825   2.302
 3789TIP3   OH211311   3.768   2.916   2.465
 3789TIP3    H111312   3.825   2.965   2.403
 3789TIP3    H211313   3.793   2.957   2.550
 3790TIP3   OH211314   4.310   3.066   2.448
 3790TIP3    H111315   4.310   3.025   2.360
 3790TIP3    H211316   4.299   2.987   2.506
 3791TIP3   OH211317   4.343   2.990   2.012
 3791TIP3    H111318   4.257   3.034   2.029
 3791TIP3    H211319   4.328   2.904   2.056
 3792TIP3   OH211320   2.826   4.331   2.008
 3792TIP3    H111321   2.740   4.297   1.976
 3792TIP3    H211322   2.816   4.425   1.985
 3793TIP3   OH211323   3.228   2.916   1.993
 3793TIP3    H111324   3.275   2.850   1.937
 3793TIP3    H211325   3.303   2.968   2.029
 3794TIP3   OH211326   3.737   3.093   2.093
 3794TIP3    H111327   3.796   3.044   2.154
 3794TIP3    H211328   3.760   3.185   2.120
 3795TIP3   OH211329   3.598   4.511   1.594
 3795TIP3    H111330   3.686   4.535   1.557
 3795TIP3    H211331   3.576   4.437   1.533
 3796TIP3   OH211332   4.321   4.636   1.688
 3796TIP3    H111333   4.313   4.538   1.679
 3796TIP3    H211334   4.272   4.666   1.609
 3797TIP3   OH211335   3.530   3.162   3.470
 3797TIP3    H111336   3.493   3.095   3.530
 3797TIP3    H211337   3.623   3.163   3.501
 3798TIP3   OH211338   3.779   3.159   3.591
 3798TIP3    H111339   3.866   3.144   3.551
 3798TIP3    H211340   3.774   3.086   3.656
 3799TIP3   OH211341   2.902   4.352   1.648
 3799TIP3    H111342   2.904   4.367   1.744
 3799TIP3    H211343   2.989   4.308   1.632
 3800TIP3   OH211344   4.606   3.224   3.381
 3800TIP3    H111345   4.623   3.196   3.474
 3800TIP3    H211346   4.696   3.221   3.343
 3801TIP3   OH211347   4.542   4.777   2.873
 3801TIP3    H111348   4.462   4.746   2.825
 3801TIP3    H211349   4.521   4.872   2.882
 3802TIP3   OH211350   5.811   4.152   1.636
 3802TIP3    H111351   5.780   4.242   1.616
 3802TIP3    H211352   5.734   4.100   1.607
 3803TIP3   OH211353   5.809   4.151   2.026
 3803TIP3    H111354   5.845   4.128   2.114
 3803TIP3    H211355   5.767   4.067   2.000
 3804TIP3   OH211356   5.106   4.043   2.386
 3804TIP3    H111357   5.134   3.973   2.449
 3804TIP3    H211358   5.184   4.100   2.387
 3805TIP3   OH211359   6.054   4.455   1.706
 3805TIP3    H111360   6.039   4.386   1.772
 3805TIP3    H211361   6.085   4.529   1.761
 3806TIP3   OH211362   5.080   4.456   2.107
 3806TIP3    H111363   5.071   4.358   2.108
 3806TIP3    H211364   5.176   4.465   2.107
 3807TIP3   OH211365   4.787   3.657   1.890
 3807TIP3    H111366   4.739   3.739   1.911
 3807TIP3    H211367   4.716   3.605   1.850
 3808TIP3   OH211368   4.844   3.945   2.072
 3808TIP3    H111369   4.893   3.867   2.106
 3808TIP3    H211370   4.905   3.979   2.006
 3809TIP3   OH211371   5.706   4.916   1.723
 3809TIP3    H111372   5.747   4.845   1.670
 3809TIP3    H211373   5.698   4.873   1.809
 3810TIP3   OH211374   5.607   4.379   2.069
 3810TIP3    H111375   5.647   4.300   2.028
 3810TIP3    H211376   5.689   4.425   2.095
 3811TIP3   OH211377   6.624   3.696   2.069
 3811TIP3    H111378   6.653   3.779   2.112
 3811TIP3    H211379   6.645   3.715   1.976
 3812TIP3   OH211380   6.021   3.877   2.099
 3812TIP3    H111381   6.063   3.792   2.121
 3812TIP3    H211382   5.988   3.859   2.009
 3813TIP3   OH211383   5.362   3.537   2.064
 3813TIP3    H111384   5.340   3.610   2.002
 3813TIP3    H211385   5.312   3.464   2.022
 3814TIP3   OH211386   6.055   3.629   1.686
 3814TIP3    H111387   6.125   3.614   1.753
 3814TIP3    H211388   6.109   3.664   1.613
 3815TIP3   OH211389   4.992   3.739   2.173
 3815TIP3    H111390   5.075   3.720   2.222
 3815TIP3    H211391   5.006   3.683   2.094
 3816TIP3   OH211392   5.432   3.937   1.968
 3816TIP3    H111393   5.526   3.912   1.981
 3816TIP3    H211394   5.393   3.852   1.936
 3817TIP3   OH211395   6.696   3.906   2.238
 3817TIP3    H111396   6.611   3.951   2.220
 3817TIP3    H211397   6.715   3.939   2.327
 3818TIP3   OH211398   5.355   3.520   2.501
 3818TIP3    H111399   5.295   3.558   2.434
 3818TIP3    H211400   5.302   3.537   2.582
 3819TIP3   OH211401   5.698   4.371   1.507
 3819TIP3    H111402   5.656   4.356   1.421
 3819TIP3    H211403   5.653   4.454   1.536
 3820TIP3   OH211404   5.461   4.297   2.292
 3820TIP3    H111405   5.401   4.365   2.330
 3820TIP3    H211406   5.504   4.346   2.219
 3821TIP3   OH211407   6.259   3.634   1.865
 3821TIP3    H111408   6.239   3.593   1.951
 3821TIP3    H211409   6.311   3.713   1.892
 3822TIP3   OH211410   5.227   3.636   2.284
 3822TIP3    H111411   5.288   3.708   2.309
 3822TIP3    H211412   5.277   3.596   2.209
 3823TIP3   OH211413   5.290   4.493   2.392
 3823TIP3    H111414   5.264   4.581   2.359
 3823TIP3    H211415   5.211   4.474   2.448
 3824TIP3   OH211416   4.681   4.182   1.629
 3824TIP3    H111417   4.640   4.210   1.545
 3824TIP3    H211418   4.714   4.267   1.664
 3825TIP3   OH211419   6.121   4.699   1.868
 3825TIP3    H111420   6.031   4.689   1.908
 3825TIP3    H211421   6.112   4.786   1.824
 3826TIP3   OH211422   6.416   3.593   2.232
 3826TIP3    H111423   6.329   3.623   2.202
 3826TIP3    H211424   6.476   3.628   2.163
 3827TIP3   OH211425   5.707   3.237   2.217
 3827TIP3    H111426   5.691   3.142   2.236
 3827TIP3    H211427   5.631   3.277   2.264
 3828TIP3   OH211428   5.819   4.743   1.538
 3828TIP3    H111429   5.870   4.660   1.522
 3828TIP3    H211430   5.883   4.808   1.500
 3829TIP3   OH211431   5.965   4.527   1.456
 3829TIP3    H111432   5.927   4.447   1.419
 3829TIP3    H211433   6.004   4.494   1.540
 3830TIP3   OH211434   6.347   4.608   2.213
 3830TIP3    H111435   6.335   4.530   2.155
 3830TIP3    H211436   6.330   4.682   2.151
 3831TIP3   OH211437   5.639   4.001   1.473
 3831TIP3    H111438   5.560   4.055   1.452
 3831TIP3    H211439   5.685   4.001   1.387
 3832TIP3   OH211440   5.597   3.791   1.182
 3832TIP3    H111441   5.663   3.841   1.233
 3832TIP3    H211442   5.655   3.727   1.136
 3833TIP3   OH211443   6.543   4.247   2.059
 3833TIP3    H111444   6.459   4.298   2.064
 3833TIP3    H211445   6.573   4.272   1.969
 3834TIP3   OH211446   5.989   4.085   1.440
 3834TIP3    H111447   5.934   4.109   1.519
 3834TIP3    H211448   6.073   4.061   1.484
 3835TIP3   OH211449   6.222   4.122   2.359
 3835TIP3    H111450   6.221   4.203   2.413
 3835TIP3    H211451   6.135   4.129   2.314
 3836TIP3   OH211452   5.221   4.082   1.860
 3836TIP3    H111453   5.180   4.023   1.792
 3836TIP3    H211454   5.297   4.028   1.891
 3837TIP3   OH211455   5.353   4.499   2.005
 3837TIP3    H111456   5.331   4.457   1.920
 3837TIP3    H211457   5.441   4.461   2.024
 3838TIP3   OH211458   5.356   4.053   2.214
 3838TIP3    H111459   5.390   4.029   2.125
 3838TIP3    H211460   5.400   4.139   2.232
 3839TIP3   OH211461   5.880   4.692   1.991
 3839TIP3    H111462   5.869   4.771   2.047
 3839TIP3    H211463   5.865   4.618   2.054
 3840TIP3   OH211464   5.495   4.611   2.536
 3840TIP3    H111465   5.435   4.671   2.585
 3840TIP3    H211466   5.430   4.557   2.487
 3841TIP3   OH211467   5.826   3.944   1.269
 3841TIP3    H111468   5.886   4.004   1.319
 3841TIP3    H211469   5.853   3.965   1.176
 3842TIP3   OH211470   5.249   4.166   2.640
 3842TIP3    H111471   5.255   4.253   2.684
 3842TIP3    H211472   5.155   4.144   2.657
 3843TIP3   OH211473   5.574   4.619   1.544
 3843TIP3    H111474   5.656   4.671   1.552
 3843TIP3    H211475   5.514   4.682   1.503
 3844TIP3   OH211476   5.287   4.776   2.626
 3844TIP3    H111477   5.251   4.777   2.535
 3844TIP3    H211478   5.208   4.755   2.680
 3845TIP3   OH211479   6.343   3.182   1.318
 3845TIP3    H111480   6.261   3.203   1.368
 3845TIP3    H211481   6.357   3.265   1.269
 3846TIP3   OH211482   5.088   3.925   1.660
 3846TIP3    H111483   5.017   3.968   1.608
 3846TIP3    H211484   5.051   3.839   1.678
 3847TIP3   OH211485   6.143   4.547   0.867
 3847TIP3    H111486   6.151   4.644   0.853
 3847TIP3    H211487   6.237   4.519   0.857
 3848TIP3   OH211488   4.867   4.310   2.572
 3848TIP3    H111489   4.799   4.288   2.505
 3848TIP3    H211490   4.905   4.222   2.595
 3849TIP3   OH211491   4.722   4.505   2.198
 3849TIP3    H111492   4.818   4.496   2.195
 3849TIP3    H211493   4.711   4.579   2.259
 3850TIP3   OH211494   6.585   4.955   2.261
 3850TIP3    H111495   6.585   4.859   2.277
 3850TIP3    H211496   6.502   4.981   2.307
 3851TIP3   OH211497   5.689   4.741   2.393
 3851TIP3    H111498   5.687   4.832   2.428
 3851TIP3    H211499   5.619   4.698   2.448
 3852TIP3   OH211500   5.454   4.867   1.347
 3852TIP3    H111501   5.408   4.846   1.263
 3852TIP3    H211502   5.418   4.954   1.370
 3853TIP3   OH211503   4.891   4.718   1.733
 3853TIP3    H111504   4.937   4.709   1.820
 3853TIP3    H211505   4.841   4.635   1.730
 3854TIP3   OH211506   5.653   4.770   0.988
 3854TIP3    H111507   5.711   4.699   0.952
 3854TIP3    H211508   5.689   4.780   1.079
 3855TIP3   OH211509   5.706   4.819   1.257
 3855TIP3    H111510   5.618   4.826   1.299
 3855TIP3    H211511   5.758   4.779   1.329
 3856TIP3   OH211512   6.477   4.083   2.536
 3856TIP3    H111513   6.391   4.093   2.493
 3856TIP3    H211514   6.491   3.987   2.528
 3857TIP3   OH211515   5.071   4.493   2.557
 3857TIP3    H111516   5.121   4.477   2.640
 3857TIP3    H211517   4.997   4.429   2.565
 3858TIP3   OH211518   5.471   3.315   2.347
 3858TIP3    H111519   5.382   3.285   2.318
 3858TIP3    H211520   5.444   3.396   2.396
 3859TIP3   OH211521   6.006   3.428   2.540
 3859TIP3    H111522   6.075   3.403   2.605
 3859TIP3    H211523   5.923   3.411   2.589
 3860TIP3   OH211524   6.242   3.860   2.458
 3860TIP3    H111525   6.191   3.856   2.543
 3860TIP3    H211526   6.218   3.948   2.423
 3861TIP3   OH211527   5.902   3.983   1.011
 3861TIP3    H111528   5.869   3.962   0.922
 3861TIP3    H211529   5.985   4.029   0.990
 3862TIP3   OH211530   5.617   3.363   1.317
 3862TIP3    H111531   5.582   3.359   1.409
 3862TIP3    H211532   5.576   3.281   1.282
 3863TIP3   OH211533   5.403   3.832   2.364
 3863TIP3    H111534   5.353   3.852   2.446
 3863TIP3    H211535   5.387   3.913   2.311
 3864TIP3   OH211536   5.286   3.718   1.877
 3864TIP3    H111537   5.194   3.691   1.897
 3864TIP3    H211538   5.298   3.676   1.789
 3865TIP3   OH211539   5.777   3.802   1.607
 3865TIP3    H111540   5.726   3.874   1.563
 3865TIP3    H211541   5.832   3.769   1.534
 3866TIP3   OH211542   5.951   4.077   2.687
 3866TIP3    H111543   5.929   4.006   2.752
 3866TIP3    H211544   6.043   4.096   2.713
 3867TIP3   OH211545   5.933   3.828   1.843
 3867TIP3    H111546   5.870   3.856   1.774
 3867TIP3    H211547   5.969   3.748   1.798
 3868TIP3   OH211548   5.222   3.859   2.571
 3868TIP3    H111549   5.252   3.921   2.639
 3868TIP3    H211550   5.210   3.777   2.624
 3869TIP3   OH211551   5.273   3.339   1.281
 3869TIP3    H111552   5.263   3.337   1.379
 3869TIP3    H211553   5.194   3.392   1.256
 3870TIP3   OH211554   4.815   3.380   2.152
 3870TIP3    H111555   4.889   3.413   2.207
 3870TIP3    H211556   4.859   3.349   2.071
 3871TIP3   OH211557   4.781   3.361   1.671
 3871TIP3    H111558   4.827   3.398   1.593
 3871TIP3    H211559   4.720   3.435   1.691
 3872TIP3   OH211560   5.941   4.075   2.263
 3872TIP3    H111561   5.977   4.004   2.205
 3872TIP3    H211562   5.913   4.022   2.340
 3873TIP3   OH211563   5.618   3.538   1.937
 3873TIP3    H111564   5.537   3.537   1.991
 3873TIP3    H211565   5.687   3.533   2.005
 3874TIP3   OH211566   5.049   3.597   1.944
 3874TIP3    H111567   4.954   3.604   1.917
 3874TIP3    H211568   5.070   3.504   1.923
 3875TIP3   OH211569   5.313   3.589   1.637
 3875TIP3    H111570   5.407   3.605   1.615
 3875TIP3    H211571   5.266   3.612   1.553
 3876TIP3   OH211572   6.106   3.615   2.138
 3876TIP3    H111573   6.078   3.628   2.231
 3876TIP3    H211574   6.036   3.555   2.106
 3877TIP3   OH211575   5.163   3.626   1.413
 3877TIP3    H111576   5.091   3.581   1.366
 3877TIP3    H211577   5.214   3.663   1.337
 3878TIP3   OH211578   6.280   5.305   2.362
 3878TIP3    H111579   6.279   5.328   2.267
 3878TIP3    H211580   6.360   5.351   2.393
 3879TIP3   OH211581   5.235   4.416   2.779
 3879TIP3    H111582   5.315   4.443   2.829
 3879TIP3    H211583   5.170   4.411   2.852
 3880TIP3   OH211584   5.695   3.869   2.037
 3880TIP3    H111585   5.770   3.829   1.990
 3880TIP3    H211586   5.699   3.826   2.124
 3881TIP3   OH211587   5.215   3.354   1.919
 3881TIP3    H111588   5.178   3.278   1.969
 3881TIP3    H211589   5.262   3.309   1.848
 3882TIP3   OH211590   5.673   3.770   2.322
 3882TIP3    H111591   5.583   3.804   2.340
 3882TIP3    H211592   5.730   3.830   2.374
 3883TIP3   OH211593   5.409   4.154   1.419
 3883TIP3    H111594   5.337   4.088   1.408
 3883TIP3    H211595   5.389   4.188   1.510
 3884TIP3   OH211596   6.309   4.391   2.046
 3884TIP3    H111597   6.333   4.442   1.966
 3884TIP3    H211598   6.224   4.349   2.020
 3885TIP3   OH211599   5.866   3.467   1.281
 3885TIP3    H111600   5.770   3.446   1.294
 3885TIP3    H211601   5.873   3.560   1.311
 3886TIP3   OH211602   5.809   4.474   2.418
 3886TIP3    H111603   5.842   4.453   2.506
 3886TIP3    H211604   5.769   4.562   2.429
 3887TIP3   OH211605   5.935   3.715   1.389
 3887TIP3    H111606   6.031   3.721   1.405
 3887TIP3    H211607   5.917   3.797   1.339
 3888TIP3   OH211608   5.104   4.180   2.094
 3888TIP3    H111609   5.143   4.148   2.010
 3888TIP3    H211610   5.146   4.121   2.159
 3889TIP3   OH211611   5.555   4.303   1.242
 3889TIP3    H111612   5.506   4.389   1.246
 3889TIP3    H211613   5.501   4.248   1.303
 3890TIP3   OH211614   4.986   4.097   2.709
 3890TIP3    H111615   5.003   4.083   2.804
 3890TIP3    H211616   4.916   4.031   2.693
 3891TIP3   OH211617   5.712   4.216   2.727
 3891TIP3    H111618   5.652   4.152   2.686
 3891TIP3    H211619   5.799   4.179   2.700
 3892TIP3   OH211620   5.967   4.738   2.312
 3892TIP3    H111621   5.871   4.733   2.328
 3892TIP3    H211622   5.996   4.787   2.392
 3893TIP3   OH211623   6.376   3.809   1.223
 3893TIP3    H111624   6.315   3.764   1.159
 3893TIP3    H211625   6.373   3.899   1.183
 3894TIP3   OH211626   6.598   4.666   2.302
 3894TIP3    H111627   6.500   4.659   2.294
 3894TIP3    H211628   6.624   4.635   2.212
 3895TIP3   OH211629   6.079   4.625   1.131
 3895TIP3    H111630   6.054   4.553   1.191
 3895TIP3    H211631   6.094   4.579   1.047
 3896TIP3   OH211632   6.075   4.256   1.961
 3896TIP3    H111633   5.982   4.231   1.977
 3896TIP3    H211634   6.108   4.174   1.919
 3897TIP3   OH211635   5.204   4.482   1.720
 3897TIP3    H111636   5.199   4.563   1.666
 3897TIP3    H211637   5.111   4.463   1.736
 3898TIP3   OH211638   4.769   3.785   1.428
 3898TIP3    H111639   4.813   3.870   1.450
 3898TIP3    H211640   4.691   3.788   1.488
 3899TIP3   OH211641   5.336   4.245   1.662
 3899TIP3    H111642   5.303   4.335   1.683
 3899TIP3    H211643   5.303   4.194   1.738
 3900TIP3   OH211644   5.475   4.824   2.189
 3900TIP3    H111645   5.520   4.896   2.140
 3900TIP3    H211646   5.549   4.786   2.238
 3901TIP3   OH211647   5.119   4.724   1.571
 3901TIP3    H111648   5.035   4.729   1.621
 3901TIP3    H211649   5.149   4.817   1.576
 3902TIP3   OH211650   5.859   4.460   2.150
 3902TIP3    H111651   5.846   4.459   2.248
 3902TIP3    H211652   5.939   4.407   2.141
 3903TIP3   OH211653   5.838   4.352   1.034
 3903TIP3    H111654   5.892   4.327   1.112
 3903TIP3    H211655   5.750   4.325   1.063
 3904TIP3   OH211656   6.108   4.990   2.200
 3904TIP3    H111657   6.030   4.932   2.197
 3904TIP3    H211658   6.090   5.053   2.127
 3905TIP3   OH211659   6.173   4.820   0.854
 3905TIP3    H111660   6.198   4.877   0.780
 3905TIP3    H211661   6.098   4.872   0.889
 3906TIP3   OH211662   5.193   3.602   2.714
 3906TIP3    H111663   5.096   3.607   2.729
 3906TIP3    H211664   5.222   3.549   2.790
 3907TIP3   OH211665   5.999   4.284   1.247
 3907TIP3    H111666   5.989   4.219   1.319
 3907TIP3    H211667   6.096   4.281   1.235
 3908TIP3   OH211668   4.912   4.685   2.347
 3908TIP3    H111669   4.966   4.612   2.383
 3908TIP3    H211670   4.935   4.756   2.408
 3909TIP3   OH211671   5.200   4.333   1.033
 3909TIP3    H111672   5.213   4.240   1.006
 3909TIP3    H211673   5.180   4.323   1.128
 3910TIP3   OH211674   5.144   4.339   1.304
 3910TIP3    H111675   5.217   4.310   1.360
 3910TIP3    H211676   5.149   4.436   1.313
 3911TIP3   OH211677   4.879   4.029   1.509
 3911TIP3    H111678   4.812   4.074   1.565
 3911TIP3    H211679   4.892   4.098   1.441
 3912TIP3   OH211680   6.038   3.663   2.397
 3912TIP3    H111681   6.113   3.706   2.441
 3912TIP3    H211682   6.023   3.584   2.454
 3913TIP3   OH211683   5.916   3.415   1.568
 3913TIP3    H111684   5.902   3.439   1.475
 3913TIP3    H211685   5.955   3.497   1.605
 3914TIP3   OH211686   5.413   4.533   1.252
 3914TIP3    H111687   5.327   4.559   1.289
 3914TIP3    H211688   5.428   4.607   1.191
 3915TIP3   OH211689   5.598   3.600   1.668
 3915TIP3    H111690   5.662   3.673   1.652
 3915TIP3    H211691   5.604   3.590   1.766
 3916TIP3   OH211692   5.872   3.915   2.473
 3916TIP3    H111693   5.894   3.970   2.551
 3916TIP3    H211694   5.924   3.835   2.489
 3917TIP3   OH211695   5.742   3.319   1.767
 3917TIP3    H111696   5.736   3.396   1.827
 3917TIP3    H211697   5.805   3.354   1.700
 3918TIP3   OH211698   5.160   4.612   1.322
 3918TIP3    H111699   5.128   4.682   1.261
 3918TIP3    H211700   5.142   4.652   1.409
 3919TIP3   OH211701   5.257   3.325   1.557
 3919TIP3    H111702   5.254   3.414   1.597
 3919TIP3    H211703   5.353   3.307   1.566
 3920TIP3   OH211704   6.508   3.815   2.457
 3920TIP3    H111705   6.410   3.814   2.465
 3920TIP3    H211706   6.519   3.775   2.370
 3921TIP3   OH211707   6.161   4.010   1.843
 3921TIP3    H111708   6.084   3.951   1.857
 3921TIP3    H211709   6.232   3.963   1.892
 3922TIP3   OH211710   4.876   4.235   1.312
 3922TIP3    H111711   4.947   4.301   1.322
 3922TIP3    H211712   4.918   4.177   1.245
 3923TIP3   OH211713   4.817   3.514   1.445
 3923TIP3    H111714   4.817   3.612   1.444
 3923TIP3    H211715   4.733   3.495   1.402
 3924TIP3   OH211716   6.130   4.970   1.790
 3924TIP3    H111717   6.087   5.018   1.716
 3924TIP3    H211718   6.224   4.989   1.770
 3925TIP3   OH211719   5.207   3.235   2.317
 3925TIP3    H111720   5.176   3.200   2.231
 3925TIP3    H211721   5.196   3.157   2.375
 3926TIP3   OH211722   4.743   4.456   1.696
 3926TIP3    H111723   4.680   4.483   1.764
 3926TIP3    H211724   4.705   4.499   1.615
 3927TIP3   OH211725   4.905   5.002   2.770
 3927TIP3    H111726   4.991   5.002   2.818
 3927TIP3    H211727   4.884   4.907   2.770
 3928TIP3   OH211728   5.381   4.960   2.813
 3928TIP3    H111729   5.474   4.937   2.824
 3928TIP3    H211730   5.355   4.896   2.743
 3929TIP3   OH211731   5.364   4.534   0.943
 3929TIP3    H111732   5.308   4.463   0.981
 3929TIP3    H211733   5.440   4.483   0.911
 3930TIP3   OH211734   6.023   4.866   2.548
 3930TIP3    H111735   6.013   4.796   2.617
 3930TIP3    H211736   6.100   4.916   2.581
 3931TIP3   OH211737   5.797   4.574   0.861
 3931TIP3    H111738   5.841   4.510   0.920
 3931TIP3    H211739   5.853   4.572   0.781
 3932TIP3   OH211740   5.032   4.405   2.971
 3932TIP3    H111741   5.048   4.309   2.981
 3932TIP3    H211742   4.945   4.406   2.926
 3933TIP3   OH211743   5.011   4.050   1.168
 3933TIP3    H111744   5.067   4.019   1.241
 3933TIP3    H211745   5.078   4.055   1.096
 3934TIP3   OH211746   5.639   4.491   2.746
 3934TIP3    H111747   5.599   4.508   2.658
 3934TIP3    H211748   5.671   4.398   2.737
 3935TIP3   OH211749   5.524   4.252   0.973
 3935TIP3    H111750   5.526   4.263   1.070
 3935TIP3    H211751   5.524   4.154   0.967
 3936TIP3   OH211752   6.130   4.501   2.351
 3936TIP3    H111753   6.207   4.544   2.309
 3936TIP3    H211754   6.061   4.568   2.336
 3937TIP3   OH211755   5.155   4.141   2.953
 3937TIP3    H111756   5.229   4.083   2.932
 3937TIP3    H211757   5.181   4.173   3.042
 3938TIP3   OH211758   5.215   3.959   1.385
 3938TIP3    H111759   5.188   3.920   1.470
 3938TIP3    H211760   5.252   3.882   1.338
 3939TIP3   OH211761   5.486   4.020   2.614
 3939TIP3    H111762   5.409   4.081   2.615
 3939TIP3    H211763   5.538   4.055   2.538
 3940TIP3   OH211764   5.319   3.753   1.226
 3940TIP3    H111765   5.294   3.761   1.132
 3940TIP3    H211766   5.417   3.756   1.219
 3941TIP3   OH211767   6.003   4.422   2.746
 3941TIP3    H111768   6.088   4.396   2.710
 3941TIP3    H211769   5.995   4.362   2.823
 3942TIP3   OH211770   6.136   4.079   0.895
 3942TIP3    H111771   6.116   4.036   0.810
 3942TIP3    H211772   6.104   4.170   0.874
 3943TIP3   OH211773   5.611   3.811   2.739
 3943TIP3    H111774   5.611   3.732   2.681
 3943TIP3    H211775   5.566   3.878   2.683
 3944TIP3   OH211776   5.614   3.597   2.548
 3944TIP3    H111777   5.641   3.638   2.464
 3944TIP3    H211778   5.520   3.575   2.530
 3945TIP3   OH211779   5.635   4.129   2.420
 3945TIP3    H111780   5.722   4.144   2.381
 3945TIP3    H211781   5.580   4.195   2.375
 3946TIP3   OH211782   6.217   4.097   2.798
 3946TIP3    H111783   6.269   4.018   2.819
 3946TIP3    H211784   6.285   4.160   2.772
 3947TIP3   OH211785   6.263   4.349   2.531
 3947TIP3    H111786   6.203   4.405   2.476
 3947TIP3    H211787   6.350   4.372   2.493
 3948TIP3   OH211788   5.488   3.917   2.972
 3948TIP3    H111789   5.420   3.849   2.990
 3948TIP3    H211790   5.522   3.889   2.885
 3949TIP3   OH211791   5.744   3.358   2.618
 3949TIP3    H111792   5.695   3.440   2.595
 3949TIP3    H211793   5.675   3.290   2.608
 3950TIP3   OH211794   5.872   3.860   2.833
 3950TIP3    H111795   5.859   3.848   2.929
 3950TIP3    H211796   5.781   3.838   2.802
 3951TIP3   OH211797   6.107   3.806   2.685
 3951TIP3    H111798   6.033   3.814   2.750
 3951TIP3    H211799   6.182   3.782   2.743
 3952TIP3   OH211800   6.340   3.755   2.835
 3952TIP3    H111801   6.351   3.659   2.853
 3952TIP3    H211802   6.333   3.793   2.925
 3953TIP3   OH211803   5.327   3.697   3.028
 3953TIP3    H111804   5.332   3.605   2.997
 3953TIP3    H211805   5.364   3.689   3.118
 3954TIP3   OH211806   5.838   3.368   2.876
 3954TIP3    H111807   5.904   3.296   2.869
 3954TIP3    H211808   5.797   3.364   2.787
 3955TIP3   OH211809   5.904   3.584   3.034
 3955TIP3    H111810   5.882   3.513   2.970
 3955TIP3    H211811   5.826   3.642   3.029
 3956TIP3   OH211812   5.129   4.821   1.137
 3956TIP3    H111813   5.223   4.807   1.116
 3956TIP3    H211814   5.100   4.866   1.056
 3957TIP3   OH211815   4.606   4.196   1.346
 3957TIP3    H111816   4.701   4.216   1.333
 3957TIP3    H211817   4.599   4.107   1.306
 3958TIP3   OH211818   4.525   4.809   1.765
 3958TIP3    H111819   4.458   4.748   1.727
 3958TIP3    H211820   4.568   4.749   1.830
 3959TIP3   OH211821   4.657   4.654   1.952
 3959TIP3    H111822   4.644   4.583   2.018
 3959TIP3    H211823   4.708   4.717   2.006
 3960TIP3   OH211824   6.384   5.060   1.752
 3960TIP3    H111825   6.412   5.088   1.841
 3960TIP3    H211826   6.453   5.098   1.696
 3961TIP3   OH211827   6.413   5.077   2.034
 3961TIP3    H111828   6.367   4.990   2.030
 3961TIP3    H211829   6.487   5.053   2.092
 3962TIP3   OH211830   6.459   4.755   2.605
 3962TIP3    H111831   6.386   4.763   2.670
 3962TIP3    H211832   6.502   4.842   2.613
 3963TIP3   OH211833   6.277   4.266   1.224
 3963TIP3    H111834   6.343   4.332   1.194
 3963TIP3    H211835   6.322   4.229   1.304
 3964TIP3   OH211836   6.404   4.134   1.429
 3964TIP3    H111837   6.338   4.093   1.489
 3964TIP3    H211838   6.470   4.170   1.492
 3965TIP3   OH211839   6.460   4.529   1.860
 3965TIP3    H111840   6.513   4.461   1.814
 3965TIP3    H211841   6.456   4.600   1.793
 3966TIP3   OH211842   6.287   4.829   2.053
 3966TIP3    H111843   6.215   4.868   2.107
 3966TIP3    H211844   6.237   4.782   1.983
 3967TIP3   OH211845   6.340   4.043   1.074
 3967TIP3    H111846   6.268   4.045   1.007
 3967TIP3    H211847   6.313   4.118   1.130
 3968TIP3   OH211848   6.212   3.714   1.027
 3968TIP3    H111849   6.165   3.751   0.952
 3968TIP3    H211850   6.190   3.619   1.018
 3969TIP3   OH211851   6.215   3.994   1.574
 3969TIP3    H111852   6.224   3.897   1.568
 3969TIP3    H211853   6.201   4.007   1.671
 3970TIP3   OH211854   4.841   4.066   2.322
 3970TIP3    H111855   4.839   4.031   2.231
 3970TIP3    H211856   4.938   4.066   2.339
 3971TIP3   OH211857   6.508   4.418   2.430
 3971TIP3    H111858   6.579   4.350   2.420
 3971TIP3    H211859   6.537   4.487   2.368
 3972TIP3   OH211860   6.690   4.218   2.438
 3972TIP3    H111861   6.616   4.170   2.481
 3972TIP3    H211862   6.763   4.155   2.456
 3973TIP3   OH211863   6.157   3.446   1.006
 3973TIP3    H111864   6.229   3.418   1.065
 3973TIP3    H211865   6.082   3.390   1.032
 3974TIP3   OH211866   6.213   3.708   1.466
 3974TIP3    H111867   6.254   3.620   1.481
 3974TIP3    H211868   6.272   3.742   1.396
 3975TIP3   OH211869   6.373   3.878   1.964
 3975TIP3    H111870   6.458   3.903   1.923
 3975TIP3    H211871   6.387   3.916   2.053
 3976TIP3   OH211872   6.444   4.025   2.193
 3976TIP3    H111873   6.368   4.059   2.245
 3976TIP3    H211874   6.477   4.107   2.150
 3977TIP3   OH211875   5.061   3.750   2.993
 3977TIP3    H111876   5.159   3.745   3.000
 3977TIP3    H211877   5.037   3.664   3.034
 3978TIP3   OH211878   6.897   3.620   2.751
 3978TIP3    H111879   6.957   3.555   2.707
 3978TIP3    H211880   6.864   3.672   2.674
 3979TIP3   OH211881   6.322   3.459   1.506
 3979TIP3    H111882   6.370   3.443   1.590
 3979TIP3    H211883   6.261   3.382   1.505
 3980TIP3   OH211884   5.022   3.444   2.324
 3980TIP3    H111885   5.084   3.369   2.334
 3980TIP3    H211886   5.085   3.518   2.318
 3981TIP3   OH211887   4.822   3.715   2.398
 3981TIP3    H111888   4.873   3.715   2.314
 3981TIP3    H211889   4.851   3.798   2.438
 3982TIP3   OH211890   6.764   3.754   2.556
 3982TIP3    H111891   6.680   3.799   2.581
 3982TIP3    H211892   6.728   3.684   2.498
 3983TIP3   OH211893   6.398   3.391   1.141
 3983TIP3    H111894   6.440   3.321   1.087
 3983TIP3    H211895   6.467   3.462   1.139
 3984TIP3   OH211896   4.809   3.218   1.899
 3984TIP3    H111897   4.717   3.214   1.929
 3984TIP3    H211898   4.802   3.278   1.822
 3985TIP3   OH211899   5.965   4.930   1.406
 3985TIP3    H111900   6.016   4.915   1.324
 3985TIP3    H211901   6.023   4.989   1.455
 3986TIP3   OH211902   5.028   3.296   2.712
 3986TIP3    H111903   4.979   3.296   2.796
 3986TIP3    H211904   4.962   3.338   2.653
 3987TIP3   OH211905   5.067   4.733   2.790
 3987TIP3    H111906   4.974   4.706   2.776
 3987TIP3    H211907   5.082   4.708   2.882
 3988TIP3   OH211908   5.248   4.764   2.338
 3988TIP3    H111909   5.200   4.840   2.300
 3988TIP3    H211910   5.334   4.777   2.294
 3989TIP3   OH211911   5.688   5.007   2.476
 3989TIP3    H111912   5.730   5.003   2.565
 3989TIP3    H211913   5.755   5.058   2.426
 3990TIP3   OH211914   5.869   5.161   2.337
 3990TIP3    H111915   5.939   5.107   2.298
 3990TIP3    H211916   5.921   5.217   2.398
 3991TIP3   OH211917   6.665   3.518   2.435
 3991TIP3    H111918   6.574   3.511   2.400
 3991TIP3    H211919   6.697   3.426   2.425
 3992TIP3   OH211920   4.922   5.022   2.361
 3992TIP3    H111921   4.831   5.053   2.342
 3992TIP3    H211922   4.935   5.059   2.449
 3993TIP3   OH211923   5.159   4.999   2.223
 3993TIP3    H111924   5.072   5.010   2.267
 3993TIP3    H211925   5.139   5.028   2.132
 3994TIP3   OH211926   5.585   5.025   2.019
 3994TIP3    H111927   5.513   5.043   1.956
 3994TIP3    H211928   5.596   5.112   2.063
 3995TIP3   OH211929   5.854   4.963   2.072
 3995TIP3    H111930   5.760   4.981   2.051
 3995TIP3    H211931   5.899   5.037   2.029
 3996TIP3   OH211932   6.058   5.154   1.984
 3996TIP3    H111933   6.046   5.238   1.935
 3996TIP3    H211934   6.086   5.093   1.912
 3997TIP3   OH211935   4.835   4.812   2.108
 3997TIP3    H111936   4.861   4.783   2.198
 3997TIP3    H211937   4.907   4.767   2.057
 3998TIP3   OH211938   5.030   4.684   1.966
 3998TIP3    H111939   5.043   4.600   2.016
 3998TIP3    H211940   5.122   4.718   1.964
 3999TIP3   OH211941   5.299   4.777   1.971
 3999TIP3    H111942   5.327   4.684   1.962
 3999TIP3    H211943   5.346   4.798   2.054
 4000TIP3   OH211944   5.869   3.432   2.055
 4000TIP3    H111945   5.827   3.362   2.108
 4000TIP3    H211946   5.944   3.386   2.013
 4001TIP3   OH211947   6.390   3.312   1.958
 4001TIP3    H111948   6.426   3.366   1.884
 4001TIP3    H211949   6.295   3.334   1.954
 4002TIP3   OH211950   6.486   3.413   1.722
 4002TIP3    H111951   6.561   3.361   1.684
 4002TIP3    H211952   6.520   3.504   1.709
 4003TIP3   OH211953   5.118   3.141   2.069
 4003TIP3    H111954   5.025   3.108   2.073
 4003TIP3    H211955   5.166   3.056   2.065
 4004TIP3   OH211956   4.907   3.014   1.722
 4004TIP3    H111957   4.935   3.071   1.648
 4004TIP3    H211958   4.879   3.080   1.789
 4005TIP3   OH211959   5.564   3.173   1.952
 4005TIP3    H111960   5.621   3.222   1.890
 4005TIP3    H211961   5.589   3.213   2.037
 4006TIP3   OH211962   6.105   3.322   1.935
 4006TIP3    H111963   6.108   3.281   1.848
 4006TIP3    H211964   6.094   3.243   1.993
 4007TIP3   OH211965   6.139   3.247   1.499
 4007TIP3    H111966   6.053   3.290   1.517
 4007TIP3    H211967   6.125   3.160   1.543
 4008TIP3   OH211968   4.622   4.587   1.493
 4008TIP3    H111969   4.536   4.553   1.463
 4008TIP3    H211970   4.611   4.681   1.469
 4009TIP3   OH211971   5.025   3.172   1.480
 4009TIP3    H111972   5.072   3.108   1.424
 4009TIP3    H211973   5.099   3.225   1.516
 4010TIP3   OH211974   5.534   3.349   1.580
 4010TIP3    H111975   5.593   3.302   1.641
 4010TIP3    H211976   5.555   3.442   1.606
 4011TIP3   OH211977   5.394   4.769   1.081
 4011TIP3    H111978   5.483   4.791   1.046
 4011TIP3    H211979   5.372   4.695   1.020
 4012TIP3   OH211980   6.112   4.892   1.177
 4012TIP3    H111981   6.106   4.794   1.164
 4012TIP3    H211982   6.070   4.923   1.094
 4013TIP3   OH211983   5.326   3.422   2.959
 4013TIP3    H111984   5.289   3.353   3.018
 4013TIP3    H211985   5.419   3.421   2.990
 4014TIP3   OH211986   5.575   3.419   3.080
 4014TIP3    H111987   5.662   3.395   3.044
 4014TIP3    H211988   5.562   3.349   3.148
 4015TIP3   OH211989   4.699   4.609   1.135
 4015TIP3    H111990   4.699   4.623   1.231
 4015TIP3    H211991   4.786   4.565   1.121
 4016TIP3   OH211992   6.402   3.483   2.868
 4016TIP3    H111993   6.419   3.453   2.960
 4016TIP3    H211994   6.492   3.478   2.829
 4017TIP3   OH211995   6.338   5.035   2.359
 4017TIP3    H111996   6.259   5.004   2.311
 4017TIP3    H211997   6.317   5.130   2.368
 4018TIP3   OH211998   7.605   4.411   1.125
 4018TIP3    H111999   7.572   4.501   1.103
 4018TIP3    H212000   7.525   4.359   1.105
 4019TIP3   OH212001   7.600   4.407   1.511
 4019TIP3    H112002   7.632   4.393   1.602
 4019TIP3    H212003   7.562   4.320   1.491
 4020TIP3   OH212004   6.901   4.300   1.875
 4020TIP3    H112005   6.930   4.231   1.937
 4020TIP3    H212006   6.981   4.354   1.870
 4021TIP3   OH212007   7.852   4.706   1.192
 4021TIP3    H112008   7.831   4.642   1.262
 4021TIP3    H212009   7.880   4.784   1.243
 4022TIP3   OH212010   6.876   4.712   1.594
 4022TIP3    H112011   6.868   4.614   1.595
 4022TIP3    H212012   6.973   4.721   1.593
 4023TIP3   OH212013   6.583   3.912   1.377
 4023TIP3    H112014   6.536   3.995   1.398
 4023TIP3    H212015   6.511   3.862   1.336
 4024TIP3   OH212016   6.639   4.201   1.559
 4024TIP3    H112017   6.689   4.123   1.592
 4024TIP3    H212018   6.703   4.239   1.496
 4025TIP3   OH212019   7.500   5.175   1.211
 4025TIP3    H112020   7.541   5.102   1.160
 4025TIP3    H212021   7.491   5.134   1.298
 4026TIP3   OH212022   7.403   4.634   1.556
 4026TIP3    H112023   7.444   4.555   1.517
 4026TIP3    H212024   7.485   4.681   1.582
 4027TIP3   OH212025   7.808   4.154   1.584
 4027TIP3    H112026   7.821   4.062   1.615
 4027TIP3    H212027   7.763   4.135   1.499
 4028TIP3   OH212028   7.152   3.793   1.555
 4028TIP3    H112029   7.139   3.866   1.491
 4028TIP3    H212030   7.104   3.721   1.509
 4029TIP3   OH212031   7.842   3.886   1.189
 4029TIP3    H112032   7.903   3.826   1.235
 4029TIP3    H212033   7.904   3.935   1.134
 4030TIP3   OH212034   6.788   3.995   1.660
 4030TIP3    H112035   6.871   3.977   1.709
 4030TIP3    H212036   6.803   3.940   1.581
 4031TIP3   OH212037   7.229   4.192   1.456
 4031TIP3    H112038   7.323   4.168   1.469
 4031TIP3    H212039   7.192   4.107   1.424
 4032TIP3   OH212040   7.150   3.777   1.988
 4032TIP3    H112041   7.091   3.815   1.920
 4032TIP3    H212042   7.097   3.795   2.069
 4033TIP3   OH212043   7.493   4.627   0.993
 4033TIP3    H112044   7.455   4.616   0.904
 4033TIP3    H212045   7.447   4.708   1.023
 4034TIP3   OH212046   7.257   4.553   1.778
 4034TIP3    H112047   7.198   4.622   1.816
 4034TIP3    H212048   7.302   4.602   1.706
 4035TIP3   OH212049   7.021   3.893   1.773
 4035TIP3    H112050   7.084   3.965   1.796
 4035TIP3    H212051   7.070   3.853   1.697
 4036TIP3   OH212052   7.086   4.750   1.880
 4036TIP3    H112053   7.061   4.838   1.845
 4036TIP3    H212054   7.008   4.732   1.935
 4037TIP3   OH212055   6.476   4.438   1.117
 4037TIP3    H112056   6.437   4.464   1.031
 4037TIP3    H212057   6.508   4.524   1.150
 4038TIP3   OH212058   7.917   4.953   1.352
 4038TIP3    H112059   7.830   4.940   1.397
 4038TIP3    H212060   7.905   5.041   1.313
 4039TIP3   OH212061   7.493   3.487   1.705
 4039TIP3    H112062   7.474   3.393   1.723
 4039TIP3    H212063   7.416   3.530   1.750
 4040TIP3   OH212064   7.616   5.001   1.031
 4040TIP3    H112065   7.662   4.916   1.010
 4040TIP3    H212066   7.680   5.063   0.989
 4041TIP3   OH212067   7.751   4.781   0.943
 4041TIP3    H112068   7.704   4.701   0.915
 4041TIP3    H212069   7.799   4.749   1.022
 4042TIP3   OH212070   8.139   4.859   1.704
 4042TIP3    H112071   8.141   4.784   1.641
 4042TIP3    H212072   8.137   4.936   1.645
 4043TIP3   OH212073   7.433   4.255   0.956
 4043TIP3    H112074   7.352   4.308   0.943
 4043TIP3    H212075   7.477   4.266   0.871
 4044TIP3   OH212076   7.387   4.057   0.678
 4044TIP3    H112077   7.458   4.097   0.731
 4044TIP3    H212078   7.437   3.983   0.637
 4045TIP3   OH212079   7.780   4.338   0.932
 4045TIP3    H112080   7.723   4.369   1.007
 4045TIP3    H212081   7.852   4.294   0.982
 4046TIP3   OH212082   8.001   4.365   1.837
 4046TIP3    H112083   8.032   4.446   1.882
 4046TIP3    H212084   7.913   4.392   1.807
 4047TIP3   OH212085   7.018   4.337   1.347
 4047TIP3    H112086   6.978   4.279   1.279
 4047TIP3    H212087   7.094   4.283   1.379
 4048TIP3   OH212088   7.148   4.754   1.493
 4048TIP3    H112089   7.128   4.713   1.407
 4048TIP3    H212090   7.237   4.717   1.512
 4049TIP3   OH212091   7.149   4.312   1.699
 4049TIP3    H112092   7.186   4.285   1.612
 4049TIP3    H212093   7.195   4.396   1.718
 4050TIP3   OH212094   7.679   4.947   1.478
 4050TIP3    H112095   7.666   5.028   1.531
 4050TIP3    H212096   7.662   4.875   1.543
 4051TIP3   OH212097   7.291   4.868   2.025
 4051TIP3    H112098   7.230   4.928   2.072
 4051TIP3    H212099   7.227   4.813   1.975
 4052TIP3   OH212100   7.628   4.204   0.750
 4052TIP3    H112101   7.679   4.261   0.811
 4052TIP3    H212102   7.673   4.220   0.666
 4053TIP3   OH212103   7.046   4.421   2.129
 4053TIP3    H112104   7.051   4.510   2.171
 4053TIP3    H212105   6.952   4.401   2.143
 4054TIP3   OH212106   7.371   4.874   1.034
 4054TIP3    H112107   7.454   4.925   1.040
 4054TIP3    H212108   7.312   4.936   0.989
 4055TIP3   OH212109   7.084   5.032   2.113
 4055TIP3    H112110   7.048   5.034   2.022
 4055TIP3    H212111   7.003   5.011   2.166
 4056TIP3   OH212112   6.886   4.183   1.144
 4056TIP3    H112113   6.813   4.225   1.094
 4056TIP3    H212114   6.849   4.097   1.164
 4057TIP3   OH212115   6.663   4.566   2.059
 4057TIP3    H112116   6.596   4.544   1.991
 4057TIP3    H212117   6.701   4.479   2.082
 4058TIP3   OH212118   6.519   4.760   1.688
 4058TIP3    H112119   6.615   4.751   1.681
 4058TIP3    H212120   6.510   4.836   1.748
 4059TIP3   OH212121   7.485   4.997   1.881
 4059TIP3    H112122   7.483   5.089   1.915
 4059TIP3    H212123   7.415   4.955   1.936
 4060TIP3   OH212124   7.253   5.133   0.831
 4060TIP3    H112125   7.186   5.113   0.764
 4060TIP3    H212126   7.224   5.220   0.865
 4061TIP3   OH212127   6.689   4.973   1.219
 4061TIP3    H112128   6.733   4.963   1.306
 4061TIP3    H212129   6.636   4.891   1.217
 4062TIP3   OH212130   7.483   5.008   0.741
 4062TIP3    H112131   7.404   5.054   0.776
 4062TIP3    H212132   7.548   5.027   0.809
 4063TIP3   OH212133   6.867   4.750   2.043
 4063TIP3    H112134   6.917   4.733   2.126
 4063TIP3    H212135   6.793   4.686   2.052
 4064TIP3   OH212136   7.265   3.571   1.836
 4064TIP3    H112137   7.176   3.542   1.806
 4064TIP3    H212138   7.240   3.653   1.882
 4065TIP3   OH212139   7.768   3.705   2.011
 4065TIP3    H112140   7.834   3.667   2.072
 4065TIP3    H212141   7.684   3.685   2.057
 4066TIP3   OH212142   8.070   4.109   1.944
 4066TIP3    H112143   8.013   4.120   2.023
 4066TIP3    H212144   8.056   4.195   1.898
 4067TIP3   OH212145   7.420   3.618   0.804
 4067TIP3    H112146   7.385   3.615   0.895
 4067TIP3    H212147   7.377   3.537   0.768
 4068TIP3   OH212148   7.197   4.090   1.850
 4068TIP3    H112149   7.148   4.111   1.932
 4068TIP3    H212150   7.181   4.171   1.797
 4069TIP3   OH212151   7.082   3.975   1.365
 4069TIP3    H112152   6.990   3.947   1.385
 4069TIP3    H212153   7.095   3.932   1.278
 4070TIP3   OH212154   7.575   4.060   1.091
 4070TIP3    H112155   7.521   4.129   1.047
 4070TIP3    H212156   7.633   4.029   1.020
 4071TIP3   OH212157   7.745   4.336   2.178
 4071TIP3    H112158   7.725   4.263   2.241
 4071TIP3    H212159   7.841   4.346   2.192
 4072TIP3   OH212160   7.715   4.091   1.331
 4072TIP3    H112161   7.656   4.106   1.254
 4072TIP3    H212162   7.753   4.005   1.304
 4073TIP3   OH212163   7.017   4.117   2.059
 4073TIP3    H112164   7.049   4.180   2.125
 4073TIP3    H212165   7.007   4.035   2.111
 4074TIP3   OH212166   7.065   3.593   0.769
 4074TIP3    H112167   7.060   3.592   0.867
 4074TIP3    H212168   6.988   3.648   0.747
 4075TIP3   OH212169   6.613   3.635   1.639
 4075TIP3    H112170   6.685   3.670   1.695
 4075TIP3    H212171   6.658   3.607   1.559
 4076TIP3   OH212172   6.576   3.617   1.157
 4076TIP3    H112173   6.624   3.654   1.080
 4076TIP3    H212174   6.517   3.692   1.177
 4077TIP3   OH212175   7.714   4.342   1.754
 4077TIP3    H112176   7.759   4.277   1.696
 4077TIP3    H212177   7.696   4.285   1.832
 4078TIP3   OH212178   7.403   3.820   1.423
 4078TIP3    H112179   7.333   3.803   1.489
 4078TIP3    H212180   7.480   3.774   1.463
 4079TIP3   OH212181   6.844   3.853   1.432
 4079TIP3    H112182   6.750   3.859   1.403
 4079TIP3    H212183   6.869   3.761   1.409
 4080TIP3   OH212184   7.107   3.844   1.126
 4080TIP3    H112185   7.202   3.860   1.108
 4080TIP3    H212186   7.064   3.868   1.041
 4081TIP3   OH212187   7.824   3.888   1.623
 4081TIP3    H112188   7.816   3.893   1.720
 4081TIP3    H212189   7.908   3.838   1.612
 4082TIP3   OH212190   6.957   3.881   0.900
 4082TIP3    H112191   6.884   3.839   0.851
 4082TIP3    H212192   7.010   3.918   0.826
 4083TIP3   OH212193   8.065   5.568   1.849
 4083TIP3    H112194   8.063   5.575   1.750
 4083TIP3    H212195   8.134   5.631   1.871
 4084TIP3   OH212196   7.030   4.672   2.266
 4084TIP3    H112197   7.110   4.700   2.314
 4084TIP3    H212198   6.965   4.668   2.339
 4085TIP3   OH212199   7.493   4.129   1.527
 4085TIP3    H112200   7.556   4.080   1.472
 4085TIP3    H212201   7.497   4.078   1.611
 4086TIP3   OH212202   7.010   3.611   1.404
 4086TIP3    H112203   6.975   3.534   1.453
 4086TIP3    H212204   7.063   3.569   1.336
 4087TIP3   OH212205   7.468   4.022   1.817
 4087TIP3    H112206   7.379   4.062   1.829
 4087TIP3    H212207   7.526   4.085   1.865
 4088TIP3   OH212208   7.203   4.407   0.910
 4088TIP3    H112209   7.130   4.342   0.898
 4088TIP3    H212210   7.183   4.441   1.000
 4089TIP3   OH212211   8.104   4.654   1.520
 4089TIP3    H112212   8.117   4.657   1.425
 4089TIP3    H212213   8.018   4.607   1.525
 4090TIP3   OH212214   7.676   3.710   0.780
 4090TIP3    H112215   7.580   3.686   0.783
 4090TIP3    H212216   7.671   3.807   0.774
 4091TIP3   OH212217   7.598   4.730   1.904
 4091TIP3    H112218   7.638   4.712   1.990
 4091TIP3    H212219   7.565   4.820   1.913
 4092TIP3   OH212220   7.759   3.984   0.854
 4092TIP3    H112221   7.846   4.026   0.861
 4092TIP3    H212222   7.709   4.051   0.805
 4093TIP3   OH212223   6.899   4.434   1.580
 4093TIP3    H112224   6.939   4.405   1.496
 4093TIP3    H212225   6.945   4.378   1.644
 4094TIP3   OH212226   7.350   4.571   0.753
 4094TIP3    H112227   7.297   4.654   0.750
 4094TIP3    H212228   7.295   4.514   0.811
 4095TIP3   OH212229   6.782   4.354   2.196
 4095TIP3    H112230   6.800   4.341   2.292
 4095TIP3    H212231   6.712   4.288   2.181
 4096TIP3   OH212232   7.507   4.471   2.216
 4096TIP3    H112233   7.446   4.412   2.168
 4096TIP3    H212234   7.594   4.435   2.188
 4097TIP3   OH212235   7.762   4.992   1.800
 4097TIP3    H112236   7.666   4.991   1.815
 4097TIP3    H212237   7.792   5.042   1.878
 4098TIP3   OH212238   7.864   4.513   1.455
 4098TIP3    H112239   7.769   4.491   1.466
 4098TIP3    H212240   7.898   4.426   1.426
 4099TIP3   OH212241   7.000   4.739   1.205
 4099TIP3    H112242   6.996   4.821   1.152
 4099TIP3    H212243   6.907   4.722   1.223
 4100TIP3   OH212244   6.565   4.042   0.915
 4100TIP3    H112245   6.610   4.127   0.936
 4100TIP3    H212246   6.488   4.046   0.975
 4101TIP3   OH212247   7.130   4.502   1.149
 4101TIP3    H112248   7.098   4.591   1.170
 4101TIP3    H212249   7.098   4.451   1.226
 4102TIP3   OH212250   7.271   5.081   1.676
 4102TIP3    H112251   7.315   5.153   1.627
 4102TIP3    H212252   7.346   5.043   1.724
 4103TIP3   OH212253   6.916   4.977   1.057
 4103TIP3    H112254   6.831   4.984   1.105
 4103TIP3    H212255   6.948   5.070   1.064
 4104TIP3   OH212256   7.654   4.715   1.637
 4104TIP3    H112257   7.640   4.714   1.735
 4104TIP3    H212258   7.738   4.667   1.630
 4105TIP3   OH212259   7.907   5.245   1.684
 4105TIP3    H112260   7.829   5.187   1.681
 4105TIP3    H212261   7.886   5.309   1.613
 4106TIP3   OH212262   6.989   3.859   2.202
 4106TIP3    H112263   6.892   3.863   2.215
 4106TIP3    H212264   7.017   3.804   2.277
 4107TIP3   OH212265   7.767   4.538   0.740
 4107TIP3    H112266   7.773   4.470   0.810
 4107TIP3    H212267   7.854   4.580   0.744
 4108TIP3   OH212268   6.707   4.942   1.835
 4108TIP3    H112269   6.762   4.871   1.872
 4108TIP3    H212270   6.732   5.016   1.892
 4109TIP3   OH212271   7.026   4.572   0.532
 4109TIP3    H112272   7.011   4.479   0.509
 4109TIP3    H212273   7.002   4.573   0.627
 4110TIP3   OH212274   6.944   4.596   0.798
 4110TIP3    H112275   7.008   4.564   0.864
 4110TIP3    H212276   6.950   4.693   0.811
 4111TIP3   OH212277   6.674   4.286   0.996
 4111TIP3    H112278   6.607   4.331   1.053
 4111TIP3    H212279   6.685   4.354   0.927
 4112TIP3   OH212280   7.829   3.948   1.895
 4112TIP3    H112281   7.921   3.968   1.922
 4112TIP3    H212282   7.811   3.863   1.940
 4113TIP3   OH212283   7.684   3.687   1.065
 4113TIP3    H112284   7.689   3.696   0.969
 4113TIP3    H212285   7.735   3.764   1.097
 4114TIP3   OH212286   7.205   4.794   0.724
 4114TIP3    H112287   7.120   4.825   0.760
 4114TIP3    H212288   7.216   4.850   0.646
 4115TIP3   OH212289   7.387   3.860   1.154
 4115TIP3    H112290   7.457   3.927   1.140
 4115TIP3    H212291   7.394   3.847   1.251
 4116TIP3   OH212292   7.665   4.169   1.958
 4116TIP3    H112293   7.696   4.215   2.039
 4116TIP3    H212294   7.727   4.092   1.953
 4117TIP3   OH212295   7.532   3.563   1.253
 4117TIP3    H112296   7.566   3.609   1.333
 4117TIP3    H212297   7.587   3.608   1.184
 4118TIP3   OH212298   6.954   4.867   0.808
 4118TIP3    H112299   6.933   4.940   0.746
 4118TIP3    H212300   6.936   4.908   0.895
 4119TIP3   OH212301   7.053   3.581   1.045
 4119TIP3    H112302   7.050   3.670   1.085
 4119TIP3    H212303   7.150   3.564   1.053
 4120TIP3   OH212304   7.951   4.254   1.365
 4120TIP3    H112305   7.866   4.213   1.340
 4120TIP3    H212306   7.962   4.213   1.454
 4121TIP3   OH212307   6.669   4.493   0.804
 4121TIP3    H112308   6.735   4.563   0.814
 4121TIP3    H212309   6.715   4.436   0.738
 4122TIP3   OH212310   6.613   3.772   0.933
 4122TIP3    H112311   6.616   3.870   0.932
 4122TIP3    H212312   6.529   3.755   0.890
 4123TIP3   OH212313   7.934   5.227   1.278
 4123TIP3    H112314   7.891   5.274   1.203
 4123TIP3    H212315   8.027   5.240   1.259
 4124TIP3   OH212316   7.001   3.492   1.804
 4124TIP3    H112317   6.972   3.458   1.717
 4124TIP3    H212318   6.991   3.414   1.862
 4125TIP3   OH212319   6.538   4.710   1.182
 4125TIP3    H112320   6.476   4.739   1.250
 4125TIP3    H212321   6.501   4.755   1.102
 4126TIP3   OH212322   6.700   5.258   2.259
 4126TIP3    H112323   6.787   5.258   2.306
 4126TIP3    H212324   6.681   5.163   2.258
 4127TIP3   OH212325   7.176   5.214   2.303
 4127TIP3    H112326   7.271   5.196   2.310
 4127TIP3    H212327   7.151   5.152   2.231
 4128TIP3   OH212328   7.813   5.124   2.037
 4128TIP3    H112329   7.809   5.054   2.106
 4128TIP3    H212330   7.892   5.175   2.065
 4129TIP3   OH212331   6.829   4.661   2.457
 4129TIP3    H112332   6.843   4.565   2.468
 4129TIP3    H212333   6.741   4.663   2.413
 4130TIP3   OH212334   6.818   4.313   0.667
 4130TIP3    H112335   6.880   4.283   0.737
 4130TIP3    H212336   6.879   4.316   0.589
 4131TIP3   OH212337   7.434   4.746   2.233
 4131TIP3    H112338   7.396   4.767   2.145
 4131TIP3    H212339   7.466   4.654   2.222
 4132TIP3   OH212340   7.332   4.502   0.492
 4132TIP3    H112341   7.330   4.523   0.588
 4132TIP3    H212342   7.262   4.435   0.486
 4133TIP3   OH212343   7.928   4.754   1.840
 4133TIP3    H112344   8.008   4.793   1.799
 4133TIP3    H212345   7.864   4.824   1.823
 4134TIP3   OH212346   6.949   4.396   2.442
 4134TIP3    H112347   7.026   4.343   2.417
 4134TIP3    H212348   6.976   4.429   2.531
 4135TIP3   OH212349   7.007   4.216   0.871
 4135TIP3    H112350   6.980   4.180   0.957
 4135TIP3    H212351   7.046   4.137   0.828
 4136TIP3   OH212352   7.282   4.276   2.101
 4136TIP3    H112353   7.205   4.337   2.102
 4136TIP3    H212354   7.334   4.311   2.025
 4137TIP3   OH212355   7.115   4.010   0.719
 4137TIP3    H112356   7.091   4.018   0.625
 4137TIP3    H212357   7.213   4.011   0.713
 4138TIP3   OH212358   7.802   4.681   2.234
 4138TIP3    H112359   7.878   4.652   2.183
 4138TIP3    H212360   7.795   4.613   2.303
 4139TIP3   OH212361   7.406   4.067   2.226
 4139TIP3    H112362   7.408   3.989   2.167
 4139TIP3    H212363   7.363   4.135   2.169
 4140TIP3   OH212364   7.408   3.853   2.037
 4140TIP3    H112365   7.438   3.897   1.954
 4140TIP3    H212366   7.315   3.833   2.016
 4141TIP3   OH212367   7.433   4.386   1.910
 4141TIP3    H112368   7.520   4.396   1.868
 4141TIP3    H212369   7.380   4.453   1.862
 4142TIP3   OH212370   8.020   4.358   2.293
 4142TIP3    H112371   8.057   4.270   2.276
 4142TIP3    H212372   8.085   4.416   2.250
 4143TIP3   OH212373   8.066   4.607   2.027
 4143TIP3    H112374   8.014   4.663   1.965
 4143TIP3    H212375   8.148   4.594   1.975
 4144TIP3   OH212376   7.286   4.173   2.461
 4144TIP3    H112377   7.217   4.105   2.477
 4144TIP3    H212378   7.318   4.148   2.372
 4145TIP3   OH212379   7.529   3.615   2.112
 4145TIP3    H112380   7.479   3.696   2.088
 4145TIP3    H212381   7.461   3.545   2.098
 4146TIP3   OH212382   7.666   4.116   2.319
 4146TIP3    H112383   7.649   4.102   2.414
 4146TIP3    H212384   7.577   4.094   2.284
 4147TIP3   OH212385   7.912   4.085   2.174
 4147TIP3    H112386   7.832   4.080   2.229
 4147TIP3    H212387   7.977   4.035   2.229
 4148TIP3   OH212388   8.097   3.974   2.340
 4148TIP3    H112389   8.168   3.909   2.344
 4148TIP3    H212390   8.116   4.032   2.416
 4149TIP3   OH212391   7.123   3.954   2.515
 4149TIP3    H112392   7.128   3.862   2.483
 4149TIP3    H212393   7.160   3.944   2.605
 4150TIP3   OH212394   7.631   3.623   2.366
 4150TIP3    H112395   7.691   3.547   2.359
 4150TIP3    H212396   7.591   3.622   2.277
 4151TIP3   OH212397   7.702   3.841   2.523
 4151TIP3    H112398   7.680   3.771   2.458
 4151TIP3    H212399   7.624   3.901   2.516
 4152TIP3   OH212400   6.939   5.059   0.616
 4152TIP3    H112401   7.021   5.051   0.562
 4152TIP3    H212402   6.886   5.118   0.561
 4153TIP3   OH212403   6.400   4.451   0.840
 4153TIP3    H112404   6.494   4.475   0.822
 4153TIP3    H212405   6.395   4.364   0.796
 4154TIP3   OH212406   6.317   5.064   1.256
 4154TIP3    H112407   6.254   5.002   1.213
 4154TIP3    H212408   6.363   5.003   1.318
 4155TIP3   OH212409   6.454   4.908   1.438
 4155TIP3    H112410   6.442   4.839   1.505
 4155TIP3    H212411   6.506   4.973   1.490
 4156TIP3   OH212412   8.251   5.308   1.515
 4156TIP3    H112413   8.200   5.224   1.509
 4156TIP3    H212414   8.229   5.333   1.606
 4157TIP3   OH212415   8.223   5.032   2.094
 4157TIP3    H112416   8.156   5.030   2.165
 4157TIP3    H212417   8.265   5.119   2.106
 4158TIP3   OH212418   8.088   5.084   1.536
 4158TIP3    H112419   8.022   5.123   1.597
 4158TIP3    H212420   8.032   5.033   1.475
 4159TIP3   OH212421   7.988   4.215   1.064
 4159TIP3    H112422   8.078   4.174   1.071
 4159TIP3    H212423   7.985   4.260   1.150
 4160TIP3   OH212424   6.637   4.323   1.809
 4160TIP3    H112425   6.635   4.288   1.718
 4160TIP3    H212426   6.735   4.323   1.826
 4161TIP3   OH212427   6.856   4.005   2.479
 4161TIP3    H112428   6.954   4.001   2.486
 4161TIP3    H212429   6.832   3.920   2.521
 4162TIP3   OH212430   6.818   3.701   1.813
 4162TIP3    H112431   6.880   3.626   1.822
 4162TIP3    H212432   6.880   3.775   1.805
 4163TIP3   OH212433   6.618   3.972   1.885
 4163TIP3    H112434   6.669   3.971   1.801
 4163TIP3    H212435   6.647   4.055   1.924
 4164TIP3   OH212436   6.605   3.472   1.384
 4164TIP3    H112437   6.513   3.471   1.416
 4164TIP3    H212438   6.598   3.534   1.308
 4165TIP3   OH212439   7.757   5.181   0.879
 4165TIP3    H112440   7.785   5.181   0.786
 4165TIP3    H212441   7.819   5.243   0.920
 4166TIP3   OH212442   6.824   3.553   2.199
 4166TIP3    H112443   6.775   3.553   2.283
 4166TIP3    H212444   6.759   3.594   2.139
 4167TIP3   OH212445   6.863   4.989   2.278
 4167TIP3    H112446   6.771   4.962   2.263
 4167TIP3    H212447   6.876   4.966   2.370
 4168TIP3   OH212448   7.044   5.021   1.825
 4168TIP3    H112449   6.997   5.098   1.786
 4168TIP3    H212450   7.131   5.034   1.781
 4169TIP3   OH212451   7.484   5.264   1.963
 4169TIP3    H112452   7.526   5.261   2.051
 4169TIP3    H212453   7.551   5.314   1.912
 4170TIP3   OH212454   7.664   5.416   1.824
 4170TIP3    H112455   7.737   5.366   1.784
 4170TIP3    H212456   7.715   5.474   1.885
 4171TIP3   OH212457   6.718   5.276   1.850
 4171TIP3    H112458   6.627   5.307   1.830
 4171TIP3    H212459   6.734   5.323   1.934
 4172TIP3   OH212460   6.954   5.255   1.709
 4172TIP3    H112461   6.867   5.266   1.753
 4172TIP3    H212462   6.935   5.285   1.619
 4173TIP3   OH212463   7.379   5.281   1.506
 4173TIP3    H112464   7.308   5.302   1.443
 4173TIP3    H212465   7.393   5.368   1.550
 4174TIP3   OH212466   7.647   5.215   1.558
 4174TIP3    H112467   7.555   5.238   1.538
 4174TIP3    H212468   7.696   5.291   1.521
 4175TIP3   OH212469   7.832   5.402   1.468
 4175TIP3    H112470   7.833   5.491   1.427
 4175TIP3    H212471   7.868   5.345   1.396
 4176TIP3   OH212472   6.630   5.068   1.595
 4176TIP3    H112473   6.657   5.039   1.685
 4176TIP3    H212474   6.702   5.024   1.543
 4177TIP3   OH212475   6.826   4.941   1.454
 4177TIP3    H112476   6.840   4.856   1.503
 4177TIP3    H212477   6.917   4.976   1.451
 4178TIP3   OH212478   7.094   5.033   1.459
 4178TIP3    H112479   7.123   4.940   1.449
 4178TIP3    H212480   7.142   5.056   1.541
 4179TIP3   OH212481   7.613   3.659   1.498
 4179TIP3    H112482   7.601   3.608   1.579
 4179TIP3    H212483   7.710   3.654   1.485
 4180TIP3   OH212484   6.913   3.398   1.556
 4180TIP3    H112485   6.821   3.365   1.560
 4180TIP3    H212486   6.962   3.313   1.552
 4181TIP3   OH212487   6.699   3.270   1.206
 4181TIP3    H112488   6.731   3.328   1.134
 4181TIP3    H212489   6.674   3.336   1.274
 4182TIP3   OH212490   7.360   3.430   1.441
 4182TIP3    H112491   7.411   3.476   1.372
 4182TIP3    H212492   7.394   3.472   1.521
 4183TIP3   OH212493   7.858   3.557   1.417
 4183TIP3    H112494   7.901   3.538   1.333
 4183TIP3    H212495   7.864   3.471   1.462
 4184TIP3   OH212496   6.416   4.848   0.987
 4184TIP3    H112497   6.332   4.813   0.951
 4184TIP3    H212498   6.410   4.939   0.951
 4185TIP3   OH212499   6.822   3.429   0.967
 4185TIP3    H112500   6.870   3.365   0.910
 4185TIP3    H212501   6.896   3.482   1.003
 4186TIP3   OH212502   7.330   3.607   1.067
 4186TIP3    H112503   7.392   3.563   1.128
 4186TIP3    H212504   7.350   3.701   1.091
 4187TIP3   OH212505   7.121   3.678   2.447
 4187TIP3    H112506   7.085   3.609   2.505
 4187TIP3    H212507   7.215   3.678   2.476
 4188TIP3   OH212508   7.371   3.676   2.568
 4188TIP3    H112509   7.457   3.655   2.530
 4188TIP3    H212510   7.359   3.605   2.634
 4189TIP3   OH212511   6.464   4.833   0.644
 4189TIP3    H112512   6.470   4.899   0.715
 4189TIP3    H212513   6.558   4.809   0.630
 4190TIP3   OH212514   8.129   5.301   1.849
 4190TIP3    H112515   8.053   5.265   1.800
 4190TIP3    H212516   8.105   5.395   1.854
 4191TIP3   OH212517   0.061   5.193   2.810
 4191TIP3    H112518   0.028   5.283   2.827
 4191TIP3    H212519  -0.015   5.154   2.762
 4192TIP3   OH212520   0.060   5.183   3.195
 4192TIP3    H112521   0.098   5.168   3.284
 4192TIP3    H212522   0.023   5.096   3.174
 4193TIP3   OH212523   0.301   5.495   2.885
 4193TIP3    H112524   0.300   5.425   2.955
 4193TIP3    H212525   0.331   5.571   2.938
 4194TIP3   OH212526   0.004   5.985   2.879
 4194TIP3    H112527   0.052   5.902   2.863
 4194TIP3    H212528  -0.057   5.959   2.951
 4195TIP3   OH212529  -0.112   5.401   3.239
 4195TIP3    H112530  -0.074   5.317   3.206
 4195TIP3    H212531  -0.032   5.446   3.267
 4196TIP3   OH212532   0.867   4.733   3.249
 4196TIP3    H112533   0.901   4.821   3.271
 4196TIP3    H212534   0.896   4.727   3.156
 4197TIP3   OH212535   0.266   4.912   3.279
 4197TIP3    H112536   0.321   4.833   3.295
 4197TIP3    H212537   0.242   4.898   3.185
 4198TIP3   OH212538   0.296   4.676   2.860
 4198TIP3    H112539   0.362   4.663   2.933
 4198TIP3    H212540   0.356   4.707   2.790
 4199TIP3   OH212541   0.948   4.952   3.417
 4199TIP3    H112542   0.864   4.996   3.393
 4199TIP3    H212543   0.965   4.990   3.504
 4200TIP3   OH212544  -0.080   5.429   2.694
 4200TIP3    H112545  -0.087   5.380   2.611
 4200TIP3    H212546  -0.007   5.491   2.676
 4201TIP3   OH212547   0.487   4.683   3.046
 4201TIP3    H112548   0.502   4.637   3.128
 4201TIP3    H212549   0.578   4.705   3.018
 4202TIP3   OH212550   0.363   5.742   3.038
 4202TIP3    H112551   0.277   5.730   3.083
 4202TIP3    H212552   0.355   5.833   3.004
 4203TIP3   OH212553   0.664   4.634   3.410
 4203TIP3    H112554   0.578   4.664   3.375
 4203TIP3    H212555   0.727   4.669   3.343
 4204TIP3   OH212556  -0.037   4.274   3.378
 4204TIP3    H112557  -0.047   4.179   3.399
 4204TIP3    H212558  -0.082   4.315   3.452
 4205TIP3   OH212559   0.066   5.764   2.700
 4205TIP3    H112560   0.118   5.682   2.683
 4205TIP3    H212561   0.131   5.832   2.672
 4206TIP3   OH212562   0.199   5.537   2.633
 4206TIP3    H112563   0.227   5.464   2.575
 4206TIP3    H212564   0.246   5.517   2.717
 4207TIP3   OH212565   0.618   5.651   3.397
 4207TIP3    H112566   0.546   5.585   3.398
 4207TIP3    H212567   0.583   5.717   3.334
 4208TIP3   OH212568  -0.116   5.069   2.647
 4208TIP3    H112569  -0.193   5.012   2.671
 4208TIP3    H212570  -0.092   5.039   2.558
 4209TIP3   OH212571  -0.133   4.833   2.368
 4209TIP3    H112572  -0.060   4.886   2.405
 4209TIP3    H212573  -0.082   4.767   2.318
 4210TIP3   OH212574   0.805   5.293   3.240
 4210TIP3    H112575   0.716   5.336   3.244
 4210TIP3    H212576   0.828   5.312   3.147
 4211TIP3   OH212577   0.240   5.130   2.617
 4211TIP3    H112578   0.186   5.150   2.697
 4211TIP3    H212579   0.324   5.101   2.660
 4212TIP3   OH212580   0.467   5.170   3.526
 4212TIP3    H112581   0.463   5.262   3.557
 4212TIP3    H212582   0.388   5.175   3.470
 4213TIP3   OH212583   0.134   5.734   3.180
 4213TIP3    H112584   0.114   5.826   3.207
 4213TIP3    H212585   0.152   5.692   3.265
 4214TIP3   OH212586   0.076   4.987   2.449
 4214TIP3    H112587   0.132   5.047   2.503
 4214TIP3    H212588   0.105   5.014   2.358
 4215TIP3   OH212589   0.590   4.231   2.491
 4215TIP3    H112590   0.510   4.249   2.544
 4215TIP3    H212591   0.610   4.320   2.457
 4216TIP3   OH212592   0.393   5.590   2.041
 4216TIP3    H112593   0.400   5.687   2.033
 4216TIP3    H212594   0.487   5.564   2.032
 4217TIP3   OH212595   0.833   6.005   3.435
 4217TIP3    H112596   0.836   5.908   3.448
 4217TIP3    H212597   0.750   6.026   3.484
 4218TIP3   OH212598  -0.043   5.844   2.165
 4218TIP3    H112599  -0.019   5.756   2.132
 4218TIP3    H212600  -0.057   5.829   2.260
 4219TIP3   OH212601  -0.053   5.865   2.450
 4219TIP3    H112602  -0.118   5.867   2.523
 4219TIP3    H212603   0.028   5.846   2.500
 4220TIP3   OH212604   0.723   5.129   3.715
 4220TIP3    H112605   0.642   5.146   3.664
 4220TIP3    H212606   0.737   5.034   3.699
 4221TIP3   OH212607   0.265   4.472   3.714
 4221TIP3    H112608   0.335   4.448   3.778
 4221TIP3    H212609   0.183   4.458   3.764
 4222TIP3   OH212610   0.487   4.905   3.630
 4222TIP3    H112611   0.439   4.903   3.715
 4222TIP3    H212612   0.467   4.995   3.596
 4223TIP3   OH212613   0.155   5.044   2.199
 4223TIP3    H112614   0.118   5.012   2.115
 4223TIP3    H212615   0.241   5.077   2.170
 4224TIP3   OH212616  -0.151   4.417   2.469
 4224TIP3    H112617  -0.163   4.415   2.567
 4224TIP3    H212618  -0.175   4.324   2.449
 4225TIP3   OH212619   0.028   4.854   2.784
 4225TIP3    H112620  -0.019   4.928   2.743
 4225TIP3    H212621   0.080   4.818   2.709
 4226TIP3   OH212622   0.227   5.114   3.855
 4226TIP3    H112623   0.203   5.043   3.918
 4226TIP3    H212624   0.321   5.128   3.878
 4227TIP3   OH212625   0.176   4.870   3.022
 4227TIP3    H112626   0.118   4.899   2.948
 4227TIP3    H212627   0.216   4.793   2.977
 4228TIP3   OH212628   0.166   5.105   3.436
 4228TIP3    H112629   0.211   5.038   3.380
 4228TIP3    H212630   0.155   5.055   3.519
 4229TIP3   OH212631  -0.129   4.573   3.104
 4229TIP3    H112632  -0.216   4.610   3.128
 4229TIP3    H212633  -0.073   4.597   3.180
 4230TIP3   OH212634   0.359   4.654   3.331
 4230TIP3    H112635   0.315   4.672   3.416
 4230TIP3    H212636   0.292   4.598   3.288
 4231TIP3   OH212637   0.530   6.346   3.540
 4231TIP3    H112638   0.525   6.370   3.446
 4231TIP3    H212639   0.605   6.400   3.571
 4232TIP3   OH212640  -0.040   4.896   3.206
 4232TIP3    H112641   0.036   4.874   3.150
 4232TIP3    H212642  -0.011   4.867   3.294
 4233TIP3   OH212643  -0.053   4.791   3.510
 4233TIP3    H112644  -0.116   4.865   3.494
 4233TIP3    H212645   0.019   4.839   3.555
 4234TIP3   OH212646   0.566   5.412   3.224
 4234TIP3    H112647   0.578   5.483   3.158
 4234TIP3    H212648   0.469   5.401   3.225
 4235TIP3   OH212649   0.110   4.511   2.458
 4235TIP3    H112650   0.013   4.497   2.467
 4235TIP3    H212651   0.123   4.603   2.491
 4236TIP3   OH212652  -0.006   5.485   3.634
 4236TIP3    H112653   0.092   5.487   3.629
 4236TIP3    H212654  -0.029   5.577   3.614
 4237TIP3   OH212655   0.184   4.757   2.565
 4237TIP3    H112656   0.280   4.760   2.586
 4237TIP3    H212657   0.171   4.839   2.514
 4238TIP3   OH212658  -0.204   5.347   2.431
 4238TIP3    H112659  -0.266   5.420   2.420
 4238TIP3    H212660  -0.256   5.286   2.484
 4239TIP3   OH212661   0.009   5.226   3.973
 4239TIP3    H112662  -0.060   5.205   3.908
 4239TIP3    H212663   0.090   5.206   3.923
 4240TIP3   OH212664   0.197   5.844   3.462
 4240TIP3    H112665   0.135   5.775   3.486
 4240TIP3    H212666   0.240   5.859   3.549
 4241TIP3   OH212667   0.624   4.853   2.397
 4241TIP3    H112668   0.562   4.807   2.336
 4241TIP3    H212669   0.621   4.942   2.357
 4242TIP3   OH212670   0.865   5.727   3.472
 4242TIP3    H112671   0.768   5.709   3.469
 4242TIP3    H212672   0.889   5.686   3.386
 4243TIP3   OH212673   0.343   5.661   2.312
 4243TIP3    H112674   0.289   5.599   2.364
 4243TIP3    H212675   0.340   5.622   2.223
 4244TIP3   OH212676   0.316   5.310   3.095
 4244TIP3    H112677   0.235   5.283   3.141
 4244TIP3    H212678   0.354   5.223   3.070
 4245TIP3   OH212679   0.095   5.406   2.208
 4245TIP3    H112680   0.137   5.377   2.292
 4245TIP3    H212681   0.006   5.368   2.218
 4246TIP3   OH212682   0.368   6.035   3.378
 4246TIP3    H112683   0.296   5.970   3.394
 4246TIP3    H212684   0.331   6.093   3.308
 4247TIP3   OH212685   0.427   5.861   2.038
 4247TIP3    H112686   0.445   5.914   1.958
 4247TIP3    H212687   0.356   5.915   2.078
 4248TIP3   OH212688   0.242   5.337   2.439
 4248TIP3    H112689   0.229   5.262   2.501
 4248TIP3    H212690   0.336   5.321   2.415
 4249TIP3   OH212691   0.275   4.719   3.587
 4249TIP3    H112692   0.362   4.756   3.608
 4249TIP3    H212693   0.275   4.634   3.636
 4250TIP3   OH212694   0.168   4.455   2.749
 4250TIP3    H112695   0.152   4.479   2.656
 4250TIP3    H212696   0.207   4.538   2.784
 4251TIP3   OH212697  -0.156   4.655   2.842
 4251TIP3    H112698  -0.087   4.723   2.832
 4251TIP3    H212699  -0.151   4.635   2.937
 4252TIP3   OH212700   0.126   4.950   3.654
 4252TIP3    H112701   0.159   5.008   3.726
 4252TIP3    H212702   0.186   4.873   3.660
 4253TIP3   OH212703  -0.004   4.361   2.953
 4253TIP3    H112704  -0.024   4.442   3.005
 4253TIP3    H212705   0.055   4.397   2.884
 4254TIP3   OH212706   0.756   4.862   3.634
 4254TIP3    H112707   0.658   4.860   3.635
 4254TIP3    H212708   0.773   4.829   3.545
 4255TIP3   OH212709   0.408   5.049   3.013
 4255TIP3    H112710   0.336   4.987   3.031
 4255TIP3    H212711   0.482   5.008   3.064
 4256TIP3   OH212712   0.379   6.012   2.969
 4256TIP3    H112713   0.339   6.060   2.893
 4256TIP3    H212714   0.474   6.028   2.949
 4257TIP3   OH212715   0.288   5.902   3.711
 4257TIP3    H112716   0.265   5.846   3.788
 4257TIP3    H212717   0.350   5.966   3.751
 4258TIP3   OH212718   0.079   5.616   2.027
 4258TIP3    H112719   0.097   5.549   2.097
 4258TIP3    H212720   0.147   5.595   1.961
 4259TIP3   OH212721  -0.198   5.283   2.163
 4259TIP3    H112722  -0.206   5.289   2.260
 4259TIP3    H212723  -0.206   5.186   2.150
 4260TIP3   OH212724  -0.395   4.811   2.462
 4260TIP3    H112725  -0.422   4.803   2.368
 4260TIP3    H212726  -0.298   4.811   2.453
 4261TIP3   OH212727   0.249   5.474   3.938
 4261TIP3    H112728   0.305   5.440   3.866
 4261TIP3    H212729   0.253   5.401   4.002
 4262TIP3   OH212730   0.385   5.122   2.070
 4262TIP3    H112731   0.367   5.076   1.986
 4262TIP3    H212732   0.350   5.212   2.047
 4263TIP3   OH212733  -0.179   4.591   3.650
 4263TIP3    H112734  -0.124   4.652   3.595
 4263TIP3    H212735  -0.217   4.657   3.712
 4264TIP3   OH212736  -0.057   5.233   3.548
 4264TIP3    H112737   0.030   5.208   3.510
 4264TIP3    H212738  -0.042   5.330   3.560
 4265TIP3   OH212739   0.478   5.139   3.975
 4265TIP3    H112740   0.533   5.059   3.983
 4265TIP3    H212741   0.538   5.200   3.931
 4266TIP3   OH212742   0.513   5.408   3.735
 4266TIP3    H112743   0.446   5.435   3.667
 4266TIP3    H212744   0.595   5.430   3.687
 4267TIP3   OH212745   0.003   4.408   3.786
 4267TIP3    H112746  -0.057   4.478   3.753
 4267TIP3    H212747  -0.052   4.329   3.771
 4268TIP3   OH212748   0.134   4.909   4.015
 4268TIP3    H112749   0.160   4.909   4.109
 4268TIP3    H212750   0.043   4.876   4.019
 4269TIP3   OH212751   0.362   4.849   3.864
 4269TIP3    H112752   0.289   4.854   3.928
 4269TIP3    H212753   0.438   4.825   3.921
 4270TIP3   OH212754   0.587   4.800   4.018
 4270TIP3    H112755   0.601   4.704   4.033
 4270TIP3    H212756   0.583   4.836   4.109
 4271TIP3   OH212757   0.090   4.409   4.049
 4271TIP3    H112758   0.159   4.340   4.039
 4271TIP3    H212759   0.053   4.411   3.958
 4272TIP3   OH212760   0.168   4.619   4.207
 4272TIP3    H112761   0.147   4.545   4.147
 4272TIP3    H212762   0.084   4.670   4.204
 4273TIP3   OH212763   0.636   6.097   2.930
 4273TIP3    H112764   0.657   6.125   3.021
 4273TIP3    H212765   0.697   6.152   2.878
 4274TIP3   OH212766   0.665   6.120   3.209
 4274TIP3    H112767   0.612   6.037   3.206
 4274TIP3    H212768   0.734   6.093   3.271
 4275TIP3   OH212769   0.716   5.800   3.784
 4275TIP3    H112770   0.640   5.809   3.844
 4275TIP3    H212771   0.755   5.890   3.787
 4276TIP3   OH212772   0.512   5.304   2.407
 4276TIP3    H112773   0.551   5.392   2.410
 4276TIP3    H212774   0.557   5.261   2.484
 4277TIP3   OH212775   0.649   5.187   2.609
 4277TIP3    H112776   0.586   5.140   2.669
 4277TIP3    H212777   0.719   5.216   2.671
 4278TIP3   OH212778   0.712   5.578   3.039
 4278TIP3    H112779   0.762   5.505   2.998
 4278TIP3    H212780   0.700   5.641   2.966
 4279TIP3   OH212781   0.534   5.873   3.226
 4279TIP3    H112782   0.465   5.915   3.281
 4279TIP3    H212783   0.482   5.824   3.160
 4280TIP3   OH212784   0.588   5.090   2.248
 4280TIP3    H112785   0.515   5.088   2.182
 4280TIP3    H212786   0.555   5.162   2.307
 4281TIP3   OH212787   0.455   4.765   2.201
 4281TIP3    H112788   0.413   4.788   2.118
 4281TIP3    H212789   0.436   4.668   2.203
 4282TIP3   OH212790   0.466   5.037   2.747
 4282TIP3    H112791   0.473   4.940   2.738
 4282TIP3    H212792   0.452   5.047   2.844
 4283TIP3   OH212793   0.755   5.464   3.612
 4283TIP3    H112794   0.827   5.399   3.594
 4283TIP3    H212795   0.750   5.515   3.530
 4284TIP3   OH212796   0.940   5.262   3.616
 4284TIP3    H112797   0.864   5.216   3.658
 4284TIP3    H212798   1.011   5.198   3.636
 4285TIP3   OH212799   0.400   4.499   2.186
 4285TIP3    H112800   0.483   4.471   2.232
 4285TIP3    H212801   0.335   4.434   2.216
 4286TIP3   OH212802   0.457   4.763   2.640
 4286TIP3    H112803   0.488   4.670   2.658
 4286TIP3    H212804   0.521   4.787   2.571
 4287TIP3   OH212805   0.620   4.942   3.148
 4287TIP3    H112806   0.707   4.958   3.105
 4287TIP3    H212807   0.640   4.972   3.238
 4288TIP3   OH212808   0.698   5.075   3.380
 4288TIP3    H112809   0.616   5.109   3.421
 4288TIP3    H212810   0.730   5.154   3.331
 4289TIP3   OH212811   1.142   4.663   3.927
 4289TIP3    H112812   1.204   4.599   3.885
 4289TIP3    H212813   1.112   4.715   3.850
 4290TIP3   OH212814   0.542   4.515   2.684
 4290TIP3    H112815   0.616   4.524   2.749
 4290TIP3    H212816   0.515   4.422   2.698
 4291TIP3   OH212817   1.010   4.799   3.732
 4291TIP3    H112818   0.924   4.843   3.745
 4291TIP3    H212819   0.981   4.726   3.674
 4292TIP3   OH212820   0.645   4.442   2.299
 4292TIP3    H112821   0.690   4.363   2.263
 4292TIP3    H212822   0.720   4.494   2.334
 4293TIP3   OH212823   0.216   5.955   2.587
 4293TIP3    H112824   0.274   5.955   2.509
 4293TIP3    H212825   0.254   6.027   2.640
 4294TIP3   OH212826   0.112   6.194   3.518
 4294TIP3    H112827   0.171   6.121   3.496
 4294TIP3    H212828   0.172   6.252   3.569
 4295TIP3   OH212829   0.911   4.564   3.615
 4295TIP3    H112830   0.824   4.558   3.572
 4295TIP3    H212831   0.946   4.472   3.603
 4296TIP3   OH212832   0.081   6.012   3.223
 4296TIP3    H112833   0.012   6.033   3.288
 4296TIP3    H212834   0.117   6.100   3.203
 4297TIP3   OH212835   0.316   6.204   3.162
 4297TIP3    H112836   0.296   6.283   3.109
 4297TIP3    H212837   0.333   6.136   3.093
 4298TIP3   OH212838   0.133   4.481   3.245
 4298TIP3    H112839   0.082   4.403   3.271
 4298TIP3    H212840   0.202   4.442   3.187
 4299TIP3   OH212841   0.653   4.364   3.118
 4299TIP3    H112842   0.700   4.426   3.056
 4299TIP3    H212843   0.562   4.396   3.110
 4300TIP3   OH212844  -0.169   4.208   3.134
 4300TIP3    H112845  -0.131   4.259   3.061
 4300TIP3    H212846  -0.126   4.250   3.210
 4301TIP3   OH212847   0.349   4.367   3.112
 4301TIP3    H112848   0.363   4.330   3.024
 4301TIP3    H212849   0.342   4.286   3.168
 4302TIP3   OH212850   0.385   4.280   2.672
 4302TIP3    H112851   0.307   4.333   2.694
 4302TIP3    H212852   0.366   4.196   2.720
 4303TIP3   OH212853  -0.176   4.401   2.736
 4303TIP3    H112854  -0.148   4.358   2.818
 4303TIP3    H212855  -0.187   4.493   2.766
 4304TIP3   OH212856   0.370   5.930   2.361
 4304TIP3    H112857   0.365   5.833   2.347
 4304TIP3    H212858   0.320   5.962   2.283
 4305TIP3   OH212859   0.651   4.528   4.044
 4305TIP3    H112860   0.671   4.498   4.135
 4305TIP3    H212861   0.740   4.525   4.002
 4306TIP3   OH212862   0.589   6.078   3.542
 4306TIP3    H112863   0.512   6.047   3.489
 4306TIP3    H212864   0.567   6.174   3.547
 4307TIP3   OH212865   1.856   5.453   2.299
 4307TIP3    H112866   1.824   5.544   2.280
 4307TIP3    H212867   1.780   5.401   2.270
 4308TIP3   OH212868   1.851   5.453   2.691
 4308TIP3    H112869   1.889   5.429   2.778
 4308TIP3    H212870   1.812   5.368   2.664
 4309TIP3   OH212871   1.151   5.345   3.047
 4309TIP3    H112872   1.176   5.273   3.108
 4309TIP3    H212873   1.229   5.402   3.055
 4310TIP3   OH212874   2.098   5.758   2.368
 4310TIP3    H112875   2.084   5.687   2.432
 4310TIP3    H212876   2.130   5.830   2.426
 4311TIP3   OH212877   1.125   5.757   2.765
 4311TIP3    H112878   1.115   5.659   2.769
 4311TIP3    H212879   1.221   5.765   2.776
 4312TIP3   OH212880   0.833   4.963   2.555
 4312TIP3    H112881   0.780   5.042   2.574
 4312TIP3    H212882   0.764   4.903   2.521
 4313TIP3   OH212883   0.892   5.242   2.731
 4313TIP3    H112884   0.934   5.164   2.774
 4313TIP3    H212885   0.958   5.264   2.665
 4314TIP3   OH212886   1.751   6.219   2.386
 4314TIP3    H112887   1.792   6.145   2.335
 4314TIP3    H212888   1.740   6.178   2.473
 4315TIP3   OH212889   1.653   5.680   2.733
 4315TIP3    H112890   1.693   5.600   2.695
 4315TIP3    H212891   1.735   5.727   2.757
 4316TIP3   OH212892   2.667   4.998   2.731
 4316TIP3    H112893   2.697   5.080   2.774
 4316TIP3    H212894   2.691   5.014   2.638
 4317TIP3   OH212895   2.066   5.179   2.762
 4317TIP3    H112896   2.108   5.094   2.784
 4317TIP3    H212897   2.032   5.160   2.672
 4318TIP3   OH212898   1.411   4.839   2.722
 4318TIP3    H112899   1.385   4.911   2.661
 4318TIP3    H212900   1.361   4.764   2.683
 4319TIP3   OH212901   2.100   4.931   2.349
 4319TIP3    H112902   2.170   4.915   2.416
 4319TIP3    H212903   2.154   4.965   2.276
 4320TIP3   OH212904   1.037   5.037   2.838
 4320TIP3    H112905   1.121   5.020   2.885
 4320TIP3    H212906   1.049   4.979   2.760
 4321TIP3   OH212907   1.477   5.238   2.631
 4321TIP3    H112908   1.570   5.213   2.645
 4321TIP3    H212909   1.438   5.153   2.601
 4322TIP3   OH212910   2.741   5.207   2.900
 4322TIP3    H112911   2.655   5.251   2.883
 4322TIP3    H212912   2.757   5.234   2.992
 4323TIP3   OH212913   1.398   4.824   3.164
 4323TIP3    H112914   1.333   4.851   3.097
 4323TIP3    H212915   1.345   4.840   3.245
 4324TIP3   OH212916   1.741   5.673   2.171
 4324TIP3    H112917   1.703   5.659   2.083
 4324TIP3    H212918   1.695   5.755   2.199
 4325TIP3   OH212919   1.507   5.599   2.956
 4325TIP3    H112920   1.446   5.666   2.993
 4325TIP3    H212921   1.550   5.649   2.883
 4326TIP3   OH212922   2.303   4.936   2.528
 4326TIP3    H112923   2.289   4.890   2.611
 4326TIP3    H212924   2.356   5.014   2.556
 4327TIP3   OH212925   1.276   4.941   2.940
 4327TIP3    H112926   1.340   5.009   2.969
 4327TIP3    H212927   1.327   4.899   2.867
 4328TIP3   OH212928   1.335   5.795   3.054
 4328TIP3    H112929   1.309   5.884   3.023
 4328TIP3    H212930   1.257   5.775   3.110
 4329TIP3   OH212931   2.165   5.999   2.532
 4329TIP3    H112932   2.076   5.989   2.572
 4329TIP3    H212933   2.157   6.086   2.490
 4330TIP3   OH212934   2.460   4.897   2.897
 4330TIP3    H112935   2.373   4.925   2.864
 4330TIP3    H212936   2.521   4.930   2.827
 4331TIP3   OH212937   1.752   4.538   2.881
 4331TIP3    H112938   1.737   4.444   2.899
 4331TIP3    H212939   1.675   4.578   2.928
 4332TIP3   OH212940   1.862   6.043   2.201
 4332TIP3    H112941   1.913   5.960   2.186
 4332TIP3    H212942   1.925   6.107   2.162
 4333TIP3   OH212943   2.011   5.829   2.117
 4333TIP3    H112944   1.978   5.747   2.078
 4333TIP3    H212945   2.049   5.797   2.202
 4334TIP3   OH212946   2.392   5.910   2.876
 4334TIP3    H112947   2.380   5.831   2.818
 4334TIP3    H212948   2.376   5.984   2.814
 4335TIP3   OH212949   1.684   5.304   2.135
 4335TIP3    H112950   1.606   5.358   2.110
 4335TIP3    H212951   1.733   5.299   2.051
 4336TIP3   OH212952   1.643   5.092   1.847
 4336TIP3    H112953   1.711   5.142   1.896
 4336TIP3    H212954   1.699   5.027   1.800
 4337TIP3   OH212955   2.587   5.549   2.723
 4337TIP3    H112956   2.503   5.600   2.727
 4337TIP3    H212957   2.617   5.572   2.633
 4338TIP3   OH212958   2.034   5.388   2.103
 4338TIP3    H112959   1.980   5.410   2.182
 4338TIP3    H212960   2.118   5.361   2.147
 4339TIP3   OH212961   2.266   5.424   3.023
 4339TIP3    H112962   2.264   5.506   3.074
 4339TIP3    H212963   2.180   5.428   2.977
 4340TIP3   OH212964   1.269   5.386   2.526
 4340TIP3    H112965   1.218   5.327   2.467
 4340TIP3    H212966   1.343   5.329   2.556
 4341TIP3   OH212967   1.404   5.802   2.666
 4341TIP3    H112968   1.381   5.746   2.591
 4341TIP3    H212969   1.492   5.767   2.689
 4342TIP3   OH212970   1.402   5.355   2.876
 4342TIP3    H112971   1.436   5.331   2.788
 4342TIP3    H212972   1.445   5.441   2.894
 4343TIP3   OH212973   1.925   5.993   2.654
 4343TIP3    H112974   1.914   6.072   2.710
 4343TIP3    H212975   1.910   5.919   2.717
 4344TIP3   OH212976   1.539   5.912   3.201
 4344TIP3    H112977   1.478   5.972   3.248
 4344TIP3    H212978   1.475   5.858   3.151
 4345TIP3   OH212979   1.869   5.248   1.932
 4345TIP3    H112980   1.930   5.306   1.982
 4345TIP3    H212981   1.896   5.268   1.839
 4346TIP3   OH212982   1.293   5.468   3.303
 4346TIP3    H112983   1.297   5.555   3.346
 4346TIP3    H212984   1.199   5.445   3.320
 4347TIP3   OH212985   1.615   5.922   2.207
 4347TIP3    H112986   1.699   5.971   2.217
 4347TIP3    H212987   1.558   5.988   2.165
 4348TIP3   OH212988   1.332   6.077   3.290
 4348TIP3    H112989   1.296   6.078   3.200
 4348TIP3    H212990   1.252   6.055   3.344
 4349TIP3   OH212991   2.388   4.483   1.982
 4349TIP3    H112992   2.306   4.504   2.031
 4349TIP3    H212993   2.402   4.566   1.932
 4350TIP3   OH212994   1.107   5.233   2.339
 4350TIP3    H112995   1.101   5.236   2.243
 4350TIP3    H212996   1.094   5.140   2.359
 4351TIP3   OH212997   2.189   5.850   1.533
 4351TIP3    H112998   2.198   5.946   1.516
 4351TIP3    H212999   2.281   5.819   1.519
 4352TIP3   OH213000   0.917   5.611   3.233
 4352TIP3    H113001   0.838   5.594   3.178
 4352TIP3    H213002   0.948   5.521   3.255
 4353TIP3   OH213003   0.766   5.811   2.852
 4353TIP3    H113004   0.861   5.804   2.867
 4353TIP3    H213005   0.741   5.879   2.916
 4354TIP3   OH213006   2.621   6.253   2.921
 4354TIP3    H113007   2.623   6.157   2.939
 4354TIP3    H213008   2.540   6.279   2.970
 4355TIP3   OH213009   1.734   6.041   3.058
 4355TIP3    H113010   1.731   6.133   3.091
 4355TIP3    H213011   1.663   6.000   3.112
 4356TIP3   OH213012   1.500   6.168   2.010
 4356TIP3    H113013   1.451   6.150   1.928
 4356TIP3    H213014   1.465   6.254   2.038
 4357TIP3   OH213015   0.925   6.006   2.394
 4357TIP3    H113016   0.977   5.999   2.478
 4357TIP3    H213017   0.840   5.969   2.424
 4358TIP3   OH213018   1.700   6.072   1.648
 4358TIP3    H113019   1.758   6.001   1.613
 4358TIP3    H213020   1.734   6.081   1.740
 4359TIP3   OH213021   1.751   6.119   1.918
 4359TIP3    H113022   1.662   6.129   1.959
 4359TIP3    H213023   1.801   6.079   1.991
 4360TIP3   OH213024   2.518   5.384   3.200
 4360TIP3    H113025   2.435   5.393   3.151
 4360TIP3    H213026   2.536   5.288   3.191
 4361TIP3   OH213027   1.117   5.796   3.218
 4361TIP3    H113028   1.164   5.779   3.302
 4361TIP3    H213029   1.044   5.731   3.224
 4362TIP3   OH213030   1.515   4.617   3.010
 4362TIP3    H113031   1.427   4.586   2.980
 4362TIP3    H213032   1.486   4.697   3.059
 4363TIP3   OH213033   2.051   4.731   3.204
 4363TIP3    H113034   2.121   4.702   3.267
 4363TIP3    H213035   1.968   4.711   3.252
 4364TIP3   OH213036   2.286   5.161   3.122
 4364TIP3    H113037   2.235   5.158   3.206
 4364TIP3    H213038   2.262   5.248   3.086
 4365TIP3   OH213039   1.949   5.290   1.678
 4365TIP3    H113040   1.913   5.266   1.590
 4365TIP3    H213041   2.034   5.330   1.653
 4366TIP3   OH213042   1.661   4.665   1.981
 4366TIP3    H113043   1.626   4.660   2.072
 4366TIP3    H213044   1.621   4.583   1.945
 4367TIP3   OH213045   1.451   5.136   3.029
 4367TIP3    H113046   1.397   5.153   3.109
 4367TIP3    H213047   1.433   5.217   2.976
 4368TIP3   OH213048   1.326   5.023   2.539
 4368TIP3    H113049   1.236   4.989   2.561
 4368TIP3    H213050   1.340   4.979   2.452
 4369TIP3   OH213051   1.822   5.104   2.271
 4369TIP3    H113052   1.772   5.175   2.226
 4369TIP3    H213053   1.878   5.069   2.199
 4370TIP3   OH213054   1.997   5.380   3.354
 4370TIP3    H113055   1.974   5.307   3.416
 4370TIP3    H213056   2.091   5.393   3.376
 4371TIP3   OH213057   1.979   5.130   2.506
 4371TIP3    H113058   1.915   5.155   2.436
 4371TIP3    H213059   2.015   5.050   2.462
 4372TIP3   OH213060   1.267   5.159   3.233
 4372TIP3    H113061   1.289   5.222   3.303
 4372TIP3    H213062   1.254   5.076   3.282
 4373TIP3   OH213063   1.318   4.641   1.944
 4373TIP3    H113064   1.308   4.636   2.042
 4373TIP3    H213065   1.237   4.689   1.920
 4374TIP3   OH213066   0.843   4.679   2.348
 4374TIP3    H113067   0.881   4.709   2.263
 4374TIP3    H213068   0.772   4.745   2.359
 4375TIP3   OH213069   1.987   5.377   2.927
 4375TIP3    H113070   2.022   5.306   2.868
 4375TIP3    H213071   1.958   5.323   3.003
 4376TIP3   OH213072   1.665   4.844   2.600
 4376TIP3    H113073   1.583   4.840   2.654
 4376TIP3    H213074   1.733   4.832   2.668
 4377TIP3   OH213075   1.095   4.896   2.607
 4377TIP3    H113076   1.000   4.902   2.580
 4377TIP3    H213077   1.114   4.801   2.594
 4378TIP3   OH213078   1.359   4.898   2.299
 4378TIP3    H113079   1.454   4.904   2.279
 4378TIP3    H213080   1.316   4.913   2.212
 4379TIP3   OH213081   2.150   4.917   2.804
 4379TIP3    H113082   2.119   4.930   2.897
 4379TIP3    H213083   2.083   4.856   2.771
 4380TIP3   OH213084   1.202   4.942   2.076
 4380TIP3    H113085   1.134   4.886   2.035
 4380TIP3    H213086   1.253   4.969   1.997
 4381TIP3   OH213087   2.324   6.606   3.026
 4381TIP3    H113088   2.324   6.629   2.931
 4381TIP3    H213089   2.405   6.651   3.057
 4382TIP3   OH213090   1.279   5.717   3.443
 4382TIP3    H113091   1.358   5.746   3.492
 4382TIP3    H213092   1.214   5.712   3.516
 4383TIP3   OH213093   1.739   5.172   2.701
 4383TIP3    H113094   1.811   5.128   2.654
 4383TIP3    H213095   1.741   5.128   2.788
 4384TIP3   OH213096   1.264   4.654   2.583
 4384TIP3    H113097   1.222   4.583   2.637
 4384TIP3    H213098   1.311   4.600   2.518
 4385TIP3   OH213099   1.718   5.073   2.982
 4385TIP3    H113100   1.627   5.105   3.002
 4385TIP3    H213101   1.774   5.132   3.036
 4386TIP3   OH213102   1.447   5.455   2.078
 4386TIP3    H113103   1.376   5.389   2.073
 4386TIP3    H213104   1.433   5.490   2.170
 4387TIP3   OH213105   2.353   5.694   2.710
 4387TIP3    H113106   2.377   5.744   2.629
 4387TIP3    H213107   2.269   5.650   2.683
 4388TIP3   OH213108   1.911   4.767   1.949
 4388TIP3    H113109   1.815   4.746   1.959
 4388TIP3    H213110   1.917   4.861   1.976
 4389TIP3   OH213111   1.855   5.777   3.080
 4389TIP3    H113112   1.883   5.753   3.169
 4389TIP3    H213113   1.814   5.864   3.092
 4390TIP3   OH213114   1.980   5.017   2.053
 4390TIP3    H113115   2.076   5.021   2.069
 4390TIP3    H213116   1.963   5.098   2.000
 4391TIP3   OH213117   1.148   5.482   2.760
 4391TIP3    H113118   1.191   5.448   2.679
 4391TIP3    H213119   1.183   5.422   2.828
 4392TIP3   OH213120   1.600   5.606   1.907
 4392TIP3    H113121   1.551   5.691   1.911
 4392TIP3    H213122   1.546   5.550   1.967
 4393TIP3   OH213123   1.033   5.394   3.372
 4393TIP3    H113124   1.039   5.377   3.468
 4393TIP3    H213125   0.959   5.336   3.347
 4394TIP3   OH213126   1.756   5.516   3.392
 4394TIP3    H113127   1.693   5.454   3.351
 4394TIP3    H213128   1.841   5.478   3.363
 4395TIP3   OH213129   2.011   6.042   2.974
 4395TIP3    H113130   1.916   6.035   2.990
 4395TIP3    H213131   2.040   6.089   3.055
 4396TIP3   OH213132   2.420   5.109   1.886
 4396TIP3    H113133   2.358   5.066   1.823
 4396TIP3    H213134   2.418   5.199   1.846
 4397TIP3   OH213135   2.642   5.967   2.965
 4397TIP3    H113136   2.545   5.959   2.957
 4397TIP3    H213137   2.670   5.937   2.876
 4398TIP3   OH213138   2.132   5.934   1.798
 4398TIP3    H113139   2.100   5.867   1.860
 4398TIP3    H213140   2.140   5.884   1.714
 4399TIP3   OH213141   2.119   5.556   2.625
 4399TIP3    H113142   2.026   5.531   2.640
 4399TIP3    H213143   2.153   5.475   2.583
 4400TIP3   OH213144   1.240   5.780   2.373
 4400TIP3    H113145   1.256   5.857   2.317
 4400TIP3    H213146   1.165   5.810   2.426
 4401TIP3   OH213147   0.806   5.078   2.087
 4401TIP3    H113148   0.834   5.170   2.093
 4401TIP3    H213149   0.730   5.078   2.151
 4402TIP3   OH213150   1.380   5.545   2.323
 4402TIP3    H113151   1.338   5.632   2.342
 4402TIP3    H213152   1.351   5.493   2.400
 4403TIP3   OH213153   1.520   6.126   2.852
 4403TIP3    H113154   1.564   6.198   2.803
 4403TIP3    H213155   1.594   6.088   2.901
 4404TIP3   OH213156   1.164   6.026   2.233
 4404TIP3    H113157   1.079   6.032   2.282
 4404TIP3    H213158   1.196   6.119   2.239
 4405TIP3   OH213159   1.904   5.762   2.812
 4405TIP3    H113160   1.892   5.760   2.910
 4405TIP3    H213161   1.982   5.706   2.802
 4406TIP3   OH213162   1.883   5.659   1.697
 4406TIP3    H113163   1.938   5.633   1.775
 4406TIP3    H213164   1.797   5.625   1.723
 4407TIP3   OH213165   2.153   6.291   2.865
 4407TIP3    H113166   2.075   6.232   2.862
 4407TIP3    H213167   2.134   6.353   2.791
 4408TIP3   OH213168   2.215   6.126   1.510
 4408TIP3    H113169   2.222   6.180   1.430
 4408TIP3    H213170   2.141   6.172   1.555
 4409TIP3   OH213171   1.237   4.906   3.379
 4409TIP3    H113172   1.139   4.906   3.384
 4409TIP3    H213173   1.261   4.846   3.451
 4410TIP3   OH213174   2.043   5.589   1.912
 4410TIP3    H113175   2.032   5.522   1.982
 4410TIP3    H213176   2.140   5.584   1.899
 4411TIP3   OH213177   0.961   5.984   3.010
 4411TIP3    H113178   1.011   5.914   3.055
 4411TIP3    H213179   0.974   6.058   3.070
 4412TIP3   OH213180   1.245   5.636   1.698
 4412TIP3    H113181   1.256   5.544   1.668
 4412TIP3    H213182   1.223   5.622   1.793
 4413TIP3   OH213183   1.191   5.641   1.973
 4413TIP3    H113184   1.274   5.615   2.017
 4413TIP3    H213185   1.197   5.740   1.977
 4414TIP3   OH213186   2.078   4.968   3.065
 4414TIP3    H113187   2.159   5.006   3.103
 4414TIP3    H213188   2.066   4.887   3.119
 4415TIP3   OH213189   1.959   4.717   2.232
 4415TIP3    H113190   1.946   4.739   2.138
 4415TIP3    H213191   1.999   4.799   2.268
 4416TIP3   OH213192   1.454   5.834   1.916
 4416TIP3    H113193   1.369   5.862   1.953
 4416TIP3    H213194   1.472   5.906   1.854
 4417TIP3   OH213195   1.641   4.903   2.332
 4417TIP3    H113196   1.706   4.974   2.316
 4417TIP3    H213197   1.649   4.891   2.429
 4418TIP3   OH213198   1.917   5.216   3.135
 4418TIP3    H113199   1.941   5.267   3.216
 4418TIP3    H213200   1.969   5.135   3.147
 4419TIP3   OH213201   1.788   4.621   2.432
 4419TIP3    H113202   1.785   4.698   2.492
 4419TIP3    H213203   1.850   4.654   2.363
 4420TIP3   OH213204   1.201   5.912   1.987
 4420TIP3    H113205   1.173   5.982   1.923
 4420TIP3    H213206   1.186   5.957   2.072
 4421TIP3   OH213207   1.302   4.627   2.220
 4421TIP3    H113208   1.297   4.711   2.268
 4421TIP3    H213209   1.398   4.608   2.228
 4422TIP3   OH213210   2.553   5.118   3.119
 4422TIP3    H113211   2.455   5.118   3.126
 4422TIP3    H213212   2.563   5.068   3.037
 4423TIP3   OH213213   2.205   5.312   2.506
 4423TIP3    H113214   2.129   5.253   2.520
 4423TIP3    H213215   2.277   5.265   2.555
 4424TIP3   OH213216   0.929   5.563   2.015
 4424TIP3    H113217   1.007   5.616   1.982
 4424TIP3    H213218   0.959   5.479   1.974
 4425TIP3   OH213219   0.866   4.811   2.105
 4425TIP3    H113220   0.858   4.908   2.102
 4425TIP3    H213221   0.785   4.781   2.063
 4426TIP3   OH213222   2.177   6.270   2.457
 4426TIP3    H113223   2.132   6.317   2.384
 4426TIP3    H213224   2.271   6.292   2.435
 4427TIP3   OH213225   1.252   4.538   2.975
 4427TIP3    H113226   1.216   4.507   2.889
 4427TIP3    H213227   1.235   4.461   3.033
 4428TIP3   OH213228   0.948   6.302   3.432
 4428TIP3    H113229   1.034   6.300   3.480
 4428TIP3    H213230   0.925   6.207   3.433
 4429TIP3   OH213231   1.426   6.259   3.479
 4429TIP3    H113232   1.520   6.237   3.485
 4429TIP3    H213233   1.398   6.197   3.408
 4430TIP3   OH213234   1.410   5.835   1.607
 4430TIP3    H113235   1.355   5.763   1.646
 4430TIP3    H213236   1.485   5.783   1.573
 4431TIP3   OH213237   2.067   6.168   3.213
 4431TIP3    H113238   2.058   6.098   3.282
 4431TIP3    H213239   2.144   6.219   3.244
 4432TIP3   OH213240   1.845   5.875   1.522
 4432TIP3    H113241   1.882   5.807   1.581
 4432TIP3    H213242   1.902   5.868   1.443
 4433TIP3   OH213243   1.082   5.705   3.640
 4433TIP3    H113244   1.095   5.608   3.644
 4433TIP3    H213245   0.997   5.711   3.591
 4434TIP3   OH213246   1.049   5.360   1.849
 4434TIP3    H113247   1.113   5.321   1.910
 4434TIP3    H213248   1.106   5.365   1.768
 4435TIP3   OH213249   1.684   5.791   3.409
 4435TIP3    H113250   1.642   5.809   3.322
 4435TIP3    H213251   1.714   5.699   3.399
 4436TIP3   OH213252   1.569   5.553   1.638
 4436TIP3    H113253   1.572   5.564   1.735
 4436TIP3    H213254   1.572   5.455   1.631
 4437TIP3   OH213255   2.176   5.802   3.016
 4437TIP3    H113256   2.252   5.845   2.973
 4437TIP3    H213257   2.106   5.868   2.999
 4438TIP3   OH213258   1.200   5.443   3.620
 4438TIP3    H113259   1.274   5.387   3.594
 4438TIP3    H213260   1.229   5.474   3.709
 4439TIP3   OH213261   1.254   5.247   2.058
 4439TIP3    H113262   1.267   5.186   2.131
 4439TIP3    H213263   1.292   5.191   1.986
 4440TIP3   OH213264   1.534   5.326   3.283
 4440TIP3    H113265   1.453   5.382   3.280
 4440TIP3    H213266   1.583   5.358   3.204
 4441TIP3   OH213267   1.364   5.063   1.887
 4441TIP3    H113268   1.342   5.063   1.792
 4441TIP3    H213269   1.462   5.059   1.882
 4442TIP3   OH213270   2.050   5.725   3.412
 4442TIP3    H113271   2.128   5.693   3.365
 4442TIP3    H213272   2.042   5.661   3.484
 4443TIP3   OH213273   2.181   5.382   1.558
 4443TIP3    H113274   2.163   5.337   1.473
 4443TIP3    H213275   2.147   5.472   1.536
 4444TIP3   OH213276   1.656   5.113   3.403
 4444TIP3    H113277   1.655   5.034   3.345
 4444TIP3    H213278   1.611   5.180   3.347
 4445TIP3   OH213279   1.657   4.900   3.212
 4445TIP3    H113280   1.685   4.938   3.126
 4445TIP3    H213281   1.563   4.878   3.193
 4446TIP3   OH213282   1.681   5.431   3.086
 4446TIP3    H113283   1.767   5.442   3.043
 4446TIP3    H213284   1.625   5.497   3.039
 4447TIP3   OH213285   2.263   5.398   3.464
 4447TIP3    H113286   2.309   5.314   3.479
 4447TIP3    H213287   2.334   5.453   3.428
 4448TIP3   OH213288   2.306   5.654   3.202
 4448TIP3    H113289   2.249   5.709   3.143
 4448TIP3    H213290   2.394   5.674   3.163
 4449TIP3   OH213291   1.534   5.218   3.639
 4449TIP3    H113292   1.467   5.149   3.653
 4449TIP3    H213293   1.567   5.194   3.550
 4450TIP3   OH213294   1.789   4.661   3.282
 4450TIP3    H113295   1.738   4.741   3.259
 4450TIP3    H213296   1.721   4.591   3.270
 4451TIP3   OH213297   1.915   5.163   3.497
 4451TIP3    H113298   1.901   5.147   3.592
 4451TIP3    H213299   1.826   5.139   3.463
 4452TIP3   OH213300   2.153   5.115   3.352
 4452TIP3    H113301   2.079   5.115   3.415
 4452TIP3    H213302   2.228   5.084   3.407
 4453TIP3   OH213303   2.382   5.056   3.500
 4453TIP3    H113304   2.396   4.960   3.515
 4453TIP3    H213305   2.379   5.092   3.591
 4454TIP3   OH213306   1.373   4.999   3.692
 4454TIP3    H113307   1.376   4.908   3.658
 4454TIP3    H213308   1.411   4.985   3.782
 4455TIP3   OH213309   1.882   4.671   3.540
 4455TIP3    H113310   1.948   4.599   3.534
 4455TIP3    H213311   1.842   4.665   3.451
 4456TIP3   OH213312   1.951   4.886   3.697
 4456TIP3    H113313   1.929   4.814   3.634
 4456TIP3    H213314   1.871   4.943   3.690
 4457TIP3   OH213315   1.177   6.117   1.805
 4457TIP3    H113316   1.269   6.111   1.775
 4457TIP3    H213317   1.135   6.158   1.728
 4458TIP3   OH213318   0.660   5.493   2.015
 4458TIP3    H113319   0.746   5.506   1.972
 4458TIP3    H213320   0.635   5.406   1.975
 4459TIP3   OH213321   0.569   6.108   2.429
 4459TIP3    H113322   0.501   6.047   2.394
 4459TIP3    H213323   0.612   6.051   2.496
 4460TIP3   OH213324   0.715   5.960   2.609
 4460TIP3    H113325   0.697   5.888   2.672
 4460TIP3    H213326   0.761   6.022   2.669
 4461TIP3   OH213327   2.427   6.373   2.414
 4461TIP3    H113328   2.453   6.387   2.507
 4461TIP3    H213329   2.509   6.395   2.367
 4462TIP3   OH213330   2.458   6.376   2.695
 4462TIP3    H113331   2.412   6.290   2.695
 4462TIP3    H213332   2.534   6.353   2.751
 4463TIP3   OH213333   2.502   6.057   3.269
 4463TIP3    H113334   2.432   6.066   3.336
 4463TIP3    H213335   2.546   6.144   3.274
 4464TIP3   OH213336   2.320   5.568   1.889
 4464TIP3    H113337   2.388   5.631   1.858
 4464TIP3    H213338   2.364   5.530   1.968
 4465TIP3   OH213339   2.447   5.437   2.093
 4465TIP3    H113340   2.382   5.394   2.153
 4465TIP3    H213341   2.515   5.471   2.156
 4466TIP3   OH213342   2.503   5.829   2.522
 4466TIP3    H113343   2.558   5.761   2.479
 4466TIP3    H213344   2.500   5.900   2.454
 4467TIP3   OH213345   2.331   6.130   2.716
 4467TIP3    H113346   2.259   6.168   2.770
 4467TIP3    H213347   2.282   6.082   2.647
 4468TIP3   OH213348   2.385   5.345   1.738
 4468TIP3    H113349   2.313   5.346   1.671
 4468TIP3    H213350   2.356   5.420   1.794
 4469TIP3   OH213351   2.254   5.018   1.691
 4469TIP3    H113352   2.211   5.049   1.611
 4469TIP3    H213353   2.234   4.922   1.686
 4470TIP3   OH213354   2.260   5.294   2.237
 4470TIP3    H113355   2.269   5.198   2.230
 4470TIP3    H213356   2.246   5.306   2.334
 4471TIP3   OH213357   0.886   5.370   2.982
 4471TIP3    H113358   0.886   5.336   2.890
 4471TIP3    H213359   0.983   5.371   3.000
 4472TIP3   OH213360   2.552   5.719   3.096
 4472TIP3    H113361   2.622   5.651   3.086
 4472TIP3    H213362   2.580   5.787   3.032
 4473TIP3   OH213363   2.734   5.519   3.105
 4473TIP3    H113364   2.659   5.469   3.145
 4473TIP3    H213365   2.807   5.456   3.122
 4474TIP3   OH213366   2.200   4.752   1.675
 4474TIP3    H113367   2.273   4.719   1.731
 4474TIP3    H213368   2.126   4.692   1.697
 4475TIP3   OH213369   2.258   5.010   2.129
 4475TIP3    H113370   2.299   4.921   2.145
 4475TIP3    H213371   2.317   5.042   2.058
 4476TIP3   OH213372   2.417   5.181   2.627
 4476TIP3    H113373   2.503   5.205   2.586
 4476TIP3    H213374   2.432   5.217   2.717
 4477TIP3   OH213375   2.490   5.327   2.857
 4477TIP3    H113376   2.413   5.361   2.907
 4477TIP3    H213377   2.523   5.408   2.813
 4478TIP3   OH213378   1.106   5.052   3.664
 4478TIP3    H113379   1.204   5.045   3.665
 4478TIP3    H213380   1.082   4.964   3.700
 4479TIP3   OH213381   2.937   4.919   3.413
 4479TIP3    H113382   3.000   4.855   3.374
 4479TIP3    H213383   2.910   4.972   3.335
 4480TIP3   OH213384   2.366   4.761   2.170
 4480TIP3    H113385   2.414   4.744   2.253
 4480TIP3    H213386   2.305   4.684   2.169
 4481TIP3   OH213387   1.087   4.765   3.066
 4481TIP3    H113388   1.113   4.679   3.029
 4481TIP3    H213389   1.138   4.826   3.011
 4482TIP3   OH213390   0.866   5.022   3.065
 4482TIP3    H113391   0.917   5.001   2.985
 4482TIP3    H213392   0.907   5.104   3.093
 4483TIP3   OH213393   2.809   5.056   3.215
 4483TIP3    H113394   2.723   5.098   3.236
 4483TIP3    H213395   2.778   4.982   3.160
 4484TIP3   OH213396   2.444   4.692   1.804
 4484TIP3    H113397   2.484   4.621   1.749
 4484TIP3    H213398   2.513   4.761   1.801
 4485TIP3   OH213399   0.842   4.483   2.541
 4485TIP3    H113400   0.827   4.509   2.634
 4485TIP3    H213401   0.845   4.568   2.494
 4486TIP3   OH213402   2.009   6.228   2.071
 4486TIP3    H113403   2.065   6.217   1.991
 4486TIP3    H213404   2.065   6.282   2.129
 4487TIP3   OH213405   1.075   4.599   3.380
 4487TIP3    H113406   1.019   4.603   3.459
 4487TIP3    H213407   1.017   4.641   3.314
 4488TIP3   OH213408   1.112   6.033   3.454
 4488TIP3    H113409   1.019   6.007   3.437
 4488TIP3    H213410   1.122   6.008   3.547
 4489TIP3   OH213411   1.294   6.065   3.002
 4489TIP3    H113412   1.244   6.140   2.964
 4489TIP3    H213413   1.379   6.080   2.957
 4490TIP3   OH213414   1.733   6.307   3.139
 4490TIP3    H113415   1.775   6.305   3.228
 4490TIP3    H213416   1.800   6.359   3.089
 4491TIP3   OH213417   1.914   6.461   3.001
 4491TIP3    H113418   1.984   6.408   2.962
 4491TIP3    H213419   1.965   6.518   3.062
 4492TIP3   OH213420   2.710   4.817   3.099
 4492TIP3    H113421   2.620   4.805   3.066
 4492TIP3    H213422   2.746   4.726   3.091
 4493TIP3   OH213423   0.967   6.322   3.026
 4493TIP3    H113424   0.876   6.353   3.006
 4493TIP3    H213425   0.979   6.361   3.113
 4494TIP3   OH213426   1.203   6.299   2.886
 4494TIP3    H113427   1.116   6.310   2.930
 4494TIP3    H213428   1.183   6.331   2.796
 4495TIP3   OH213429   1.629   6.326   2.682
 4495TIP3    H113430   1.557   6.345   2.619
 4495TIP3    H213431   1.640   6.413   2.726
 4496TIP3   OH213432   1.898   6.265   2.735
 4496TIP3    H113433   1.804   6.282   2.715
 4496TIP3    H213434   1.942   6.341   2.694
 4497TIP3   OH213435   2.105   6.457   2.649
 4497TIP3    H113436   2.091   6.540   2.599
 4497TIP3    H213437   2.133   6.395   2.578
 4498TIP3   OH213438   0.885   6.115   2.770
 4498TIP3    H113439   0.906   6.084   2.861
 4498TIP3    H213440   0.955   6.067   2.720
 4499TIP3   OH213441   1.074   5.981   2.622
 4499TIP3    H113442   1.086   5.900   2.677
 4499TIP3    H213443   1.164   6.019   2.626
 4500TIP3   OH213444   1.341   6.075   2.636
 4500TIP3    H113445   1.371   5.982   2.630
 4500TIP3    H213446   1.388   6.101   2.718
 4501TIP3   OH213447   1.911   4.732   2.717
 4501TIP3    H113448   1.870   4.662   2.771
 4501TIP3    H213449   1.987   4.687   2.676
 4502TIP3   OH213450   2.434   4.616   2.622
 4502TIP3    H113451   2.470   4.668   2.546
 4502TIP3    H213452   2.339   4.635   2.615
 4503TIP3   OH213453   2.531   4.715   2.386
 4503TIP3    H113454   2.605   4.663   2.349
 4503TIP3    H213455   2.565   4.806   2.372
 4504TIP3   OH213456   1.163   4.447   2.728
 4504TIP3    H113457   1.071   4.414   2.729
 4504TIP3    H213458   1.210   4.361   2.725
 4505TIP3   OH213459   0.931   4.302   2.358
 4505TIP3    H113460   0.977   4.366   2.301
 4505TIP3    H213461   0.905   4.359   2.434
 4506TIP3   OH213462   1.608   4.475   2.613
 4506TIP3    H113463   1.668   4.523   2.554
 4506TIP3    H213464   1.630   4.513   2.699
 4507TIP3   OH213465   2.150   4.623   2.598
 4507TIP3    H113466   2.153   4.580   2.512
 4507TIP3    H213467   2.140   4.545   2.658
 4508TIP3   OH213468   2.183   4.548   2.162
 4508TIP3    H113469   2.097   4.589   2.179
 4508TIP3    H213470   2.171   4.461   2.207
 4509TIP3   OH213471   0.685   5.849   2.163
 4509TIP3    H113472   0.590   5.842   2.141
 4509TIP3    H213473   0.689   5.948   2.160
 4510TIP3   OH213474   1.070   4.478   2.138
 4510TIP3    H113475   1.117   4.410   2.085
 4510TIP3    H213476   1.145   4.527   2.177
 4511TIP3   OH213477   1.578   4.652   2.244
 4511TIP3    H113478   1.635   4.601   2.304
 4511TIP3    H213479   1.603   4.743   2.271
 4512TIP3   OH213480   1.440   6.071   1.741
 4512TIP3    H113481   1.529   6.092   1.706
 4512TIP3    H213482   1.418   5.995   1.683
 4513TIP3   OH213483   2.162   6.203   1.845
 4513TIP3    H113484   2.160   6.105   1.834
 4513TIP3    H213485   2.118   6.230   1.762
 4514TIP3   OH213486   1.370   4.724   3.628
 4514TIP3    H113487   1.335   4.652   3.684
 4514TIP3    H213488   1.464   4.724   3.655
 4515TIP3   OH213489   1.621   4.722   3.745
 4515TIP3    H113490   1.706   4.697   3.704
 4515TIP3    H213491   1.610   4.651   3.811
 4516TIP3   OH213492   0.739   5.852   1.825
 4516TIP3    H113493   0.741   5.923   1.887
 4516TIP3    H213494   0.839   5.847   1.796
 4517TIP3   OH213495   2.447   4.786   3.532
 4517TIP3    H113496   2.465   4.754   3.623
 4517TIP3    H213497   2.537   4.780   3.492
 4518TIP3   OH213498   2.379   6.336   3.026
 4518TIP3    H113499   2.301   6.305   2.976
 4518TIP3    H213500   2.360   6.431   3.033
 4519TIP3   OH213501   3.653   5.710   1.786
 4519TIP3    H113502   3.621   5.801   1.766
 4519TIP3    H213503   3.576   5.658   1.757
 4520TIP3   OH213504   3.652   5.708   2.176
 4520TIP3    H113505   3.687   5.685   2.264
 4520TIP3    H213506   3.609   5.625   2.150
 4521TIP3   OH213507   2.945   5.601   2.539
 4521TIP3    H113508   2.975   5.532   2.601
 4521TIP3    H213509   3.024   5.657   2.534
 4522TIP3   OH213510   3.897   6.013   1.856
 4522TIP3    H113511   3.877   5.944   1.921
 4522TIP3    H213512   3.925   6.087   1.912
 4523TIP3   OH213513   2.916   6.015   2.249
 4523TIP3    H113514   2.912   5.917   2.256
 4523TIP3    H213515   3.012   6.029   2.258
 4524TIP3   OH213516   2.628   5.215   2.040
 4524TIP3    H113517   2.580   5.297   2.060
 4524TIP3    H213518   2.556   5.162   2.001
 4525TIP3   OH213519   2.684   5.501   2.222
 4525TIP3    H113520   2.733   5.424   2.257
 4525TIP3    H213521   2.747   5.538   2.159
 4526TIP3   OH213522   3.541   6.477   1.865
 4526TIP3    H113523   3.585   6.400   1.826
 4526TIP3    H213524   3.529   6.450   1.957
 4527TIP3   OH213525   3.447   5.935   2.219
 4527TIP3    H113526   3.490   5.858   2.178
 4527TIP3    H213527   3.528   5.984   2.245
 4528TIP3   OH213528   4.464   5.255   2.219
 4528TIP3    H113529   4.494   5.338   2.262
 4528TIP3    H213530   4.481   5.275   2.125
 4529TIP3   OH213531   3.863   5.435   2.249
 4529TIP3    H113532   3.904   5.349   2.271
 4529TIP3    H213533   3.829   5.417   2.159
 4530TIP3   OH213534   3.202   5.095   2.215
 4530TIP3    H113535   3.181   5.168   2.152
 4530TIP3    H213536   3.153   5.021   2.173
 4531TIP3   OH213537   3.896   5.187   1.836
 4531TIP3    H113538   3.967   5.172   1.903
 4531TIP3    H213539   3.950   5.222   1.763
 4532TIP3   OH213540   2.833   5.297   2.324
 4532TIP3    H113541   2.916   5.278   2.372
 4532TIP3    H213542   2.847   5.241   2.244
 4533TIP3   OH213543   3.272   5.494   2.120
 4533TIP3    H113544   3.366   5.470   2.132
 4533TIP3    H213545   3.234   5.410   2.087
 4534TIP3   OH213546   4.538   5.466   2.385
 4534TIP3    H113547   4.451   5.509   2.368
 4534TIP3    H213548   4.547   5.484   2.480
 4535TIP3   OH213549   3.196   5.078   2.651
 4535TIP3    H113550   3.136   5.115   2.584
 4535TIP3    H213551   3.144   5.094   2.732
 4536TIP3   OH213552   3.540   5.931   1.657
 4536TIP3    H113553   3.498   5.914   1.571
 4536TIP3    H213554   3.494   6.012   1.685
 4537TIP3   OH213555   3.303   5.855   2.443
 4537TIP3    H113556   3.240   5.922   2.480
 4537TIP3    H213557   3.345   5.905   2.371
 4538TIP3   OH213558   4.100   5.192   2.015
 4538TIP3    H113559   4.081   5.148   2.099
 4538TIP3    H213560   4.151   5.271   2.044
 4539TIP3   OH213561   3.067   5.193   2.434
 4539TIP3    H113562   3.129   5.266   2.459
 4539TIP3    H213563   3.118   5.153   2.360
 4540TIP3   OH213564   3.128   6.045   2.532
 4540TIP3    H113565   3.138   6.140   2.503
 4540TIP3    H213566   3.047   6.052   2.586
 4541TIP3   OH213567   2.521   5.739   1.778
 4541TIP3    H113568   2.482   5.766   1.693
 4541TIP3    H213569   2.556   5.822   1.813
 4542TIP3   OH213570   3.964   6.257   2.019
 4542TIP3    H113571   3.876   6.246   2.061
 4542TIP3    H213572   3.952   6.343   1.974
 4543TIP3   OH213573   4.256   5.155   2.384
 4543TIP3    H113574   4.168   5.181   2.352
 4543TIP3    H213575   4.316   5.187   2.313
 4544TIP3   OH213576   3.547   4.794   2.366
 4544TIP3    H113577   3.533   4.699   2.387
 4544TIP3    H213578   3.470   4.833   2.414
 4545TIP3   OH213579   3.663   6.298   1.690
 4545TIP3    H113580   3.714   6.216   1.672
 4545TIP3    H213581   3.725   6.364   1.652
 4546TIP3   OH213582   3.809   6.084   1.604
 4546TIP3    H113583   3.767   6.004   1.569
 4546TIP3    H213584   3.847   6.050   1.689
 4547TIP3   OH213585   4.190   6.166   2.363
 4547TIP3    H113586   4.175   6.088   2.306
 4547TIP3    H213587   4.170   6.240   2.301
 4548TIP3   OH213588   3.481   5.560   1.623
 4548TIP3    H113589   3.401   5.613   1.601
 4548TIP3    H213590   3.526   5.557   1.537
 4549TIP3   OH213591   3.438   5.348   1.333
 4549TIP3    H113592   3.506   5.399   1.383
 4549TIP3    H213593   3.496   5.285   1.287
 4550TIP3   OH213594   4.385   5.808   2.211
 4550TIP3    H113595   4.299   5.856   2.215
 4550TIP3    H213596   4.413   5.831   2.120
 4551TIP3   OH213597   3.831   5.644   1.590
 4551TIP3    H113598   3.775   5.667   1.668
 4551TIP3    H213599   3.914   5.619   1.635
 4552TIP3   OH213600   4.062   5.681   2.509
 4552TIP3    H113601   4.059   5.764   2.560
 4552TIP3    H213602   3.976   5.684   2.463
 4553TIP3   OH213603   3.062   5.640   2.010
 4553TIP3    H113604   3.021   5.581   1.944
 4553TIP3    H213605   3.138   5.586   2.042
 4554TIP3   OH213606   3.191   6.058   2.155
 4554TIP3    H113607   3.174   6.013   2.070
 4554TIP3    H213608   3.279   6.022   2.180
 4555TIP3   OH213609   3.194   5.613   2.364
 4555TIP3    H113610   3.229   5.588   2.276
 4555TIP3    H213611   3.239   5.698   2.383
 4556TIP3   OH213612   3.727   6.249   2.144
 4556TIP3    H113613   3.708   6.327   2.198
 4556TIP3    H213614   3.706   6.175   2.205
 4557TIP3   OH213615   3.331   6.139   2.708
 4557TIP3    H113616   3.288   6.223   2.728
 4557TIP3    H213617   3.272   6.105   2.637
 4558TIP3   OH213618   3.666   5.503   1.419
 4558TIP3    H113619   3.726   5.563   1.469
 4558TIP3    H213620   3.693   5.523   1.326
 4559TIP3   OH213621   3.091   5.721   2.794
 4559TIP3    H113622   3.096   5.811   2.831
 4559TIP3    H213623   2.996   5.702   2.807
 4560TIP3   OH213624   3.415   6.178   1.693
 4560TIP3    H113625   3.497   6.229   1.704
 4560TIP3    H213626   3.356   6.243   1.653
 4561TIP3   OH213627   3.139   6.351   2.792
 4561TIP3    H113628   3.138   6.359   2.694
 4561TIP3    H213629   3.050   6.317   2.813
 4562TIP3   OH213630   4.185   4.739   1.469
 4562TIP3    H113631   4.102   4.760   1.518
 4562TIP3    H213632   4.198   4.822   1.419
 4563TIP3   OH213633   2.929   5.483   1.813
 4563TIP3    H113634   2.858   5.524   1.759
 4563TIP3    H213635   2.894   5.394   1.828
 4564TIP3   OH213636   3.984   6.106   1.019
 4564TIP3    H113637   3.992   6.203   1.002
 4564TIP3    H213638   4.076   6.077   1.005
 4565TIP3   OH213639   2.709   5.868   2.722
 4565TIP3    H113640   2.642   5.844   2.655
 4565TIP3    H213641   2.747   5.782   2.747
 4566TIP3   OH213642   2.566   6.061   2.353
 4566TIP3    H113643   2.661   6.046   2.340
 4566TIP3    H213644   2.567   6.134   2.416
 4567TIP3   OH213645   4.426   6.515   2.411
 4567TIP3    H113646   4.426   6.418   2.426
 4567TIP3    H213647   4.343   6.539   2.457
 4568TIP3   OH213648   3.543   6.296   2.557
 4568TIP3    H113649   3.531   6.391   2.576
 4568TIP3    H213650   3.449   6.269   2.553
 4569TIP3   OH213651   3.292   6.423   1.498
 4569TIP3    H113652   3.249   6.405   1.413
 4569TIP3    H213653   3.261   6.512   1.520
 4570TIP3   OH213654   2.719   6.306   1.891
 4570TIP3    H113655   2.770   6.284   1.971
 4570TIP3    H213656   2.672   6.222   1.878
 4571TIP3   OH213657   3.494   6.328   1.136
 4571TIP3    H113658   3.552   6.258   1.100
 4571TIP3    H213659   3.530   6.337   1.227
 4572TIP3   OH213660   3.545   6.377   1.407
 4572TIP3    H113661   3.457   6.384   1.450
 4572TIP3    H213662   3.597   6.337   1.479
 4573TIP3   OH213663   4.317   5.643   2.684
 4573TIP3    H113664   4.231   5.651   2.640
 4573TIP3    H213665   4.333   5.547   2.677
 4574TIP3   OH213666   2.911   6.057   2.705
 4574TIP3    H113667   2.966   6.036   2.784
 4574TIP3    H213668   2.840   5.989   2.713
 4575TIP3   OH213669   3.311   4.873   2.497
 4575TIP3    H113670   3.223   4.843   2.468
 4575TIP3    H213671   3.284   4.953   2.547
 4576TIP3   OH213672   3.848   4.987   2.691
 4576TIP3    H113673   3.917   4.959   2.754
 4576TIP3    H213674   3.765   4.967   2.739
 4577TIP3   OH213675   4.084   5.419   2.611
 4577TIP3    H113676   4.032   5.415   2.694
 4577TIP3    H213677   4.058   5.506   2.574
 4578TIP3   OH213678   3.745   5.545   1.165
 4578TIP3    H113679   3.710   5.522   1.077
 4578TIP3    H213680   3.830   5.588   1.139
 4579TIP3   OH213681   3.457   4.920   1.467
 4579TIP3    H113682   3.422   4.917   1.559
 4579TIP3    H213683   3.417   4.839   1.432
 4580TIP3   OH213684   3.244   5.390   2.513
 4580TIP3    H113685   3.194   5.411   2.595
 4580TIP3    H213686   3.227   5.472   2.461
 4581TIP3   OH213687   3.127   5.276   2.027
 4581TIP3    H113688   3.035   5.249   2.047
 4581TIP3    H213689   3.139   5.234   1.939
 4582TIP3   OH213690   3.618   5.361   1.758
 4582TIP3    H113691   3.567   5.432   1.713
 4582TIP3    H213692   3.673   5.326   1.685
 4583TIP3   OH213693   3.794   5.636   2.839
 4583TIP3    H113694   3.770   5.564   2.902
 4583TIP3    H213695   3.887   5.650   2.863
 4584TIP3   OH213696   3.775   5.387   1.993
 4584TIP3    H113697   3.711   5.413   1.924
 4584TIP3    H213698   3.810   5.307   1.948
 4585TIP3   OH213699   3.062   5.416   2.722
 4585TIP3    H113700   3.096   5.479   2.788
 4585TIP3    H213701   3.052   5.335   2.774
 4586TIP3   OH213702   3.113   4.897   1.432
 4586TIP3    H113703   3.104   4.895   1.529
 4586TIP3    H213704   3.035   4.949   1.406
 4587TIP3   OH213705   2.656   4.939   2.302
 4587TIP3    H113706   2.731   4.971   2.357
 4587TIP3    H213707   2.700   4.906   2.222
 4588TIP3   OH213708   2.621   4.918   1.822
 4588TIP3    H113709   2.668   4.955   1.744
 4588TIP3    H213710   2.561   4.993   1.841
 4589TIP3   OH213711   3.786   5.633   2.414
 4589TIP3    H113712   3.819   5.561   2.355
 4589TIP3    H213713   3.755   5.579   2.490
 4590TIP3   OH213714   3.460   5.098   2.088
 4590TIP3    H113715   3.378   5.096   2.143
 4590TIP3    H213716   3.529   5.089   2.155
 4591TIP3   OH213717   2.890   5.154   2.095
 4591TIP3    H113718   2.795   5.161   2.067
 4591TIP3    H213719   2.913   5.062   2.074
 4592TIP3   OH213720   3.154   5.148   1.787
 4592TIP3    H113721   3.248   5.162   1.765
 4592TIP3    H213722   3.108   5.170   1.703
 4593TIP3   OH213723   3.947   5.173   2.289
 4593TIP3    H113724   3.918   5.186   2.383
 4593TIP3    H213725   3.879   5.112   2.257
 4594TIP3   OH213726   3.003   5.186   1.562
 4594TIP3    H113727   2.933   5.139   1.514
 4594TIP3    H213728   3.055   5.222   1.487
 4595TIP3   OH213729   4.121   6.862   2.512
 4595TIP3    H113730   4.119   6.884   2.417
 4595TIP3    H213731   4.202   6.908   2.541
 4596TIP3   OH213732   3.071   5.973   2.927
 4596TIP3    H113733   3.153   6.004   2.971
 4596TIP3    H213734   3.010   5.970   3.003
 4597TIP3   OH213735   3.536   5.428   2.188
 4597TIP3    H113736   3.609   5.385   2.141
 4597TIP3    H213737   3.539   5.384   2.275
 4598TIP3   OH213738   3.056   4.912   2.070
 4598TIP3    H113739   3.019   4.835   2.119
 4598TIP3    H213740   3.105   4.867   1.999
 4599TIP3   OH213741   3.514   5.329   2.470
 4599TIP3    H113742   3.423   5.362   2.489
 4599TIP3    H213743   3.570   5.388   2.524
 4600TIP3   OH213744   3.249   5.712   1.568
 4600TIP3    H113745   3.177   5.646   1.558
 4600TIP3    H213746   3.230   5.746   1.659
 4601TIP3   OH213747   4.149   5.949   2.198
 4601TIP3    H113748   4.171   6.000   2.117
 4601TIP3    H213749   4.064   5.905   2.172
 4602TIP3   OH213750   3.708   5.022   1.438
 4602TIP3    H113751   3.611   5.002   1.446
 4602TIP3    H213752   3.713   5.117   1.462
 4603TIP3   OH213753   3.656   6.040   2.568
 4603TIP3    H113754   3.670   6.014   2.660
 4603TIP3    H213755   3.611   6.127   2.578
 4604TIP3   OH213756   3.776   5.274   1.540
 4604TIP3    H113757   3.872   5.279   1.555
 4604TIP3    H213758   3.757   5.354   1.488
 4605TIP3   OH213759   2.942   5.736   2.244
 4605TIP3    H113760   2.983   5.707   2.160
 4605TIP3    H213761   2.989   5.681   2.308
 4606TIP3   OH213762   3.396   5.861   1.394
 4606TIP3    H113763   3.347   5.947   1.397
 4606TIP3    H213764   3.342   5.806   1.454
 4607TIP3   OH213765   2.826   5.657   2.861
 4607TIP3    H113766   2.846   5.643   2.956
 4607TIP3    H213767   2.758   5.588   2.846
 4608TIP3   OH213768   3.552   5.770   2.878
 4608TIP3    H113769   3.491   5.711   2.833
 4608TIP3    H213770   3.639   5.734   2.850
 4609TIP3   OH213771   3.812   6.299   2.464
 4609TIP3    H113772   3.716   6.288   2.483
 4609TIP3    H213773   3.839   6.348   2.544
 4610TIP3   OH213774   4.219   5.366   1.373
 4610TIP3    H113775   4.157   5.322   1.310
 4610TIP3    H213776   4.216   5.455   1.333
 4611TIP3   OH213777   4.440   6.226   2.451
 4611TIP3    H113778   4.342   6.218   2.444
 4611TIP3    H213779   4.465   6.193   2.361
 4612TIP3   OH213780   3.923   6.182   1.284
 4612TIP3    H113781   3.893   6.112   1.343
 4612TIP3    H213782   3.934   6.137   1.199
 4613TIP3   OH213783   3.917   5.812   2.112
 4613TIP3    H113784   3.823   5.789   2.128
 4613TIP3    H213785   3.949   5.731   2.069
 4614TIP3   OH213786   3.046   6.037   1.867
 4614TIP3    H113787   3.041   6.120   1.816
 4614TIP3    H213788   2.953   6.020   1.886
 4615TIP3   OH213789   2.609   5.343   1.577
 4615TIP3    H113790   2.655   5.426   1.600
 4615TIP3    H213791   2.533   5.346   1.639
 4616TIP3   OH213792   3.178   5.801   1.812
 4616TIP3    H113793   3.145   5.891   1.832
 4616TIP3    H213794   3.145   5.750   1.889
 4617TIP3   OH213795   2.953   6.284   1.724
 4617TIP3    H113796   2.870   6.296   1.773
 4617TIP3    H213797   2.991   6.374   1.731
 4618TIP3   OH213798   3.699   6.017   2.301
 4618TIP3    H113799   3.686   6.020   2.399
 4618TIP3    H213800   3.778   5.962   2.295
 4619TIP3   OH213801   3.679   5.913   1.183
 4619TIP3    H113802   3.733   5.887   1.261
 4619TIP3    H213803   3.591   5.882   1.211
 4620TIP3   OH213804   3.950   6.548   2.351
 4620TIP3    H113805   3.872   6.489   2.348
 4620TIP3    H213806   3.930   6.609   2.277
 4621TIP3   OH213807   4.015   6.381   1.004
 4621TIP3    H113808   4.046   6.444   0.937
 4621TIP3    H213809   3.937   6.429   1.038
 4622TIP3   OH213810   3.034   5.161   2.865
 4622TIP3    H113811   2.938   5.162   2.878
 4622TIP3    H213812   3.063   5.105   2.939
 4623TIP3   OH213813   3.839   5.843   1.396
 4623TIP3    H113814   3.828   5.778   1.468
 4623TIP3    H213815   3.937   5.840   1.385
 4624TIP3   OH213816   2.750   6.242   2.504
 4624TIP3    H113817   2.803   6.171   2.544
 4624TIP3    H213818   2.787   6.319   2.549
 4625TIP3   OH213819   3.039   5.891   1.184
 4625TIP3    H113820   3.054   5.798   1.156
 4625TIP3    H213821   3.019   5.879   1.279
 4626TIP3   OH213822   2.983   5.896   1.457
 4626TIP3    H113823   3.059   5.866   1.509
 4626TIP3    H213824   2.990   5.994   1.465
 4627TIP3   OH213825   2.720   5.586   1.658
 4627TIP3    H113826   2.653   5.630   1.715
 4627TIP3    H213827   2.735   5.655   1.591
 4628TIP3   OH213828   3.878   5.222   2.550
 4628TIP3    H113829   3.955   5.262   2.593
 4628TIP3    H213830   3.862   5.142   2.604
 4629TIP3   OH213831   3.756   4.972   1.719
 4629TIP3    H113832   3.741   4.995   1.625
 4629TIP3    H213833   3.795   5.055   1.754
 4630TIP3   OH213834   3.253   6.090   1.402
 4630TIP3    H113835   3.167   6.117   1.439
 4630TIP3    H213836   3.269   6.164   1.341
 4631TIP3   OH213837   3.438   5.158   1.819
 4631TIP3    H113838   3.502   5.231   1.803
 4631TIP3    H213839   3.445   5.148   1.916
 4632TIP3   OH213840   3.713   5.473   2.623
 4632TIP3    H113841   3.736   5.526   2.702
 4632TIP3    H213842   3.764   5.392   2.637
 4633TIP3   OH213843   3.583   4.877   1.918
 4633TIP3    H113844   3.578   4.954   1.977
 4633TIP3    H213845   3.646   4.911   1.850
 4634TIP3   OH213846   2.999   6.170   1.473
 4634TIP3    H113847   2.970   6.240   1.411
 4634TIP3    H213848   2.981   6.211   1.560
 4635TIP3   OH213849   3.097   4.883   1.707
 4635TIP3    H113850   3.095   4.972   1.748
 4635TIP3    H213851   3.193   4.864   1.716
 4636TIP3   OH213852   4.350   5.375   2.602
 4636TIP3    H113853   4.252   5.377   2.614
 4636TIP3    H213854   4.355   5.319   2.523
 4637TIP3   OH213855   4.002   5.567   1.992
 4637TIP3    H113856   3.924   5.510   2.006
 4637TIP3    H213857   4.072   5.520   2.042
 4638TIP3   OH213858   2.717   5.794   1.461
 4638TIP3    H113859   2.792   5.856   1.471
 4638TIP3    H213860   2.757   5.733   1.395
 4639TIP3   OH213861   2.658   5.072   1.598
 4639TIP3    H113862   2.658   5.170   1.595
 4639TIP3    H213863   2.577   5.051   1.549
 4640TIP3   OH213864   3.970   6.529   1.942
 4640TIP3    H113865   3.927   6.577   1.867
 4640TIP3    H213866   4.065   6.546   1.920
 4641TIP3   OH213867   3.046   4.793   2.468
 4641TIP3    H113868   3.016   4.757   2.382
 4641TIP3    H213869   3.037   4.715   2.527
 4642TIP3   OH213870   2.588   6.031   1.845
 4642TIP3    H113871   2.517   6.047   1.907
 4642TIP3    H213872   2.552   6.068   1.761
 4643TIP3   OH213873   2.746   6.560   2.922
 4643TIP3    H113874   2.833   6.559   2.967
 4643TIP3    H213875   2.728   6.465   2.917
 4644TIP3   OH213876   3.231   6.528   2.972
 4644TIP3    H113877   3.323   6.498   2.974
 4644TIP3    H213878   3.195   6.464   2.906
 4645TIP3   OH213879   3.204   6.092   1.093
 4645TIP3    H113880   3.149   6.020   1.131
 4645TIP3    H213881   3.280   6.042   1.060
 4646TIP3   OH213882   3.864   6.428   2.701
 4646TIP3    H113883   3.855   6.356   2.768
 4646TIP3    H213884   3.942   6.477   2.734
 4647TIP3   OH213885   3.639   6.132   1.007
 4647TIP3    H113886   3.681   6.067   1.067
 4647TIP3    H213887   3.696   6.129   0.928
 4648TIP3   OH213888   2.872   5.962   3.123
 4648TIP3    H113889   2.889   5.866   3.130
 4648TIP3    H213890   2.786   5.963   3.077
 4649TIP3   OH213891   2.851   5.607   1.319
 4649TIP3    H113892   2.908   5.575   1.391
 4649TIP3    H213893   2.917   5.613   1.247
 4650TIP3   OH213894   3.486   6.048   2.905
 4650TIP3    H113895   3.435   6.070   2.824
 4650TIP3    H213896   3.512   5.955   2.889
 4651TIP3   OH213897   3.365   5.810   1.125
 4651TIP3    H113898   3.367   5.821   1.222
 4651TIP3    H213899   3.367   5.712   1.118
 4652TIP3   OH213900   3.973   6.056   2.503
 4652TIP3    H113901   4.046   6.105   2.460
 4652TIP3    H213902   3.899   6.119   2.491
 4653TIP3   OH213903   2.993   5.698   3.105
 4653TIP3    H113904   3.070   5.646   3.078
 4653TIP3    H213905   3.021   5.729   3.193
 4654TIP3   OH213906   3.054   5.516   1.535
 4654TIP3    H113907   3.030   5.476   1.620
 4654TIP3    H213908   3.094   5.441   1.486
 4655TIP3   OH213909   3.326   5.577   2.764
 4655TIP3    H113910   3.249   5.638   2.766
 4655TIP3    H213911   3.378   5.612   2.688
 4656TIP3   OH213912   3.161   5.312   1.376
 4656TIP3    H113913   3.136   5.318   1.282
 4656TIP3    H213914   3.258   5.313   1.370
 4657TIP3   OH213915   3.847   5.983   2.900
 4657TIP3    H113916   3.923   5.947   2.851
 4657TIP3    H213917   3.838   5.918   2.972
 4658TIP3   OH213918   3.979   5.637   1.045
 4658TIP3    H113919   3.959   5.593   0.960
 4658TIP3    H213920   3.945   5.728   1.023
 4659TIP3   OH213921   3.451   5.370   2.890
 4659TIP3    H113922   3.452   5.290   2.833
 4659TIP3    H213923   3.406   5.436   2.833
 4660TIP3   OH213924   3.454   5.157   2.699
 4660TIP3    H113925   3.482   5.196   2.614
 4660TIP3    H213926   3.361   5.133   2.681
 4661TIP3   OH213927   3.476   5.688   2.573
 4661TIP3    H113928   3.562   5.703   2.531
 4661TIP3    H213929   3.420   5.754   2.528
 4662TIP3   OH213930   4.058   5.654   2.950
 4662TIP3    H113931   4.105   5.572   2.971
 4662TIP3    H213932   4.130   5.709   2.916
 4663TIP3   OH213933   4.103   5.910   2.689
 4663TIP3    H113934   4.044   5.964   2.631
 4663TIP3    H213935   4.190   5.931   2.650
 4664TIP3   OH213936   3.329   5.475   3.124
 4664TIP3    H113937   3.262   5.406   3.140
 4664TIP3    H213938   3.363   5.449   3.036
 4665TIP3   OH213939   3.585   4.916   2.767
 4665TIP3    H113940   3.535   4.997   2.746
 4665TIP3    H213941   3.517   4.847   2.758
 4666TIP3   OH213942   3.712   5.420   2.983
 4666TIP3    H113943   3.699   5.404   3.079
 4666TIP3    H213944   3.622   5.396   2.951
 4667TIP3   OH213945   3.949   5.369   2.838
 4667TIP3    H113946   3.875   5.370   2.901
 4667TIP3    H213947   4.024   5.339   2.894
 4668TIP3   OH213948   4.182   5.312   2.985
 4668TIP3    H113949   4.194   5.217   3.002
 4668TIP3    H213950   4.175   5.350   3.075
 4669TIP3   OH213951   3.168   5.255   3.179
 4669TIP3    H113952   3.172   5.163   3.147
 4669TIP3    H213953   3.207   5.244   3.268
 4670TIP3   OH213954   3.679   4.929   3.025
 4670TIP3    H113955   3.745   4.856   3.022
 4670TIP3    H213956   3.640   4.921   2.936
 4671TIP3   OH213957   3.748   5.144   3.182
 4671TIP3    H113958   3.726   5.071   3.119
 4671TIP3    H213959   3.667   5.200   3.177
 4672TIP3   OH213960   2.969   6.375   1.287
 4672TIP3    H113961   3.064   6.363   1.267
 4672TIP3    H213962   2.942   6.423   1.207
 4673TIP3   OH213963   2.448   5.754   1.498
 4673TIP3    H113964   2.543   5.774   1.483
 4673TIP3    H213965   2.441   5.665   1.458
 4674TIP3   OH213966   2.487   6.258   2.091
 4674TIP3    H113967   2.463   6.174   2.134
 4674TIP3    H213968   2.548   6.294   2.158
 4675TIP3   OH213969   4.227   6.614   1.903
 4675TIP3    H113970   4.253   6.644   1.992
 4675TIP3    H213971   4.293   6.657   1.846
 4676TIP3   OH213972   4.256   6.634   2.184
 4676TIP3    H113973   4.207   6.549   2.180
 4676TIP3    H213974   4.327   6.607   2.245
 4677TIP3   OH213975   4.300   6.313   2.756
 4677TIP3    H113976   4.228   6.322   2.822
 4677TIP3    H213977   4.343   6.401   2.761
 4678TIP3   OH213978   4.118   5.823   1.376
 4678TIP3    H113979   4.184   5.889   1.346
 4678TIP3    H213980   4.162   5.786   1.455
 4679TIP3   OH213981   4.246   5.691   1.581
 4679TIP3    H113982   4.177   5.649   1.637
 4679TIP3    H213983   4.307   5.729   1.647
 4680TIP3   OH213984   4.303   6.089   2.013
 4680TIP3    H113985   4.354   6.019   1.966
 4680TIP3    H213986   4.294   6.158   1.944
 4681TIP3   OH213987   4.127   6.388   2.204
 4681TIP3    H113988   4.055   6.426   2.257
 4681TIP3    H213989   4.078   6.340   2.133
 4682TIP3   OH213990   4.183   5.602   1.223
 4682TIP3    H113991   4.111   5.602   1.156
 4682TIP3    H213992   4.153   5.676   1.279
 4683TIP3   OH213993   4.053   5.273   1.178
 4683TIP3    H113994   4.008   5.307   1.100
 4683TIP3    H213995   4.030   5.178   1.172
 4684TIP3   OH213996   4.058   5.551   1.724
 4684TIP3    H113997   4.063   5.454   1.716
 4684TIP3    H213998   4.042   5.563   1.820
 4685TIP3   OH213999   2.682   5.626   2.472
 4685TIP3    H114000   2.680   5.590   2.381
 4685TIP3    H214001   2.779   5.626   2.489
 4686TIP3   OH214002   4.349   5.976   2.583
 4686TIP3    H114003   4.419   5.908   2.572
 4686TIP3    H214004   4.373   6.042   2.517
 4687TIP3   OH214005   4.533   5.776   2.588
 4687TIP3    H114006   4.457   5.728   2.629
 4687TIP3    H214007   4.605   5.713   2.607
 4688TIP3   OH214008   3.995   5.008   1.164
 4688TIP3    H114009   4.066   4.973   1.221
 4688TIP3    H214010   3.920   4.949   1.182
 4689TIP3   OH214011   4.055   5.267   1.617
 4689TIP3    H114012   4.095   5.178   1.632
 4689TIP3    H214013   4.113   5.298   1.545
 4690TIP3   OH214014   4.214   5.435   2.115
 4690TIP3    H114015   4.299   5.460   2.074
 4690TIP3    H214016   4.227   5.473   2.204
 4691TIP3   OH214017   4.285   5.584   2.343
 4691TIP3    H114018   4.209   5.616   2.395
 4691TIP3    H214019   4.317   5.667   2.301
 4692TIP3   OH214020   2.903   5.309   3.147
 4692TIP3    H114021   3.000   5.303   3.152
 4692TIP3    H214022   2.879   5.222   3.185
 4693TIP3   OH214023   4.735   5.178   2.899
 4693TIP3    H114024   4.797   5.112   2.859
 4693TIP3    H214025   4.707   5.229   2.821
 4694TIP3   OH214026   4.163   5.017   1.656
 4694TIP3    H114027   4.210   5.000   1.741
 4694TIP3    H214028   4.101   4.941   1.654
 4695TIP3   OH214029   2.862   5.002   2.477
 4695TIP3    H114030   2.923   4.926   2.486
 4695TIP3    H214031   2.926   5.075   2.469
 4696TIP3   OH214032   2.662   5.274   2.547
 4696TIP3    H114033   2.713   5.271   2.464
 4696TIP3    H214034   2.696   5.355   2.588
 4697TIP3   OH214035   4.606   5.314   2.701
 4697TIP3    H114036   4.521   5.356   2.727
 4697TIP3    H214037   4.572   5.240   2.647
 4698TIP3   OH214038   4.242   4.947   1.293
 4698TIP3    H114039   4.278   4.876   1.235
 4698TIP3    H214040   4.309   5.017   1.286
 4699TIP3   OH214041   2.650   4.777   2.051
 4699TIP3    H114042   2.557   4.772   2.080
 4699TIP3    H214043   2.644   4.837   1.973
 4700TIP3   OH214044   3.807   6.486   1.557
 4700TIP3    H114045   3.857   6.472   1.474
 4700TIP3    H214046   3.865   6.548   1.604
 4701TIP3   OH214047   2.870   4.860   2.865
 4701TIP3    H114048   2.819   4.853   2.947
 4701TIP3    H214049   2.803   4.896   2.804
 4702TIP3   OH214050   2.895   6.298   2.944
 4702TIP3    H114051   2.805   6.263   2.929
 4702TIP3    H214052   2.918   6.261   3.030
 4703TIP3   OH214053   3.537   6.574   2.633
 4703TIP3    H114054   3.582   6.564   2.719
 4703TIP3    H214055   3.604   6.621   2.580
 4704TIP3   OH214056   3.716   6.721   2.485
 4704TIP3    H114057   3.782   6.663   2.444
 4704TIP3    H214058   3.771   6.774   2.546
 4705TIP3   OH214059   4.506   5.074   2.585
 4705TIP3    H114060   4.415   5.061   2.554
 4705TIP3    H214061   4.541   4.982   2.578
 4706TIP3   OH214062   2.752   6.564   2.509
 4706TIP3    H114063   2.664   6.606   2.499
 4706TIP3    H214064   2.783   6.605   2.591
 4707TIP3   OH214065   2.990   6.620   2.366
 4707TIP3    H114066   2.918   6.576   2.415
 4707TIP3    H214067   2.968   6.597   2.274
 4708TIP3   OH214068   3.449   6.611   2.132
 4708TIP3    H114069   3.359   6.606   2.098
 4708TIP3    H214070   3.441   6.678   2.203
 4709TIP3   OH214071   3.697   6.524   2.221
 4709TIP3    H114072   3.603   6.538   2.197
 4709TIP3    H214073   3.739   6.599   2.177
 4710TIP3   OH214074   3.908   6.717   2.135
 4710TIP3    H114075   3.890   6.798   2.084
 4710TIP3    H214076   3.930   6.653   2.064
 4711TIP3   OH214077   2.680   6.367   2.267
 4711TIP3    H114078   2.707   6.340   2.357
 4711TIP3    H214079   2.750   6.320   2.216
 4712TIP3   OH214080   2.870   6.245   2.111
 4712TIP3    H114081   2.881   6.159   2.158
 4712TIP3    H214082   2.963   6.277   2.112
 4713TIP3   OH214083   3.136   6.342   2.137
 4713TIP3    H114084   3.171   6.251   2.131
 4713TIP3    H214085   3.156   6.360   2.231
 4714TIP3   OH214086   3.708   4.989   2.205
 4714TIP3    H114087   3.667   4.919   2.258
 4714TIP3    H214088   3.784   4.943   2.163
 4715TIP3   OH214089   4.231   4.872   2.107
 4715TIP3    H114090   4.266   4.925   2.033
 4715TIP3    H214091   4.135   4.891   2.102
 4716TIP3   OH214092   4.328   4.973   1.873
 4716TIP3    H114093   4.403   4.922   1.836
 4716TIP3    H214094   4.360   5.065   1.859
 4717TIP3   OH214095   2.958   4.699   2.220
 4717TIP3    H114096   2.866   4.665   2.224
 4717TIP3    H214097   3.007   4.613   2.216
 4718TIP3   OH214098   2.745   4.572   1.871
 4718TIP3    H114099   2.776   4.628   1.798
 4718TIP3    H214100   2.720   4.638   1.939
 4719TIP3   OH214101   3.404   4.732   2.103
 4719TIP3    H114102   3.461   4.780   2.041
 4719TIP3    H214103   3.433   4.769   2.188
 4720TIP3   OH214104   3.947   4.880   2.085
 4720TIP3    H114105   3.949   4.837   1.998
 4720TIP3    H214106   3.936   4.802   2.144
 4721TIP3   OH214107   3.980   4.805   1.649
 4721TIP3    H114108   3.894   4.847   1.666
 4721TIP3    H214109   3.966   4.718   1.694
 4722TIP3   OH214110   2.463   6.153   1.636
 4722TIP3    H114111   2.378   6.113   1.611
 4722TIP3    H214112   2.448   6.244   1.605
 4723TIP3   OH214113   2.866   4.730   1.630
 4723TIP3    H114114   2.913   4.665   1.574
 4723TIP3    H214115   2.940   4.782   1.666
 4724TIP3   OH214116   3.374   4.908   1.731
 4724TIP3    H114117   3.433   4.859   1.791
 4724TIP3    H214118   3.396   5.000   1.757
 4725TIP3   OH214119   3.235   6.327   1.232
 4725TIP3    H114120   3.323   6.349   1.195
 4725TIP3    H214121   3.213   6.252   1.171
 4726TIP3   OH214122   3.955   6.450   1.327
 4726TIP3    H114123   3.949   6.352   1.315
 4726TIP3    H214124   3.910   6.480   1.245
 4727TIP3   OH214125   3.167   4.981   3.113
 4727TIP3    H114126   3.131   4.910   3.169
 4727TIP3    H214127   3.261   4.980   3.141
 4728TIP3   OH214128   3.417   4.978   3.231
 4728TIP3    H114129   3.503   4.951   3.194
 4728TIP3    H214130   3.404   4.908   3.300
 4729TIP3   OH214131   2.544   6.166   1.290
 4729TIP3    H114132   2.555   6.170   1.385
 4729TIP3    H214133   2.628   6.121   1.263
 4730TIP3   OH214134   4.243   5.042   3.019
 4730TIP3    H114135   4.259   5.011   3.111
 4730TIP3    H214136   4.333   5.035   2.980
 4731TIP3   OH214137   4.179   6.592   2.510
 4731TIP3    H114138   4.100   6.560   2.461
 4731TIP3    H214139   4.157   6.687   2.519
 4732TIP3   OH214140   5.445   5.966   1.271
 4732TIP3    H114141   5.412   6.055   1.247
 4732TIP3    H214142   5.365   5.914   1.255
 4733TIP3   OH214143   5.446   5.968   1.665
 4733TIP3    H114144   5.482   5.940   1.752
 4733TIP3    H214145   5.407   5.885   1.634
 4734TIP3   OH214146   4.745   5.856   2.021
 4734TIP3    H114147   4.771   5.785   2.084
 4734TIP3    H214148   4.819   5.917   2.033
 4735TIP3   OH214149   5.677   6.267   1.352
 4735TIP3    H114150   5.670   6.183   1.399
 4735TIP3    H214151   5.759   6.304   1.387
 4736TIP3   OH214152   4.718   6.272   1.745
 4736TIP3    H114153   4.708   6.174   1.746
 4736TIP3    H214154   4.815   6.280   1.745
 4737TIP3   OH214155   4.427   5.476   1.527
 4737TIP3    H114156   4.374   5.555   1.548
 4737TIP3    H214157   4.358   5.419   1.489
 4738TIP3   OH214158   4.481   5.761   1.712
 4738TIP3    H114159   4.530   5.682   1.744
 4738TIP3    H214160   4.538   5.793   1.641
 4739TIP3   OH214161   5.342   6.735   1.356
 4739TIP3    H114162   5.382   6.662   1.304
 4739TIP3    H214163   5.306   6.690   1.433
 4740TIP3   OH214164   5.245   6.192   1.704
 4740TIP3    H114165   5.278   6.110   1.663
 4740TIP3    H214166   5.331   6.230   1.731
 4741TIP3   OH214167   6.258   5.511   1.704
 4741TIP3    H114168   6.290   5.593   1.747
 4741TIP3    H214169   6.285   5.526   1.612
 4742TIP3   OH214170   5.656   5.695   1.736
 4742TIP3    H114171   5.700   5.611   1.760
 4742TIP3    H214172   5.625   5.674   1.646
 4743TIP3   OH214173   4.995   5.348   1.706
 4743TIP3    H114174   4.972   5.423   1.648
 4743TIP3    H214175   4.949   5.274   1.660
 4744TIP3   OH214176   5.692   5.446   1.322
 4744TIP3    H114177   5.762   5.430   1.389
 4744TIP3    H214178   5.748   5.477   1.248
 4745TIP3   OH214179   4.629   5.553   1.808
 4745TIP3    H114180   4.711   5.533   1.858
 4745TIP3    H214181   4.640   5.493   1.732
 4746TIP3   OH214182   5.072   5.753   1.603
 4746TIP3    H114183   5.165   5.728   1.619
 4746TIP3    H214184   5.033   5.667   1.577
 4747TIP3   OH214185   6.334   5.719   1.875
 4747TIP3    H114186   6.248   5.763   1.861
 4747TIP3    H214187   6.359   5.754   1.962
 4748TIP3   OH214188   4.992   5.335   2.139
 4748TIP3    H114189   4.930   5.372   2.073
 4748TIP3    H214190   4.941   5.349   2.221
 4749TIP3   OH214191   5.321   6.180   1.149
 4749TIP3    H114192   5.301   6.178   1.054
 4749TIP3    H214193   5.281   6.265   1.174
 4750TIP3   OH214194   5.099   6.113   1.928
 4750TIP3    H114195   5.036   6.177   1.968
 4750TIP3    H214196   5.136   6.164   1.853
 4751TIP3   OH214197   5.894   5.451   1.502
 4751TIP3    H114198   5.890   5.400   1.584
 4751TIP3    H214199   5.950   5.526   1.527
 4752TIP3   OH214200   4.863   5.451   1.923
 4752TIP3    H114201   4.925   5.523   1.949
 4752TIP3    H214202   4.914   5.408   1.851
 4753TIP3   OH214203   4.927   6.306   2.030
 4753TIP3    H114204   4.900   6.394   1.995
 4753TIP3    H214205   4.849   6.287   2.086
 4754TIP3   OH214206   4.320   5.995   1.266
 4754TIP3    H114207   4.277   6.019   1.182
 4754TIP3    H214208   4.350   6.082   1.300
 4755TIP3   OH214209   5.751   6.541   1.544
 4755TIP3    H114210   5.696   6.477   1.497
 4755TIP3    H214211   5.785   6.599   1.472
 4756TIP3   OH214212   6.052   5.410   1.869
 4756TIP3    H114213   5.966   5.439   1.837
 4756TIP3    H214214   6.114   5.443   1.801
 4757TIP3   OH214215   5.341   5.049   1.851
 4757TIP3    H114216   5.330   4.955   1.875
 4757TIP3    H214217   5.266   5.089   1.900
 4758TIP3   OH214218   5.463   6.556   1.185
 4758TIP3    H114219   5.507   6.472   1.160
 4758TIP3    H214220   5.528   6.620   1.146
 4759TIP3   OH214221   5.593   6.336   1.090
 4759TIP3    H114222   5.587   6.259   1.032
 4759TIP3    H214223   5.624   6.297   1.174
 4760TIP3   OH214224   5.970   6.441   1.826
 4760TIP3    H114225   5.956   6.349   1.794
 4760TIP3    H214226   5.996   6.484   1.744
 4761TIP3   OH214227   5.264   5.797   1.102
 4761TIP3    H114228   5.198   5.868   1.084
 4761TIP3    H214229   5.324   5.806   1.025
 4762TIP3   OH214230   5.246   5.593   0.842
 4762TIP3    H114231   5.316   5.656   0.869
 4762TIP3    H214232   5.299   5.536   0.781
 4763TIP3   OH214233   6.180   6.061   1.697
 4763TIP3    H114234   6.098   6.114   1.703
 4763TIP3    H214235   6.210   6.083   1.607
 4764TIP3   OH214236   5.626   5.898   1.077
 4764TIP3    H114237   5.572   5.921   1.156
 4764TIP3    H214238   5.710   5.871   1.120
 4765TIP3   OH214239   5.859   5.935   1.997
 4765TIP3    H114240   5.858   6.016   2.051
 4765TIP3    H214241   5.773   5.941   1.953
 4766TIP3   OH214242   4.859   5.893   1.496
 4766TIP3    H114243   4.819   5.833   1.429
 4766TIP3    H214244   4.936   5.842   1.528
 4767TIP3   OH214245   4.990   6.313   1.641
 4767TIP3    H114246   4.964   6.275   1.555
 4767TIP3    H214247   5.077   6.271   1.656
 4768TIP3   OH214248   4.999   5.866   1.851
 4768TIP3    H114249   5.030   5.845   1.760
 4768TIP3    H214250   5.038   5.954   1.868
 4769TIP3   OH214251   5.510   6.509   1.692
 4769TIP3    H114252   5.413   6.526   1.698
 4769TIP3    H214253   5.512   6.415   1.724
 4770TIP3   OH214254   5.129   6.421   2.178
 4770TIP3    H114255   5.068   6.482   2.224
 4770TIP3    H214256   5.064   6.369   2.126
 4771TIP3   OH214257   5.457   5.765   0.903
 4771TIP3    H114258   5.523   5.821   0.951
 4771TIP3    H214259   5.480   5.785   0.809
 4772TIP3   OH214260   4.885   5.982   2.274
 4772TIP3    H114261   4.890   6.068   2.320
 4772TIP3    H214262   4.792   5.958   2.294
 4773TIP3   OH214263   5.211   6.435   1.188
 4773TIP3    H114264   5.291   6.491   1.189
 4773TIP3    H214265   5.149   6.487   1.135
 4774TIP3   OH214266   4.925   6.589   2.264
 4774TIP3    H114267   4.888   6.591   2.174
 4774TIP3    H214268   4.846   6.569   2.318
 4775TIP3   OH214269   5.983   4.998   0.956
 4775TIP3    H114270   5.901   5.022   1.003
 4775TIP3    H214271   5.997   5.078   0.900
 4776TIP3   OH214272   4.727   5.732   1.299
 4776TIP3    H114273   4.668   5.779   1.238
 4776TIP3    H214274   4.669   5.662   1.330
 4777TIP3   OH214275   4.505   6.124   2.208
 4777TIP3    H114276   4.435   6.104   2.143
 4777TIP3    H214277   4.541   6.036   2.231
 4778TIP3   OH214278   4.358   6.319   1.836
 4778TIP3    H114279   4.454   6.314   1.834
 4778TIP3    H214280   4.343   6.395   1.894
 4779TIP3   OH214281   6.213   6.749   1.902
 4779TIP3    H114282   6.227   6.652   1.901
 4779TIP3    H214283   6.184   6.762   1.992
 4780TIP3   OH214284   5.301   6.558   2.019
 4780TIP3    H114285   5.312   6.645   2.063
 4780TIP3    H214286   5.240   6.512   2.081
 4781TIP3   OH214287   5.086   6.679   0.990
 4781TIP3    H114288   5.043   6.660   0.905
 4781TIP3    H214289   5.054   6.769   1.011
 4782TIP3   OH214290   4.528   6.530   1.369
 4782TIP3    H114291   4.573   6.521   1.456
 4782TIP3    H214292   4.475   6.449   1.367
 4783TIP3   OH214293   5.307   6.543   0.668
 4783TIP3    H114294   5.396   6.507   0.657
 4783TIP3    H214295   5.314   6.576   0.760
 4784TIP3   OH214296   5.341   6.630   0.921
 4784TIP3    H114297   5.251   6.644   0.958
 4784TIP3    H214298   5.390   6.598   0.998
 4785TIP3   OH214299   6.108   5.894   2.173
 4785TIP3    H114300   6.025   5.898   2.124
 4785TIP3    H214301   6.128   5.798   2.169
 4786TIP3   OH214302   4.709   6.307   2.194
 4786TIP3    H114303   4.757   6.290   2.277
 4786TIP3    H214304   4.635   6.243   2.201
 4787TIP3   OH214305   5.107   5.131   1.983
 4787TIP3    H114306   5.019   5.099   1.955
 4787TIP3    H214307   5.079   5.209   2.035
 4788TIP3   OH214308   5.644   5.244   2.178
 4788TIP3    H114309   5.714   5.216   2.240
 4788TIP3    H214310   5.562   5.224   2.227
 4789TIP3   OH214311   5.876   5.671   2.093
 4789TIP3    H114312   5.828   5.668   2.180
 4789TIP3    H214313   5.854   5.760   2.060
 4790TIP3   OH214314   5.523   5.803   0.640
 4790TIP3    H114315   5.521   5.762   0.553
 4790TIP3    H214316   5.611   5.846   0.634
 4791TIP3   OH214317   5.249   5.183   0.960
 4791TIP3    H114318   5.215   5.170   1.050
 4791TIP3    H214319   5.212   5.104   0.917
 4792TIP3   OH214320   5.041   5.646   2.003
 4792TIP3    H114321   4.990   5.666   2.084
 4792TIP3    H214322   5.024   5.728   1.950
 4793TIP3   OH214323   4.925   5.531   1.518
 4793TIP3    H114324   4.831   5.507   1.535
 4793TIP3    H214325   4.945   5.477   1.441
 4794TIP3   OH214326   5.413   5.610   1.242
 4794TIP3    H114327   5.368   5.683   1.194
 4794TIP3    H214328   5.475   5.577   1.174
 4795TIP3   OH214329   5.589   5.894   2.327
 4795TIP3    H114330   5.566   5.821   2.389
 4795TIP3    H214331   5.683   5.907   2.350
 4796TIP3   OH214332   5.571   5.643   1.478
 4796TIP3    H114333   5.508   5.666   1.408
 4796TIP3    H214334   5.610   5.564   1.436
 4797TIP3   OH214335   4.859   5.672   2.209
 4797TIP3    H114336   4.885   5.733   2.279
 4797TIP3    H214337   4.846   5.589   2.259
 4798TIP3   OH214338   4.914   5.165   0.918
 4798TIP3    H114339   4.894   5.147   1.011
 4798TIP3    H214340   4.832   5.211   0.889
 4799TIP3   OH214341   4.451   5.199   1.787
 4799TIP3    H114342   4.528   5.225   1.841
 4799TIP3    H214343   4.490   5.157   1.708
 4800TIP3   OH214344   4.420   5.177   1.313
 4800TIP3    H114345   4.460   5.215   1.232
 4800TIP3    H214346   4.355   5.248   1.333
 4801TIP3   OH214347   5.579   5.893   1.901
 4801TIP3    H114348   5.614   5.821   1.842
 4801TIP3    H214349   5.552   5.838   1.978
 4802TIP3   OH214350   5.248   5.364   1.574
 4802TIP3    H114351   5.174   5.354   1.637
 4802TIP3    H214352   5.325   5.343   1.630
 4803TIP3   OH214353   4.686   5.409   1.573
 4803TIP3    H114354   4.591   5.424   1.551
 4803TIP3    H214355   4.696   5.313   1.562
 4804TIP3   OH214356   5.744   5.435   1.780
 4804TIP3    H114357   5.711   5.445   1.872
 4804TIP3    H214358   5.682   5.370   1.744
 4805TIP3   OH214359   4.872   6.230   2.416
 4805TIP3    H114360   4.951   6.258   2.467
 4805TIP3    H214361   4.807   6.225   2.488
 4806TIP3   OH214362   5.333   5.687   1.675
 4806TIP3    H114363   5.405   5.642   1.629
 4806TIP3    H214364   5.333   5.641   1.762
 4807TIP3   OH214365   4.864   5.160   1.547
 4807TIP3    H114366   4.814   5.095   1.603
 4807TIP3    H214367   4.929   5.100   1.508
 4808TIP3   OH214368   5.310   5.589   1.952
 4808TIP3    H114369   5.220   5.618   1.976
 4808TIP3    H214370   5.367   5.643   2.010
 4809TIP3   OH214371   5.049   5.967   1.062
 4809TIP3    H114372   4.956   5.952   1.039
 4809TIP3    H214373   5.039   6.006   1.153
 4810TIP3   OH214374   5.946   6.208   1.686
 4810TIP3    H114375   5.974   6.252   1.604
 4810TIP3    H214376   5.864   6.160   1.658
 4811TIP3   OH214377   5.505   5.274   0.934
 4811TIP3    H114378   5.408   5.258   0.935
 4811TIP3    H214379   5.513   5.371   0.944
 4812TIP3   OH214380   5.480   6.313   2.051
 4812TIP3    H114381   5.473   6.266   2.135
 4812TIP3    H214382   5.416   6.385   2.060
 4813TIP3   OH214383   5.574   5.533   1.028
 4813TIP3    H114384   5.671   5.532   1.041
 4813TIP3    H214385   5.561   5.609   0.968
 4814TIP3   OH214386   4.744   5.997   1.733
 4814TIP3    H114387   4.781   5.961   1.650
 4814TIP3    H214388   4.778   5.934   1.799
 4815TIP3   OH214389   5.198   6.120   0.881
 4815TIP3    H114390   5.149   6.206   0.886
 4815TIP3    H214391   5.143   6.065   0.941
 4816TIP3   OH214392   4.624   5.909   2.345
 4816TIP3    H114393   4.638   5.895   2.441
 4816TIP3    H214394   4.553   5.845   2.328
 4817TIP3   OH214395   5.349   6.031   2.363
 4817TIP3    H114396   5.287   5.967   2.325
 4817TIP3    H214397   5.435   5.991   2.337
 4818TIP3   OH214398   6.007   5.619   0.864
 4818TIP3    H114399   5.948   5.578   0.797
 4818TIP3    H214400   6.007   5.710   0.825
 4819TIP3   OH214401   6.225   6.474   1.939
 4819TIP3    H114402   6.127   6.472   1.932
 4819TIP3    H214403   6.250   6.443   1.849
 4820TIP3   OH214404   5.736   6.434   0.754
 4820TIP3    H114405   5.705   6.377   0.825
 4820TIP3    H214406   5.691   6.399   0.676
 4821TIP3   OH214407   5.712   6.071   1.595
 4821TIP3    H114408   5.620   6.043   1.612
 4821TIP3    H214409   5.748   5.988   1.558
 4822TIP3   OH214410   4.842   6.298   1.358
 4822TIP3    H114411   4.837   6.379   1.303
 4822TIP3    H214412   4.748   6.280   1.373
 4823TIP3   OH214413   4.409   5.601   1.066
 4823TIP3    H114414   4.448   5.688   1.086
 4823TIP3    H214415   4.329   5.603   1.124
 4824TIP3   OH214416   4.972   6.062   1.301
 4824TIP3    H114417   4.938   6.152   1.320
 4824TIP3    H214418   4.936   6.011   1.376
 4825TIP3   OH214419   5.111   6.637   1.826
 4825TIP3    H114420   5.155   6.711   1.780
 4825TIP3    H214421   5.182   6.604   1.884
 4826TIP3   OH214422   4.761   6.533   1.211
 4826TIP3    H114423   4.674   6.544   1.256
 4826TIP3    H214424   4.794   6.625   1.212
 4827TIP3   OH214425   5.501   6.257   1.787
 4827TIP3    H114426   5.493   6.264   1.885
 4827TIP3    H214427   5.570   6.191   1.777
 4828TIP3   OH214428   5.457   6.148   0.678
 4828TIP3    H114429   5.518   6.133   0.752
 4828TIP3    H214430   5.371   6.140   0.719
 4829TIP3   OH214431   4.830   5.417   2.351
 4829TIP3    H114432   4.733   5.420   2.365
 4829TIP3    H214433   4.858   5.362   2.426
 4830TIP3   OH214434   5.634   6.111   0.900
 4830TIP3    H114435   5.626   6.036   0.962
 4830TIP3    H214436   5.729   6.104   0.876
 4831TIP3   OH214437   4.550   6.499   1.984
 4831TIP3    H114438   4.602   6.426   2.023
 4831TIP3    H214439   4.570   6.571   2.045
 4832TIP3   OH214440   4.826   6.155   0.673
 4832TIP3    H114441   4.858   6.070   0.637
 4832TIP3    H214442   4.817   6.134   0.768
 4833TIP3   OH214443   4.797   6.153   0.952
 4833TIP3    H114444   4.862   6.156   1.022
 4833TIP3    H214445   4.782   6.249   0.938
 4834TIP3   OH214446   4.524   5.849   1.146
 4834TIP3    H114447   4.456   5.890   1.204
 4834TIP3    H214448   4.529   5.917   1.076
 4835TIP3   OH214449   5.668   5.481   2.039
 4835TIP3    H114450   5.750   5.520   2.075
 4835TIP3    H214451   5.658   5.400   2.094
 4836TIP3   OH214452   5.543   5.235   1.209
 4836TIP3    H114453   5.536   5.252   1.112
 4836TIP3    H214454   5.589   5.316   1.240
 4837TIP3   OH214455   5.053   6.347   0.899
 4837TIP3    H114456   4.965   6.378   0.927
 4837TIP3    H214457   5.064   6.396   0.816
 4838TIP3   OH214458   5.210   5.434   1.306
 4838TIP3    H114459   5.289   5.491   1.291
 4838TIP3    H214460   5.223   5.411   1.401
 4839TIP3   OH214461   5.510   5.730   2.108
 4839TIP3    H114462   5.533   5.779   2.190
 4839TIP3    H214463   5.561   5.648   2.119
 4840TIP3   OH214464   5.378   5.135   1.403
 4840TIP3    H114465   5.397   5.199   1.474
 4840TIP3    H214466   5.439   5.168   1.333
 4841TIP3   OH214467   4.794   6.424   0.956
 4841TIP3    H114468   4.763   6.493   0.893
 4841TIP3    H214469   4.777   6.467   1.042
 4842TIP3   OH214470   4.890   5.125   1.188
 4842TIP3    H114471   4.876   5.185   1.262
 4842TIP3    H214472   4.987   5.109   1.195
 4843TIP3   OH214473   6.144   5.630   2.095
 4843TIP3    H114474   6.046   5.626   2.099
 4843TIP3    H214475   6.159   5.584   2.011
 4844TIP3   OH214476   5.797   5.829   1.483
 4844TIP3    H114477   5.723   5.766   1.494
 4844TIP3    H214478   5.870   5.781   1.529
 4845TIP3   OH214479   4.510   6.050   0.951
 4845TIP3    H114480   4.570   6.126   0.954
 4845TIP3    H214481   4.554   5.995   0.882
 4846TIP3   OH214482   4.451   5.329   1.090
 4846TIP3    H114483   4.449   5.426   1.083
 4846TIP3    H214484   4.380   5.303   1.030
 4847TIP3   OH214485   5.768   6.790   1.435
 4847TIP3    H114486   5.724   6.837   1.360
 4847TIP3    H214487   5.862   6.817   1.417
 4848TIP3   OH214488   4.844   5.048   1.954
 4848TIP3    H114489   4.812   5.012   1.869
 4848TIP3    H214490   4.834   4.971   2.014
 4849TIP3   OH214491   4.379   6.267   1.332
 4849TIP3    H114492   4.316   6.295   1.400
 4849TIP3    H214493   4.342   6.311   1.252
 4850TIP3   OH214494   4.541   6.816   2.407
 4850TIP3    H114495   4.627   6.815   2.455
 4850TIP3    H214496   4.519   6.721   2.408
 4851TIP3   OH214497   5.019   6.774   2.449
 4851TIP3    H114498   5.110   6.747   2.462
 4851TIP3    H214499   4.990   6.711   2.379
 4852TIP3   OH214500   5.014   6.341   0.599
 4852TIP3    H114501   4.935   6.285   0.616
 4852TIP3    H214502   5.079   6.270   0.582
 4853TIP3   OH214503   5.676   6.705   2.164
 4853TIP3    H114504   5.632   6.628   2.206
 4853TIP3    H214505   5.760   6.700   2.211
 4854TIP3   OH214506   4.670   6.219   2.607
 4854TIP3    H114507   4.685   6.123   2.618
 4854TIP3    H214508   4.582   6.221   2.563
 4855TIP3   OH214509   4.639   5.874   0.792
 4855TIP3    H114510   4.688   5.806   0.839
 4855TIP3    H214511   4.701   5.894   0.719
 4856TIP3   OH214512   5.279   6.306   2.382
 4856TIP3    H114513   5.231   6.321   2.299
 4856TIP3    H214514   5.308   6.212   2.374
 4857TIP3   OH214515   5.132   6.074   0.611
 4857TIP3    H114516   5.156   6.082   0.705
 4857TIP3    H214517   5.141   5.978   0.598
 4858TIP3   OH214518   5.772   6.296   1.990
 4858TIP3    H114519   5.822   6.365   1.944
 4858TIP3    H214520   5.683   6.332   1.999
 4859TIP3   OH214521   4.794   5.957   2.590
 4859TIP3    H114522   4.864   5.894   2.572
 4859TIP3    H214523   4.819   5.988   2.680
 4860TIP3   OH214524   5.124   5.838   2.254
 4860TIP3    H114525   5.044   5.895   2.253
 4860TIP3    H214526   5.175   5.873   2.178
 4861TIP3   OH214527   4.980   5.565   0.885
 4861TIP3    H114528   4.917   5.559   0.809
 4861TIP3    H214529   5.063   5.577   0.832
 4862TIP3   OH214530   5.646   6.246   2.382
 4862TIP3    H114531   5.730   6.212   2.348
 4862TIP3    H214532   5.629   6.184   2.455
 4863TIP3   OH214533   5.776   5.858   0.536
 4863TIP3    H114534   5.800   5.796   0.465
 4863TIP3    H214535   5.774   5.944   0.488
 4864TIP3   OH214536   5.248   5.626   2.377
 4864TIP3    H114537   5.248   5.546   2.320
 4864TIP3    H214538   5.202   5.692   2.320
 4865TIP3   OH214539   5.250   5.414   2.185
 4865TIP3    H114540   5.278   5.450   2.099
 4865TIP3    H214541   5.157   5.389   2.168
 4866TIP3   OH214542   5.273   5.948   2.061
 4866TIP3    H114543   5.356   5.948   2.012
 4866TIP3    H214544   5.217   6.010   2.010
 4867TIP3   OH214545   5.856   5.911   2.437
 4867TIP3    H114546   5.899   5.826   2.457
 4867TIP3    H214547   5.930   5.962   2.402
 4868TIP3   OH214548   5.907   6.162   2.179
 4868TIP3    H114549   5.849   6.212   2.117
 4868TIP3    H214550   5.994   6.181   2.138
 4869TIP3   OH214551   5.125   5.732   2.610
 4869TIP3    H114552   5.058   5.664   2.628
 4869TIP3    H214553   5.159   5.703   2.523
 4870TIP3   OH214554   5.382   5.173   2.254
 4870TIP3    H114555   5.330   5.254   2.233
 4870TIP3    H214556   5.313   5.104   2.245
 4871TIP3   OH214557   5.507   5.678   2.471
 4871TIP3    H114558   5.495   5.661   2.566
 4871TIP3    H214559   5.417   5.653   2.440
 4872TIP3   OH214560   5.746   5.629   2.325
 4872TIP3    H114561   5.672   5.628   2.389
 4872TIP3    H214562   5.821   5.597   2.380
 4873TIP3   OH214563   5.973   5.568   2.473
 4873TIP3    H114564   5.988   5.473   2.489
 4873TIP3    H214565   5.970   5.605   2.564
 4874TIP3   OH214566   4.966   5.512   2.665
 4874TIP3    H114567   4.969   5.420   2.634
 4874TIP3    H214568   5.004   5.501   2.755
 4875TIP3   OH214569   5.476   5.185   2.512
 4875TIP3    H114570   5.542   5.113   2.508
 4875TIP3    H214571   5.436   5.178   2.423
 4876TIP3   OH214572   5.544   5.401   2.669
 4876TIP3    H114573   5.522   5.327   2.607
 4876TIP3    H214574   5.463   5.456   2.664
 4877TIP3   OH214575   4.762   6.627   0.771
 4877TIP3    H114576   4.857   6.624   0.751
 4877TIP3    H214577   4.731   6.675   0.691
 4878TIP3   OH214578   4.242   6.008   0.988
 4878TIP3    H114579   4.336   6.029   0.971
 4878TIP3    H214580   4.234   5.920   0.945
 4879TIP3   OH214581   4.159   6.621   1.404
 4879TIP3    H114582   4.094   6.560   1.363
 4879TIP3    H214583   4.204   6.561   1.467
 4880TIP3   OH214584   4.294   6.466   1.588
 4880TIP3    H114585   4.282   6.397   1.655
 4880TIP3    H214586   4.345   6.531   1.641
 4881TIP3   OH214587   6.023   6.885   1.402
 4881TIP3    H114588   6.077   6.963   1.423
 4881TIP3    H214589   6.064   6.859   1.317
 4882TIP3   OH214590   6.029   6.884   1.698
 4882TIP3    H114591   6.039   6.848   1.608
 4882TIP3    H214592   6.112   6.856   1.740
 4883TIP3   OH214593   6.084   6.578   2.230
 4883TIP3    H114594   6.021   6.581   2.305
 4883TIP3    H214595   6.138   6.657   2.245
 4884TIP3   OH214596   5.909   6.080   0.869
 4884TIP3    H114597   5.979   6.142   0.842
 4884TIP3    H214598   5.953   6.037   0.947
 4885TIP3   OH214599   6.040   5.948   1.068
 4885TIP3    H114600   5.977   5.905   1.130
 4885TIP3    H214601   6.110   5.982   1.128
 4886TIP3   OH214602   6.081   6.337   1.484
 4886TIP3    H114603   6.147   6.270   1.454
 4886TIP3    H214604   6.089   6.403   1.414
 4887TIP3   OH214605   5.977   5.853   0.723
 4887TIP3    H114606   5.902   5.841   0.661
 4887TIP3    H214607   5.947   5.933   0.772
 4888TIP3   OH214608   5.848   5.542   0.658
 4888TIP3    H114609   5.829   5.561   0.565
 4888TIP3    H214610   5.815   5.449   0.664
 4889TIP3   OH214611   5.851   5.807   1.213
 4889TIP3    H114612   5.862   5.711   1.202
 4889TIP3    H214613   5.839   5.816   1.310
 4890TIP3   OH214614   4.479   5.881   1.961
 4890TIP3    H114615   4.475   5.846   1.869
 4890TIP3    H214616   4.576   5.880   1.976
 4891TIP3   OH214617   6.145   6.234   2.064
 4891TIP3    H114618   6.211   6.160   2.059
 4891TIP3    H214619   6.186   6.301   2.007
 4892TIP3   OH214620   6.321   6.033   2.082
 4892TIP3    H114621   6.249   5.979   2.121
 4892TIP3    H214622   6.397   5.972   2.098
 4893TIP3   OH214623   5.779   5.279   0.665
 4893TIP3    H114624   5.860   5.239   0.702
 4893TIP3    H214625   5.711   5.211   0.682
 4894TIP3   OH214626   5.851   5.524   1.102
 4894TIP3    H114627   5.891   5.435   1.118
 4894TIP3    H214628   5.909   5.554   1.029
 4895TIP3   OH214629   6.009   5.697   1.600
 4895TIP3    H114630   6.096   5.720   1.558
 4895TIP3    H214631   6.027   5.730   1.690
 4896TIP3   OH214632   6.083   5.839   1.831
 4896TIP3    H114633   6.006   5.873   1.882
 4896TIP3    H214634   6.117   5.920   1.787
 4897TIP3   OH214635   4.701   5.567   2.636
 4897TIP3    H114636   4.798   5.559   2.640
 4897TIP3    H214637   4.675   5.480   2.672
 4898TIP3   OH214638   6.532   5.434   2.388
 4898TIP3    H114639   6.593   5.369   2.347
 4898TIP3    H214640   6.503   5.485   2.309
 4899TIP3   OH214641   5.955   5.275   1.147
 4899TIP3    H114642   6.006   5.257   1.229
 4899TIP3    H214643   5.897   5.196   1.144
 4900TIP3   OH214644   4.660   5.257   1.956
 4900TIP3    H114645   4.721   5.181   1.970
 4900TIP3    H214646   4.723   5.331   1.956
 4901TIP3   OH214647   4.460   5.530   2.035
 4901TIP3    H114648   4.509   5.530   1.951
 4901TIP3    H214649   4.488   5.613   2.075
 4902TIP3   OH214650   6.401   5.568   2.191
 4902TIP3    H114651   6.315   5.610   2.214
 4902TIP3    H214652   6.369   5.494   2.134
 4903TIP3   OH214653   6.036   5.204   0.774
 4903TIP3    H114654   6.075   5.130   0.721
 4903TIP3    H214655   6.107   5.271   0.769
 4904TIP3   OH214656   4.447   5.038   1.543
 4904TIP3    H114657   4.354   5.028   1.568
 4904TIP3    H214658   4.440   5.095   1.463
 4905TIP3   OH214659   5.615   6.733   1.050
 4905TIP3    H114660   5.653   6.722   0.961
 4905TIP3    H214661   5.664   6.810   1.082
 4906TIP3   OH214662   4.666   5.116   2.351
 4906TIP3    H114663   4.615   5.108   2.434
 4906TIP3    H214664   4.598   5.153   2.291
 4907TIP3   OH214665   4.705   6.546   2.428
 4907TIP3    H114666   4.612   6.521   2.412
 4907TIP3    H214667   4.716   6.522   2.521
 4908TIP3   OH214668   4.885   6.577   1.977
 4908TIP3    H114669   4.835   6.652   1.939
 4908TIP3    H214670   4.969   6.591   1.929
 4909TIP3   OH214671   5.336   6.825   2.115
 4909TIP3    H114672   5.359   6.817   2.210
 4909TIP3    H214673   5.424   6.835   2.077
 4910TIP3   OH214674   6.302   5.330   2.073
 4910TIP3    H114675   6.211   5.317   2.040
 4910TIP3    H214676   6.338   5.239   2.064
 4911TIP3   OH214677   4.561   6.835   2.000
 4911TIP3    H114678   4.470   6.866   1.977
 4911TIP3    H214679   4.571   6.875   2.087
 4912TIP3   OH214680   4.796   6.812   1.859
 4912TIP3    H114681   4.709   6.824   1.904
 4912TIP3    H214682   4.776   6.843   1.769
 4913TIP3   OH214683   5.237   6.832   1.658
 4913TIP3    H114684   5.165   6.845   1.594
 4913TIP3    H214685   5.244   6.921   1.697
 4914TIP3   OH214686   5.520   6.792   1.701
 4914TIP3    H114687   5.424   6.813   1.694
 4914TIP3    H214688   5.562   6.880   1.684
 4915TIP3   OH214689   5.693   6.978   1.626
 4915TIP3    H114690   5.680   7.064   1.580
 4915TIP3    H214691   5.732   6.924   1.554
 4916TIP3   OH214692   4.471   6.627   1.745
 4916TIP3    H114693   4.498   6.597   1.835
 4916TIP3    H214694   4.542   6.583   1.693
 4917TIP3   OH214695   4.665   6.499   1.604
 4917TIP3    H114696   4.680   6.415   1.654
 4917TIP3    H214697   4.757   6.534   1.599
 4918TIP3   OH214698   4.934   6.589   1.607
 4918TIP3    H114699   4.962   6.496   1.598
 4918TIP3    H214700   4.980   6.611   1.691
 4919TIP3   OH214701   5.490   5.239   1.674
 4919TIP3    H114702   5.459   5.172   1.738
 4919TIP3    H214703   5.576   5.201   1.644
 4920TIP3   OH214704   6.026   5.132   1.598
 4920TIP3    H114705   6.063   5.181   1.521
 4920TIP3    H214706   5.931   5.149   1.589
 4921TIP3   OH214707   6.122   5.229   1.361
 4921TIP3    H114708   6.196   5.176   1.323
 4921TIP3    H214709   6.157   5.320   1.346
 4922TIP3   OH214710   4.754   4.959   1.703
 4922TIP3    H114711   4.662   4.925   1.709
 4922TIP3    H214712   4.803   4.873   1.701
 4923TIP3   OH214713   4.545   4.828   1.360
 4923TIP3    H114714   4.571   4.883   1.284
 4923TIP3    H214715   4.517   4.895   1.426
 4924TIP3   OH214716   5.194   4.997   1.589
 4924TIP3    H114717   5.255   5.038   1.527
 4924TIP3    H214718   5.230   5.024   1.675
 4925TIP3   OH214719   5.738   5.137   1.573
 4925TIP3    H114720   5.750   5.094   1.487
 4925TIP3    H214721   5.729   5.058   1.632
 4926TIP3   OH214722   5.776   5.060   1.136
 4926TIP3    H114723   5.686   5.097   1.147
 4926TIP3    H214724   5.766   4.974   1.182
 4927TIP3   OH214725   4.258   6.404   1.134
 4927TIP3    H114726   4.172   6.371   1.102
 4927TIP3    H214727   4.251   6.497   1.102
 4928TIP3   OH214728   4.658   4.979   1.117
 4928TIP3    H114729   4.701   4.913   1.058
 4928TIP3    H214730   4.736   5.028   1.150
 4929TIP3   OH214731   5.163   5.172   1.224
 4929TIP3    H114732   5.226   5.123   1.280
 4929TIP3    H214733   5.186   5.263   1.250
 4930TIP3   OH214734   5.031   6.587   0.718
 4930TIP3    H114735   5.123   6.600   0.689
 4930TIP3    H214736   5.009   6.510   0.661
 4931TIP3   OH214737   5.750   6.706   0.810
 4931TIP3    H114738   5.743   6.612   0.784
 4931TIP3    H214739   5.753   6.752   0.723
 4932TIP3   OH214740   4.963   5.239   2.600
 4932TIP3    H114741   4.926   5.168   2.655
 4932TIP3    H214742   5.057   5.237   2.629
 4933TIP3   OH214743   5.214   5.234   2.719
 4933TIP3    H114744   5.299   5.206   2.682
 4933TIP3    H214745   5.199   5.165   2.787
 4934TIP3   OH214746   4.336   6.413   0.776
 4934TIP3    H114747   4.340   6.443   0.867
 4934TIP3    H214748   4.425   6.374   0.761
 4935TIP3   OH214749   6.040   5.299   2.505
 4935TIP3    H114750   6.057   5.267   2.597
 4935TIP3    H214751   6.129   5.293   2.466
 4936TIP3   OH214752   7.227   6.208   1.149
 4936TIP3    H114753   7.272   6.201   1.236
 4936TIP3    H214754   7.185   6.120   1.143
 4937TIP3   OH214755   6.534   6.117   1.521
 4937TIP3    H114756   6.569   6.046   1.579
 4937TIP3    H214757   6.614   6.169   1.505
 4938TIP3   OH214758   6.530   6.518   1.286
 4938TIP3    H114759   6.518   6.424   1.264
 4938TIP3    H214760   6.615   6.538   1.242
 4939TIP3   OH214761   6.220   5.728   1.011
 4939TIP3    H114762   6.171   5.809   1.031
 4939TIP3    H214763   6.149   5.673   0.974
 4940TIP3   OH214764   6.274   6.017   1.198
 4940TIP3    H114765   6.325   5.938   1.229
 4940TIP3    H214766   6.342   6.067   1.150
 4941TIP3   OH214767   7.039   6.447   1.193
 4941TIP3    H114768   7.083   6.370   1.152
 4941TIP3    H214769   7.119   6.497   1.218
 4942TIP3   OH214770   8.044   5.778   1.195
 4942TIP3    H114771   8.079   5.852   1.245
 4942TIP3    H214772   8.074   5.798   1.105
 4943TIP3   OH214773   7.454   5.949   1.236
 4943TIP3    H114774   7.496   5.863   1.255
 4943TIP3    H214775   7.423   5.934   1.144
 4944TIP3   OH214776   6.796   5.607   1.189
 4944TIP3    H114777   6.774   5.679   1.126
 4944TIP3    H214778   6.747   5.533   1.147
 4945TIP3   OH214779   7.459   5.700   0.844
 4945TIP3    H114780   7.543   5.684   0.893
 4945TIP3    H214781   7.494   5.717   0.755
 4946TIP3   OH214782   6.425   5.810   1.296
 4946TIP3    H114783   6.508   5.791   1.344
 4946TIP3    H214784   6.439   5.754   1.217
 4947TIP3   OH214785   6.863   6.004   1.095
 4947TIP3    H114786   6.958   5.981   1.107
 4947TIP3    H214787   6.826   5.921   1.061
 4948TIP3   OH214788   6.788   5.591   1.624
 4948TIP3    H114789   6.727   5.629   1.557
 4948TIP3    H214790   6.736   5.608   1.706
 4949TIP3   OH214791   6.892   6.367   1.417
 4949TIP3    H114792   6.835   6.436   1.457
 4949TIP3    H214793   6.935   6.417   1.344
 4950TIP3   OH214794   7.696   5.704   0.987
 4950TIP3    H114795   7.673   5.664   1.072
 4950TIP3    H214796   7.740   5.787   1.016
 4951TIP3   OH214797   6.660   5.707   1.407
 4951TIP3    H114798   6.721   5.779   1.432
 4951TIP3    H214799   6.711   5.666   1.334
 4952TIP3   OH214800   6.724   6.560   1.528
 4952TIP3    H114801   6.694   6.631   1.468
 4952TIP3    H214802   6.643   6.551   1.582
 4953TIP3   OH214803   6.107   6.238   0.754
 4953TIP3    H114804   6.038   6.266   0.694
 4953TIP3    H214805   6.139   6.326   0.787
 4954TIP3   OH214806   7.851   5.657   1.357
 4954TIP3    H114807   7.765   5.696   1.334
 4954TIP3    H214808   7.909   5.697   1.288
 4955TIP3   OH214809   7.138   5.307   1.339
 4955TIP3    H114810   7.127   5.213   1.362
 4955TIP3    H214811   7.063   5.347   1.388
 4956TIP3   OH214812   8.013   6.295   1.217
 4956TIP3    H114813   7.920   6.325   1.223
 4956TIP3    H214814   8.036   6.337   1.133
 4957TIP3   OH214815   7.653   6.191   1.486
 4957TIP3    H114816   7.652   6.271   1.541
 4957TIP3    H214817   7.569   6.201   1.438
 4958TIP3   OH214818   6.659   6.154   0.985
 4958TIP3    H114819   6.615   6.092   0.922
 4958TIP3    H214820   6.735   6.100   1.016
 4959TIP3   OH214821   6.776   6.557   1.142
 4959TIP3    H114822   6.759   6.535   1.049
 4959TIP3    H214823   6.868   6.528   1.154
 4960TIP3   OH214824   6.779   6.129   1.337
 4960TIP3    H114825   6.818   6.103   1.251
 4960TIP3    H214826   6.827   6.212   1.358
 4961TIP3   OH214827   7.283   6.743   1.095
 4961TIP3    H114828   7.303   6.826   1.142
 4961TIP3    H214829   7.290   6.676   1.165
 4962TIP3   OH214830   6.929   6.680   1.668
 4962TIP3    H114831   6.869   6.743   1.713
 4962TIP3    H214832   6.864   6.629   1.615
 4963TIP3   OH214833   6.685   6.233   1.774
 4963TIP3    H114834   6.691   6.323   1.811
 4963TIP3    H214835   6.589   6.217   1.780
 4964TIP3   OH214836   6.721   6.849   1.747
 4964TIP3    H114837   6.691   6.850   1.654
 4964TIP3    H214838   6.638   6.834   1.796
 4965TIP3   OH214839   6.516   5.989   0.816
 4965TIP3    H114840   6.454   6.032   0.754
 4965TIP3    H214841   6.473   5.904   0.831
 4966TIP3   OH214842   6.294   6.377   1.699
 4966TIP3    H114843   6.252   6.351   1.616
 4966TIP3    H214844   6.339   6.295   1.727
 4967TIP3   OH214845   7.115   6.814   1.516
 4967TIP3    H114846   7.115   6.907   1.547
 4967TIP3    H214847   7.048   6.773   1.575
 4968TIP3   OH214848   6.322   6.790   0.862
 4968TIP3    H114849   6.393   6.803   0.926
 4968TIP3    H214850   6.251   6.755   0.922
 4969TIP3   OH214851   7.918   6.167   1.667
 4969TIP3    H114852   7.849   6.177   1.600
 4969TIP3    H214853   7.949   6.076   1.648
 4970TIP3   OH214854   6.503   6.565   1.697
 4970TIP3    H114855   6.558   6.538   1.773
 4970TIP3    H214856   6.431   6.499   1.698
 4971TIP3   OH214857   6.903   5.386   1.470
 4971TIP3    H114858   6.814   5.356   1.441
 4971TIP3    H214859   6.877   5.466   1.520
 4972TIP3   OH214860   7.441   5.499   1.665
 4972TIP3    H114861   7.511   5.472   1.728
 4972TIP3    H214862   7.359   5.481   1.715
 4973TIP3   OH214863   7.667   5.923   1.575
 4973TIP3    H114864   7.624   5.924   1.664
 4973TIP3    H214865   7.656   6.016   1.547
 4974TIP3   OH214866   6.834   5.905   1.485
 4974TIP3    H114867   6.789   5.927   1.569
 4974TIP3    H214868   6.818   5.987   1.433
 4975TIP3   OH214869   6.720   5.784   0.998
 4975TIP3    H114870   6.627   5.761   1.022
 4975TIP3    H214871   6.723   5.750   0.906
 4976TIP3   OH214872   7.385   6.150   1.813
 4976TIP3    H114873   7.366   6.077   1.877
 4976TIP3    H214874   7.479   6.166   1.833
 4977TIP3   OH214875   7.361   5.909   0.985
 4977TIP3    H114876   7.322   5.958   0.911
 4977TIP3    H214877   7.391   5.826   0.940
 4978TIP3   OH214878   6.654   5.931   1.697
 4978TIP3    H114879   6.698   5.991   1.759
 4978TIP3    H214880   6.646   5.849   1.750
 4979TIP3   OH214881   6.245   5.455   1.280
 4979TIP3    H114882   6.324   5.483   1.330
 4979TIP3    H214883   6.280   5.418   1.198
 4980TIP3   OH214884   6.216   5.434   0.806
 4980TIP3    H114885   6.261   5.467   0.726
 4980TIP3    H214886   6.152   5.506   0.821
 4981TIP3   OH214887   7.364   6.149   1.389
 4981TIP3    H114888   7.406   6.081   1.332
 4981TIP3    H214889   7.341   6.094   1.466
 4982TIP3   OH214890   7.047   5.609   1.058
 4982TIP3    H114891   6.967   5.608   1.115
 4982TIP3    H214892   7.118   5.606   1.125
 4983TIP3   OH214893   6.481   5.667   1.067
 4983TIP3    H114894   6.386   5.674   1.040
 4983TIP3    H214895   6.502   5.574   1.048
 4984TIP3   OH214896   6.749   5.673   0.741
 4984TIP3    H114897   6.845   5.674   0.760
 4984TIP3    H214898   6.744   5.723   0.658
 4985TIP3   OH214899   7.539   5.686   1.257
 4985TIP3    H114900   7.513   5.697   1.352
 4985TIP3    H214901   7.469   5.625   1.227
 4986TIP3   OH214902   6.663   6.480   1.904
 4986TIP3    H114903   6.745   6.520   1.941
 4986TIP3    H214904   6.607   6.478   1.984
 4987TIP3   OH214905   7.128   5.938   1.163
 4987TIP3    H114906   7.210   5.905   1.123
 4987TIP3    H214907   7.130   5.897   1.252
 4988TIP3   OH214908   6.653   5.423   1.042
 4988TIP3    H114909   6.612   5.349   1.091
 4988TIP3    H214910   6.705   5.375   0.975
 4989TIP3   OH214911   7.107   5.844   1.444
 4989TIP3    H114912   7.017   5.879   1.464
 4989TIP3    H214913   7.165   5.901   1.498
 4990TIP3   OH214914   7.754   6.366   1.154
 4990TIP3    H114915   7.741   6.462   1.140
 4990TIP3    H214916   7.661   6.336   1.157
 4991TIP3   OH214917   7.239   6.532   1.548
 4991TIP3    H114918   7.267   6.517   1.640
 4991TIP3    H214919   7.204   6.623   1.552
 4992TIP3   OH214920   6.525   6.228   1.215
 4992TIP3    H114921   6.569   6.212   1.129
 4992TIP3    H214922   6.587   6.187   1.277
 4993TIP3   OH214923   6.417   6.175   1.843
 4993TIP3    H114924   6.440   6.159   1.936
 4993TIP3    H214925   6.356   6.101   1.825
 4994TIP3   OH214926   7.146   6.287   1.854
 4994TIP3    H114927   7.088   6.223   1.811
 4994TIP3    H214928   7.234   6.253   1.831
 4995TIP3   OH214929   7.389   6.782   1.466
 4995TIP3    H114930   7.293   6.792   1.452
 4995TIP3    H214931   7.400   6.834   1.549
 4996TIP3   OH214932   7.489   6.306   1.118
 4996TIP3    H114933   7.393   6.293   1.110
 4996TIP3    H214934   7.522   6.236   1.059
 4997TIP3   OH214935   6.639   6.558   0.884
 4997TIP3    H114936   6.644   6.608   0.800
 4997TIP3    H214937   6.556   6.590   0.922
 4998TIP3   OH214938   6.197   5.857   0.563
 4998TIP3    H114939   6.241   5.935   0.602
 4998TIP3    H214940   6.119   5.849   0.622
 4999TIP3   OH214941   6.762   6.331   0.797
 4999TIP3    H114942   6.739   6.415   0.841
 4999TIP3    H214943   6.745   6.266   0.866
 5000TIP3   OH214944   6.904   6.882   1.324
 5000TIP3    H114945   6.943   6.950   1.264
 5000TIP3    H214946   6.985   6.850   1.368
 5001TIP3   OH214947   7.292   6.520   1.277
 5001TIP3    H114948   7.281   6.516   1.374
 5001TIP3    H214949   7.374   6.469   1.264
 5002TIP3   OH214950   6.628   5.674   1.839
 5002TIP3    H114951   6.531   5.674   1.852
 5002TIP3    H214952   6.658   5.619   1.913
 5003TIP3   OH214953   6.336   6.773   1.490
 5003TIP3    H114954   6.370   6.686   1.467
 5003TIP3    H214955   6.410   6.809   1.541
 5004TIP3   OH214956   6.317   6.093   0.653
 5004TIP3    H114957   6.243   6.133   0.704
 5004TIP3    H214958   6.350   6.172   0.609
 5005TIP3   OH214959   7.471   5.730   1.515
 5005TIP3    H114960   7.546   5.780   1.553
 5005TIP3    H214961   7.462   5.655   1.577
 5006TIP3   OH214962   7.018   5.662   0.792
 5006TIP3    H114963   7.091   5.722   0.774
 5006TIP3    H214964   7.027   5.650   0.890
 5007TIP3   OH214965   7.304   5.985   1.600
 5007TIP3    H114966   7.328   6.042   1.676
 5007TIP3    H214967   7.361   5.908   1.614
 5008TIP3   OH214968   7.192   5.402   0.902
 5008TIP3    H114969   7.180   5.461   0.979
 5008TIP3    H214970   7.265   5.448   0.857
 5009TIP3   OH214971   6.685   5.397   0.673
 5009TIP3    H114972   6.679   5.487   0.708
 5009TIP3    H214973   6.773   5.372   0.711
 5010TIP3   OH214974   7.941   5.909   1.564
 5010TIP3    H114975   7.844   5.901   1.574
 5010TIP3    H214976   7.957   5.849   1.491
 5011TIP3   OH214977   7.587   6.090   0.978
 5011TIP3    H114978   7.520   6.021   0.988
 5011TIP3    H214979   7.667   6.045   1.011
 5012TIP3   OH214980   6.251   5.586   0.580
 5012TIP3    H114981   6.236   5.682   0.571
 5012TIP3    H214982   6.187   5.551   0.516
 5013TIP3   OH214983   6.638   5.306   1.441
 5013TIP3    H114984   6.608   5.270   1.355
 5013TIP3    H214985   6.628   5.228   1.500
 5014TIP3   OH214986   6.176   6.494   0.814
 5014TIP3    H114987   6.146   6.532   0.900
 5014TIP3    H214988   6.269   6.523   0.815
 5015TIP3   OH214989   6.343   7.070   1.901
 5015TIP3    H114990   6.427   7.085   1.950
 5015TIP3    H214991   6.352   6.975   1.884
 5016TIP3   OH214992   6.807   7.028   1.941
 5016TIP3    H114993   6.903   7.017   1.949
 5016TIP3    H214994   6.788   6.966   1.868
 5017TIP3   OH214995   7.451   6.929   1.686
 5017TIP3    H114996   7.449   6.862   1.758
 5017TIP3    H214997   7.533   6.977   1.708
 5018TIP3   OH214998   6.461   6.471   2.097
 5018TIP3    H114999   6.481   6.376   2.113
 5018TIP3    H215000   6.376   6.466   2.049
 5019TIP3   OH215001   7.073   6.558   1.876
 5019TIP3    H115002   7.034   6.583   1.790
 5019TIP3    H215003   7.105   6.466   1.860
 5020TIP3   OH215004   7.561   6.566   1.471
 5020TIP3    H115005   7.619   6.634   1.436
 5020TIP3    H215006   7.477   6.616   1.474
 5021TIP3   OH215007   6.599   6.215   2.088
 5021TIP3    H115008   6.661   6.168   2.031
 5021TIP3    H215009   6.662   6.258   2.149
 5022TIP3   OH215010   6.916   6.084   1.733
 5022TIP3    H115011   6.844   6.151   1.740
 5022TIP3    H215012   6.971   6.122   1.660
 5023TIP3   OH215013   7.443   6.492   1.869
 5023TIP3    H115014   7.521   6.463   1.819
 5023TIP3    H215015   7.441   6.428   1.942
 5024TIP3   OH215016   7.049   5.878   1.855
 5024TIP3    H115017   7.050   5.800   1.795
 5024TIP3    H215018   7.003   5.945   1.799
 5025TIP3   OH215019   7.047   5.667   1.669
 5025TIP3    H115020   7.075   5.708   1.584
 5025TIP3    H215021   6.953   5.645   1.650
 5026TIP3   OH215022   7.067   6.197   1.542
 5026TIP3    H115023   7.156   6.216   1.507
 5026TIP3    H215024   7.013   6.266   1.498
 5027TIP3   OH215025   7.657   6.167   1.923
 5027TIP3    H115026   7.707   6.085   1.934
 5027TIP3    H215027   7.726   6.226   1.888
 5028TIP3   OH215028   7.667   6.423   1.676
 5028TIP3    H115029   7.616   6.475   1.611
 5028TIP3    H215030   7.756   6.431   1.635
 5029TIP3   OH215031   6.933   5.969   2.091
 5029TIP3    H115032   6.858   5.909   2.108
 5029TIP3    H215033   6.962   5.941   2.002
 5030TIP3   OH215034   7.177   5.429   1.742
 5030TIP3    H115035   7.128   5.510   1.719
 5030TIP3    H215036   7.108   5.360   1.732
 5031TIP3   OH215037   7.304   5.933   1.957
 5031TIP3    H115038   7.287   5.916   2.052
 5031TIP3    H215039   7.216   5.909   1.921
 5032TIP3   OH215040   7.541   5.882   1.811
 5032TIP3    H115041   7.468   5.885   1.877
 5032TIP3    H215042   7.617   5.854   1.866
 5033TIP3   OH215043   7.770   5.827   1.961
 5033TIP3    H115044   7.783   5.731   1.977
 5033TIP3    H215045   7.768   5.863   2.052
 5034TIP3   OH215046   6.752   5.766   2.153
 5034TIP3    H115047   6.759   5.673   2.123
 5034TIP3    H215048   6.790   5.758   2.243
 5035TIP3   OH215049   7.270   5.440   2.001
 5035TIP3    H115050   7.338   5.369   1.995
 5035TIP3    H215051   7.232   5.434   1.911
 5036TIP3   OH215052   7.340   5.652   2.159
 5036TIP3    H115053   7.317   5.582   2.094
 5036TIP3    H215054   7.264   5.714   2.150
 5037TIP3   OH215055   5.956   6.871   0.908
 5037TIP3    H115056   5.889   6.814   0.864
 5037TIP3    H215057   6.001   6.804   0.964
 5038TIP3   OH215058   6.273   6.145   1.448
 5038TIP3    H115059   6.271   6.108   1.357
 5038TIP3    H215060   6.370   6.143   1.465
 5039TIP3   OH215061   7.894   6.464   1.535
 5039TIP3    H115062   7.981   6.430   1.561
 5039TIP3    H215063   7.919   6.526   1.464
 5040TIP3   OH215064   7.806   5.947   1.073
 5040TIP3    H115065   7.889   5.983   1.039
 5040TIP3    H215066   7.810   5.982   1.165
 5041TIP3   OH215067   7.849   6.079   1.305
 5041TIP3    H115068   7.784   6.120   1.364
 5041TIP3    H215069   7.917   6.149   1.298
 5042TIP3   OH215070   6.487   5.820   2.112
 5042TIP3    H115071   6.584   5.818   2.121
 5042TIP3    H215072   6.465   5.735   2.156
 5043TIP3   OH215073   6.455   5.515   1.453
 5043TIP3    H115074   6.516   5.439   1.461
 5043TIP3    H215075   6.519   5.588   1.443
 5044TIP3   OH215076   6.254   5.790   1.519
 5044TIP3    H115077   6.305   5.783   1.436
 5044TIP3    H215078   6.294   5.867   1.560
 5045TIP3   OH215079   6.242   5.299   1.037
 5045TIP3    H115080   6.148   5.285   1.054
 5045TIP3    H215081   6.240   5.352   0.954
 5046TIP3   OH215082   6.462   5.373   1.838
 5046TIP3    H115083   6.411   5.366   1.921
 5046TIP3    H215084   6.394   5.408   1.777
 5047TIP3   OH215085   6.497   6.817   1.911
 5047TIP3    H115086   6.423   6.757   1.892
 5047TIP3    H215087   6.529   6.787   1.997
 5048TIP3   OH215088   6.675   6.841   1.469
 5048TIP3    H115089   6.633   6.916   1.422
 5048TIP3    H215090   6.763   6.845   1.425
 5049TIP3   OH215091   7.137   7.090   1.596
 5049TIP3    H115092   7.169   7.082   1.688
 5049TIP3    H215093   7.211   7.138   1.556
 5050TIP3   OH215094   8.079   5.564   1.576
 5050TIP3    H115095   8.007   5.595   1.520
 5050TIP3    H215096   8.133   5.511   1.516
 5051TIP3   OH215097   6.359   7.107   1.485
 5051TIP3    H115098   6.265   7.128   1.468
 5051TIP3    H215099   6.370   7.140   1.575
 5052TIP3   OH215100   6.586   7.064   1.342
 5052TIP3    H115101   6.498   7.077   1.385
 5052TIP3    H215102   6.565   7.083   1.248
 5053TIP3   OH215103   7.000   7.070   1.159
 5053TIP3    H115104   6.948   7.105   1.085
 5053TIP3    H215105   7.027   7.151   1.207
 5054TIP3   OH215106   6.271   6.893   1.242
 5054TIP3    H115107   6.305   6.860   1.327
 5054TIP3    H215108   6.240   6.810   1.199
 5055TIP3   OH215109   6.735   6.860   1.088
 5055TIP3    H115110   6.742   6.764   1.084
 5055TIP3    H215111   6.783   6.876   1.172
 5056TIP3   OH215112   7.293   5.495   1.166
 5056TIP3    H115113   7.258   5.428   1.228
 5056TIP3    H215114   7.376   5.453   1.135
 5057TIP3   OH215115   7.828   5.381   1.085
 5057TIP3    H115116   7.869   5.433   1.012
 5057TIP3    H215117   7.735   5.407   1.079
 5058TIP3   OH215118   6.306   3.844   9.037
 5058TIP3    H115119   6.360   3.799   8.970
 5058TIP3    H215120   6.310   3.936   9.009
 5059TIP3   OH215121   6.551   5.213   1.193
 5059TIP3    H115122   6.458   5.181   1.195
 5059TIP3    H215123   6.598   5.127   1.188
 5060TIP3   OH215124   6.355   5.081   0.857
 5060TIP3    H115125   6.384   5.134   0.779
 5060TIP3    H215126   6.318   5.149   0.915
 5061TIP3   OH215127   6.996   5.242   1.083
 5061TIP3    H115128   7.053   5.295   1.026
 5061TIP3    H215129   7.020   5.276   1.171
 5062TIP3   OH215130   7.539   5.391   1.057
 5062TIP3    H115131   7.553   5.343   0.974
 5062TIP3    H215132   7.529   5.315   1.120
 5063TIP3   OH215133   6.460   5.227   0.650
 5063TIP3    H115134   6.468   5.189   0.561
 5063TIP3    H215135   6.538   5.285   0.656
 5064TIP3   OH215136   6.936   5.396   0.776
 5064TIP3    H115137   7.014   5.349   0.809
 5064TIP3    H215138   6.970   5.487   0.779
 5065TIP3   OH215139   6.759   5.491   2.085
 5065TIP3    H115140   6.724   5.420   2.142
 5065TIP3    H215141   6.853   5.490   2.113
 5066TIP3   OH215142   7.008   5.492   2.204
 5066TIP3    H115143   7.094   5.467   2.166
 5066TIP3    H215144   6.997   5.421   2.272
 5067TIP3   OH215145   7.831   5.556   1.994
 5067TIP3    H115146   7.851   5.524   2.085
 5067TIP3    H215147   7.919   5.552   1.951
 5068TIP3   OH215148   0.509   6.556   2.881
 5068TIP3    H115149   0.537   6.639   2.926
 5068TIP3    H215150   0.530   6.577   2.789
 5069TIP3   OH215151  -0.061   6.456   2.496
 5069TIP3    H115152   0.003   6.471   2.568
 5069TIP3    H215153  -0.032   6.522   2.431
 5070TIP3   OH215154   0.575   6.766   3.054
 5070TIP3    H115155   0.490   6.812   3.041
 5070TIP3    H215156   0.601   6.800   3.141
 5071TIP3   OH215157   0.141   6.505   2.672
 5071TIP3    H115158   0.152   6.424   2.724
 5071TIP3    H215159   0.202   6.569   2.713
 5072TIP3   OH215160   0.306   6.465   3.049
 5072TIP3    H115161   0.225   6.505   3.014
 5072TIP3    H215162   0.372   6.490   2.981
 5073TIP3   OH215163   0.224   7.484   3.031
 5073TIP3    H115164   0.208   7.397   2.990
 5073TIP3    H215165   0.260   7.536   2.956
 5074TIP3   OH215166   0.431   7.105   2.872
 5074TIP3    H115167   0.349   7.157   2.881
 5074TIP3    H215168   0.459   7.132   2.782
 5075TIP3   OH215169   0.240   6.031   2.147
 5075TIP3    H115170   0.157   6.050   2.197
 5075TIP3    H215171   0.253   6.116   2.100
 5076TIP3   OH215172   0.378   6.944   3.354
 5076TIP3    H115173   0.295   6.969   3.312
 5076TIP3    H215174   0.378   6.847   3.342
 5077TIP3   OH215175   0.200   7.254   2.872
 5077TIP3    H115176   0.233   7.304   2.793
 5077TIP3    H215177   0.110   7.231   2.846
 5078TIP3   OH215178   0.476   7.507   3.127
 5078TIP3    H115179   0.379   7.515   3.110
 5078TIP3    H215180   0.507   7.492   3.035
 5079TIP3   OH215181   0.372   6.678   3.273
 5079TIP3    H115182   0.292   6.631   3.303
 5079TIP3    H215183   0.388   6.636   3.188
 5080TIP3   OH215184   0.046   6.848   2.647
 5080TIP3    H115185  -0.020   6.782   2.672
 5080TIP3    H215186   0.125   6.816   2.696
 5081TIP3   OH215187   0.303   6.597   3.692
 5081TIP3    H115188   0.299   6.500   3.689
 5081TIP3    H215189   0.207   6.617   3.695
 5082TIP3   OH215190   0.301   6.992   2.225
 5082TIP3    H115191   0.231   6.952   2.282
 5082TIP3    H215192   0.364   7.027   2.291
 5083TIP3   OH215193   0.330   7.382   2.674
 5083TIP3    H115194   0.395   7.325   2.627
 5083TIP3    H215195   0.334   7.465   2.625
 5084TIP3   OH215196   0.134   6.837   2.384
 5084TIP3    H115197   0.126   6.739   2.382
 5084TIP3    H215198   0.103   6.856   2.475
 5085TIP3   OH215199   0.385   7.268   3.248
 5085TIP3    H115200   0.460   7.205   3.238
 5085TIP3    H215201   0.410   7.341   3.189
 5086TIP3   OH215202   0.584   7.080   3.248
 5086TIP3    H115203   0.511   7.034   3.296
 5086TIP3    H215204   0.656   7.016   3.266
 5087TIP3   OH215205   0.134   6.567   2.309
 5087TIP3    H115206   0.147   6.479   2.349
 5087TIP3    H215207   0.162   6.547   2.218
 5088TIP3   OH215208   0.261   6.741   2.784
 5088TIP3    H115209   0.346   6.764   2.740
 5088TIP3    H215210   0.276   6.784   2.870
 5089TIP3   OH215211   0.320   6.888   3.009
 5089TIP3    H115212   0.237   6.919   3.053
 5089TIP3    H215213   0.355   6.971   2.971
 5090TIP3   OH215214   0.786   6.483   3.562
 5090TIP3    H115215   0.843   6.414   3.520
 5090TIP3    H215216   0.753   6.531   3.484
 5091TIP3   OH215217   0.220   6.301   2.316
 5091TIP3    H115218   0.261   6.290   2.404
 5091TIP3    H215219   0.148   6.234   2.320
 5092TIP3   OH215220   0.646   6.614   3.367
 5092TIP3    H115221   0.567   6.657   3.406
 5092TIP3    H215222   0.605   6.544   3.313
 5093TIP3   OH215223   0.368   6.255   1.981
 5093TIP3    H115224   0.290   6.220   1.936
 5093TIP3    H215225   0.371   6.347   1.947
 5094TIP3   OH215226   0.549   6.372   3.250
 5094TIP3    H115227   0.458   6.352   3.221
 5094TIP3    H215228   0.589   6.283   3.243
 5095TIP3   OH215229   0.297   6.167   2.765
 5095TIP3    H115230   0.332   6.221   2.691
 5095TIP3    H215231   0.202   6.190   2.762
 5096TIP3   OH215232   0.378   6.282   2.536
 5096TIP3    H115233   0.453   6.230   2.499
 5096TIP3    H215234   0.409   6.374   2.522
 5097TIP3   OH215235   0.036   6.217   2.740
 5097TIP3    H115236  -0.036   6.220   2.676
 5097TIP3    H215237   0.016   6.134   2.790
 5098TIP3   OH215238   0.030   6.098   2.312
 5098TIP3    H115239  -0.055   6.126   2.277
 5098TIP3    H215240   0.005   6.015   2.357
 5099TIP3   OH215241   0.290   6.324   3.679
 5099TIP3    H115242   0.304   6.300   3.774
 5099TIP3    H215243   0.380   6.318   3.643
 5100TIP3   OH215244   1.497   7.253   1.947
 5100TIP3    H115245   1.454   7.339   1.928
 5100TIP3    H215246   1.428   7.193   1.914
 5101TIP3   OH215247   1.496   7.264   2.324
 5101TIP3    H115248   1.529   7.243   2.413
 5101TIP3    H215249   1.451   7.182   2.299
 5102TIP3   OH215250   0.788   7.159   2.686
 5102TIP3    H115251   0.817   7.089   2.748
 5102TIP3    H215252   0.859   7.223   2.696
 5103TIP3   OH215253   1.714   7.565   2.008
 5103TIP3    H115254   1.707   7.494   2.074
 5103TIP3    H215255   1.762   7.633   2.057
 5104TIP3   OH215256   0.818   7.514   2.483
 5104TIP3    H115257   0.790   7.426   2.454
 5104TIP3    H215258   0.901   7.527   2.433
 5105TIP3   OH215259   0.457   6.751   2.184
 5105TIP3    H115260   0.415   6.839   2.177
 5105TIP3    H215261   0.411   6.716   2.263
 5106TIP3   OH215262   0.528   7.062   2.371
 5106TIP3    H115263   0.574   6.982   2.406
 5106TIP3    H215264   0.604   7.115   2.340
 5107TIP3   OH215265   1.306   7.484   2.364
 5107TIP3    H115266   1.354   7.406   2.330
 5107TIP3    H215267   1.384   7.537   2.392
 5108TIP3   OH215268   2.303   6.817   2.368
 5108TIP3    H115269   2.333   6.894   2.421
 5108TIP3    H215270   2.322   6.848   2.278
 5109TIP3   OH215271   1.706   6.994   2.399
 5109TIP3    H115272   1.744   6.907   2.421
 5109TIP3    H215273   1.670   6.976   2.310
 5110TIP3   OH215274   1.044   6.653   2.364
 5110TIP3    H115275   1.021   6.726   2.303
 5110TIP3    H215276   0.995   6.579   2.322
 5111TIP3   OH215277   1.740   6.744   1.988
 5111TIP3    H115278   1.811   6.727   2.054
 5111TIP3    H215279   1.793   6.779   1.914
 5112TIP3   OH215280   0.674   6.853   2.473
 5112TIP3    H115281   0.755   6.836   2.524
 5112TIP3    H215282   0.691   6.798   2.394
 5113TIP3   OH215283   1.114   7.054   2.267
 5113TIP3    H115284   1.208   7.028   2.282
 5113TIP3    H215285   1.074   6.968   2.239
 5114TIP3   OH215286   2.375   7.022   2.536
 5114TIP3    H115287   2.289   7.067   2.521
 5114TIP3    H215288   2.390   7.044   2.630
 5115TIP3   OH215289   1.037   6.636   2.802
 5115TIP3    H115290   0.976   6.674   2.735
 5115TIP3    H215291   0.985   6.651   2.883
 5116TIP3   OH215292   1.368   7.463   1.825
 5116TIP3    H115293   1.349   7.445   1.731
 5116TIP3    H215294   1.398   7.556   1.823
 5117TIP3   OH215295   1.139   7.417   2.594
 5117TIP3    H115296   1.075   7.482   2.629
 5117TIP3    H215297   1.174   7.465   2.516
 5118TIP3   OH215298   1.947   6.750   2.167
 5118TIP3    H115299   1.918   6.708   2.249
 5118TIP3    H215300   1.989   6.832   2.201
 5119TIP3   OH215301   0.910   6.752   2.584
 5119TIP3    H115302   0.971   6.825   2.609
 5119TIP3    H215303   0.961   6.712   2.511
 5120TIP3   OH215304   0.971   7.626   2.699
 5120TIP3    H115305   0.923   7.621   2.614
 5120TIP3    H215306   0.894   7.624   2.760
 5121TIP3   OH215307   2.097   6.713   2.534
 5121TIP3    H115308   2.009   6.739   2.503
 5121TIP3    H215309   2.156   6.746   2.462
 5122TIP3   OH215310   1.388   6.353   2.516
 5122TIP3    H115311   1.374   6.259   2.536
 5122TIP3    H215312   1.312   6.393   2.565
 5123TIP3   OH215313   1.741   7.580   1.727
 5123TIP3    H115314   1.708   7.499   1.683
 5123TIP3    H215315   1.749   7.553   1.821
 5124TIP3   OH215316   2.023   7.722   2.516
 5124TIP3    H115317   2.010   7.643   2.460
 5124TIP3    H215318   2.045   7.791   2.450
 5125TIP3   OH215319   1.337   7.108   1.777
 5125TIP3    H115320   1.259   7.169   1.770
 5125TIP3    H215321   1.373   7.116   1.687
 5126TIP3   OH215322   1.304   6.893   1.507
 5126TIP3    H115323   1.370   6.952   1.549
 5126TIP3    H215324   1.363   6.835   1.455
 5127TIP3   OH215325   2.227   7.360   2.356
 5127TIP3    H115326   2.143   7.410   2.365
 5127TIP3    H215327   2.256   7.389   2.267
 5128TIP3   OH215328   1.673   7.194   1.748
 5128TIP3    H115329   1.616   7.215   1.826
 5128TIP3    H215330   1.757   7.170   1.794
 5129TIP3   OH215331   1.904   7.238   2.659
 5129TIP3    H115332   1.903   7.321   2.711
 5129TIP3    H215333   1.816   7.243   2.616
 5130TIP3   OH215334   0.908   7.195   2.151
 5130TIP3    H115335   0.866   7.131   2.090
 5130TIP3    H215336   0.985   7.144   2.185
 5131TIP3   OH215337   1.043   7.563   2.351
 5131TIP3    H115338   1.016   7.546   2.260
 5131TIP3    H215339   1.141   7.568   2.343
 5132TIP3   OH215340   1.036   7.173   2.511
 5132TIP3    H115341   1.073   7.149   2.423
 5132TIP3    H215342   1.079   7.259   2.530
 5133TIP3   OH215343   1.222   7.628   2.835
 5133TIP3    H115344   1.186   7.716   2.857
 5133TIP3    H215345   1.146   7.593   2.784
 5134TIP3   OH215346   1.518   7.052   1.570
 5134TIP3    H115347   1.571   7.118   1.619
 5134TIP3    H215348   1.543   7.073   1.476
 5135TIP3   OH215349   0.931   7.280   2.937
 5135TIP3    H115350   0.939   7.367   2.980
 5135TIP3    H215351   0.838   7.258   2.960
 5136TIP3   OH215352   2.029   6.299   1.621
 5136TIP3    H115353   1.945   6.317   1.669
 5136TIP3    H215354   2.041   6.382   1.570
 5137TIP3   OH215355   0.761   7.034   1.961
 5137TIP3    H115356   0.698   7.086   1.909
 5137TIP3    H215357   0.718   6.947   1.962
 5138TIP3   OH215358   0.565   7.426   2.881
 5138TIP3    H115359   0.496   7.406   2.816
 5138TIP3    H215360   0.600   7.337   2.905
 5139TIP3   OH215361   2.159   7.200   2.835
 5139TIP3    H115362   2.073   7.210   2.793
 5139TIP3    H215363   2.174   7.104   2.827
 5140TIP3   OH215364   0.758   7.624   2.870
 5140TIP3    H115365   0.809   7.590   2.946
 5140TIP3    H215366   0.683   7.561   2.867
 5141TIP3   OH215367   1.153   6.432   2.647
 5141TIP3    H115368   1.064   6.401   2.618
 5141TIP3    H215369   1.126   6.511   2.697
 5142TIP3   OH215370   1.688   6.545   2.841
 5142TIP3    H115371   1.757   6.517   2.905
 5142TIP3    H215372   1.605   6.526   2.890
 5143TIP3   OH215373   1.924   6.977   2.760
 5143TIP3    H115374   1.873   6.972   2.844
 5143TIP3    H215375   1.899   7.064   2.725
 5144TIP3   OH215376   1.590   7.086   1.314
 5144TIP3    H115377   1.557   7.065   1.224
 5144TIP3    H215378   1.633   7.171   1.300
 5145TIP3   OH215379   1.289   6.486   1.610
 5145TIP3    H115380   1.265   6.481   1.705
 5145TIP3    H215381   1.256   6.399   1.581
 5146TIP3   OH215382   1.085   6.951   2.663
 5146TIP3    H115383   1.035   6.969   2.745
 5146TIP3    H215384   1.067   7.032   2.611
 5147TIP3   OH215385   0.966   6.836   2.180
 5147TIP3    H115386   0.873   6.809   2.197
 5147TIP3    H215387   0.979   6.797   2.091
 5148TIP3   OH215388   1.465   6.911   1.910
 5148TIP3    H115389   1.414   6.981   1.864
 5148TIP3    H215390   1.520   6.877   1.837
 5149TIP3   OH215391   1.637   7.190   2.987
 5149TIP3    H115392   1.613   7.120   3.051
 5149TIP3    H215393   1.729   7.208   3.013
 5150TIP3   OH215394   1.618   6.944   2.144
 5150TIP3    H115395   1.553   6.972   2.076
 5150TIP3    H215396   1.651   6.864   2.099
 5151TIP3   OH215397   0.905   6.973   2.871
 5151TIP3    H115398   0.926   7.039   2.939
 5151TIP3    H215399   0.893   6.892   2.924
 5152TIP3   OH215400   0.938   6.436   1.574
 5152TIP3    H115401   0.950   6.440   1.672
 5152TIP3    H215402   0.858   6.488   1.567
 5153TIP3   OH215403   0.489   6.517   2.461
 5153TIP3    H115404   0.574   6.533   2.508
 5153TIP3    H215405   0.516   6.481   2.374
 5154TIP3   OH215406   0.456   6.533   1.953
 5154TIP3    H115407   0.543   6.551   1.915
 5154TIP3    H215408   0.452   6.596   2.026
 5155TIP3   OH215409   1.627   7.191   2.564
 5155TIP3    H115410   1.661   7.120   2.506
 5155TIP3    H215411   1.596   7.138   2.640
 5156TIP3   OH215412   1.301   6.655   2.239
 5156TIP3    H115413   1.218   6.653   2.292
 5156TIP3    H215414   1.369   6.648   2.308
 5157TIP3   OH215415   0.727   6.711   2.241
 5157TIP3    H115416   0.635   6.712   2.209
 5157TIP3    H215417   0.754   6.618   2.229
 5158TIP3   OH215418   1.005   6.711   1.940
 5158TIP3    H115419   1.102   6.721   1.928
 5158TIP3    H215420   0.971   6.714   1.848
 5159TIP3   OH215421   1.786   6.730   2.435
 5159TIP3    H115422   1.761   6.743   2.530
 5159TIP3    H215423   1.716   6.670   2.406
 5160TIP3   OH215424   0.870   6.693   1.706
 5160TIP3    H115425   0.777   6.715   1.726
 5160TIP3    H215426   0.889   6.752   1.632
 5161TIP3   OH215427   0.922   7.528   3.077
 5161TIP3    H115428   0.998   7.557   3.130
 5161TIP3    H215429   0.855   7.514   3.148
 5162TIP3   OH215430   1.376   6.986   2.339
 5162TIP3    H115431   1.449   6.941   2.294
 5162TIP3    H215432   1.377   6.943   2.427
 5163TIP3   OH215433   0.895   6.470   2.219
 5163TIP3    H115434   0.859   6.395   2.270
 5163TIP3    H215435   0.942   6.424   2.148
 5164TIP3   OH215436   1.354   6.889   2.618
 5164TIP3    H115437   1.264   6.921   2.638
 5164TIP3    H215438   1.410   6.947   2.674
 5165TIP3   OH215439   1.122   7.270   1.752
 5165TIP3    H115440   1.056   7.197   1.756
 5165TIP3    H215441   1.095   7.323   1.831
 5166TIP3   OH215442   1.992   7.500   2.352
 5166TIP3    H115443   2.018   7.551   2.272
 5166TIP3    H215444   1.906   7.461   2.324
 5167TIP3   OH215445   1.545   6.583   1.584
 5167TIP3    H115446   1.448   6.566   1.594
 5167TIP3    H215447   1.555   6.676   1.613
 5168TIP3   OH215448   1.502   7.613   2.718
 5168TIP3    H115449   1.536   7.562   2.792
 5168TIP3    H215450   1.418   7.646   2.754
 5169TIP3   OH215451   1.620   6.828   1.691
 5169TIP3    H115452   1.716   6.837   1.706
 5169TIP3    H215453   1.598   6.910   1.642
 5170TIP3   OH215454   0.764   7.247   2.386
 5170TIP3    H115455   0.820   7.240   2.306
 5170TIP3    H215456   0.821   7.207   2.454
 5171TIP3   OH215457   1.298   7.383   1.567
 5171TIP3    H115458   1.240   7.443   1.516
 5171TIP3    H215459   1.229   7.336   1.619
 5172TIP3   OH215460   0.672   7.203   3.010
 5172TIP3    H115461   0.683   7.190   3.106
 5172TIP3    H215462   0.599   7.142   2.992
 5173TIP3   OH215463   1.397   7.317   3.035
 5173TIP3    H115464   1.332   7.263   2.987
 5173TIP3    H215465   1.481   7.282   3.000
 5174TIP3   OH215466   2.061   6.924   1.523
 5174TIP3    H115467   2.001   6.877   1.459
 5174TIP3    H215468   2.056   7.013   1.481
 5175TIP3   OH215469   2.279   7.760   2.606
 5175TIP3    H115470   2.182   7.772   2.596
 5175TIP3    H215471   2.304   7.748   2.512
 5176TIP3   OH215472   1.756   7.375   2.252
 5176TIP3    H115473   1.664   7.349   2.276
 5176TIP3    H215474   1.789   7.291   2.216
 5177TIP3   OH215475   1.024   7.386   1.983
 5177TIP3    H115476   0.982   7.463   2.022
 5177TIP3    H215477   0.993   7.317   2.045
 5178TIP3   OH215478   1.547   7.574   2.448
 5178TIP3    H115479   1.533   7.588   2.544
 5178TIP3    H215480   1.632   7.528   2.447
 5179TIP3   OH215481   1.523   7.400   1.334
 5179TIP3    H115482   1.572   7.399   1.419
 5179TIP3    H215483   1.432   7.397   1.367
 5180TIP3   OH215484   0.875   6.717   3.015
 5180TIP3    H115485   0.779   6.719   3.031
 5180TIP3    H215486   0.905   6.662   3.090
 5181TIP3   OH215487   1.685   7.374   1.549
 5181TIP3    H115488   1.678   7.304   1.617
 5181TIP3    H215489   1.782   7.375   1.533
 5182TIP3   OH215490   1.722   6.777   2.696
 5182TIP3    H115491   1.796   6.820   2.742
 5182TIP3    H215492   1.705   6.698   2.752
 5183TIP3   OH215493   1.597   6.531   1.869
 5183TIP3    H115494   1.584   6.555   1.775
 5183TIP3    H215495   1.637   6.613   1.906
 5184TIP3   OH215496   1.282   6.715   1.971
 5184TIP3    H115497   1.347   6.787   1.955
 5184TIP3    H215498   1.288   6.706   2.069
 5185TIP3   OH215499   1.554   7.031   2.772
 5185TIP3    H115500   1.576   7.086   2.851
 5185TIP3    H215501   1.605   6.950   2.790
 5186TIP3   OH215502   1.425   6.435   2.070
 5186TIP3    H115503   1.418   6.513   2.128
 5186TIP3    H215504   1.488   6.469   2.002
 5187TIP3   OH215505   0.949   6.435   1.859
 5187TIP3    H115506   0.942   6.529   1.891
 5187TIP3    H215507   1.044   6.423   1.867
 5188TIP3   OH215508   2.190   6.932   2.755
 5188TIP3    H115509   2.092   6.934   2.765
 5188TIP3    H215510   2.196   6.877   2.675
 5189TIP3   OH215511   1.842   7.126   2.144
 5189TIP3    H115512   1.764   7.069   2.158
 5189TIP3    H215513   1.911   7.078   2.195
 5190TIP3   OH215514   0.891   6.350   2.618
 5190TIP3    H115515   0.858   6.314   2.532
 5190TIP3    H215516   0.881   6.274   2.678
 5191TIP3   OH215517   0.717   7.494   3.253
 5191TIP3    H115518   0.737   7.400   3.267
 5191TIP3    H215519   0.625   7.489   3.220
 5192TIP3   OH215520   1.341   7.581   3.077
 5192TIP3    H115521   1.306   7.596   2.986
 5192TIP3    H215522   1.374   7.490   3.068
 5193TIP3   OH215523   1.810   7.602   2.650
 5193TIP3    H115524   1.876   7.662   2.610
 5193TIP3    H215525   1.732   7.660   2.652
 5194TIP3   OH215526   0.845   7.248   3.257
 5194TIP3    H115527   0.919   7.188   3.240
 5194TIP3    H215528   0.868   7.283   3.345
 5195TIP3   OH215529   0.944   7.068   1.741
 5195TIP3    H115530   0.892   7.033   1.816
 5195TIP3    H215531   0.941   6.995   1.678
 5196TIP3   OH215532   1.170   7.138   2.916
 5196TIP3    H115533   1.091   7.195   2.917
 5196TIP3    H215534   1.219   7.174   2.838
 5197TIP3   OH215535   1.026   6.856   1.512
 5197TIP3    H115536   1.047   6.812   1.429
 5197TIP3    H215537   1.117   6.886   1.535
 5198TIP3   OH215538   1.689   7.525   3.048
 5198TIP3    H115539   1.773   7.504   3.006
 5198TIP3    H215540   1.686   7.464   3.123
 5199TIP3   OH215541   1.840   7.208   1.182
 5199TIP3    H115542   1.806   7.164   1.102
 5199TIP3    H215543   1.799   7.297   1.174
 5200TIP3   OH215544   1.294   6.928   3.039
 5200TIP3    H115545   1.292   6.849   2.982
 5200TIP3    H215546   1.248   6.995   2.983
 5201TIP3   OH215547   1.295   6.714   2.848
 5201TIP3    H115548   1.322   6.753   2.763
 5201TIP3    H215549   1.202   6.690   2.831
 5202TIP3   OH215550   1.316   7.250   2.721
 5202TIP3    H115551   1.400   7.261   2.674
 5202TIP3    H215552   1.258   7.316   2.677
 5203TIP3   OH215553   1.900   7.213   3.101
 5203TIP3    H115554   1.950   7.131   3.116
 5203TIP3    H215555   1.969   7.274   3.071
 5204TIP3   OH215556   1.944   7.463   2.838
 5204TIP3    H115557   1.886   7.518   2.779
 5204TIP3    H215558   2.032   7.485   2.800
 5205TIP3   OH215559   1.172   7.032   3.274
 5205TIP3    H115560   1.103   6.964   3.291
 5205TIP3    H215561   1.204   7.006   3.186
 5206TIP3   OH215562   1.426   6.474   2.918
 5206TIP3    H115563   1.376   6.555   2.896
 5206TIP3    H215564   1.357   6.405   2.909
 5207TIP3   OH215565   1.553   6.977   3.134
 5207TIP3    H115566   1.538   6.962   3.229
 5207TIP3    H215567   1.463   6.954   3.100
 5208TIP3   OH215568   1.789   6.924   2.987
 5208TIP3    H115569   1.715   6.928   3.051
 5208TIP3    H215570   1.864   6.896   3.044
 5209TIP3   OH215571   2.022   6.871   3.136
 5209TIP3    H115572   2.034   6.775   3.152
 5209TIP3    H215573   2.016   6.907   3.227
 5210TIP3   OH215574   1.010   6.813   3.328
 5210TIP3    H115575   1.012   6.721   3.298
 5210TIP3    H215576   1.047   6.803   3.419
 5211TIP3   OH215577   1.521   6.486   3.176
 5211TIP3    H115578   1.587   6.414   3.171
 5211TIP3    H215579   1.480   6.479   3.087
 5212TIP3   OH215580   1.588   6.701   3.334
 5212TIP3    H115581   1.566   6.629   3.271
 5212TIP3    H215582   1.508   6.758   3.328
 5213TIP3   OH215583   2.173   7.890   2.882
 5213TIP3    H115584   2.096   7.873   2.942
 5213TIP3    H215585   2.213   7.966   2.925
 5214TIP3   OH215586   1.956   7.375   1.531
 5214TIP3    H115587   2.026   7.436   1.500
 5214TIP3    H215588   2.000   7.336   1.610
 5215TIP3   OH215589   2.086   7.244   1.730
 5215TIP3    H115590   2.022   7.204   1.792
 5215TIP3    H215591   2.155   7.281   1.789
 5216TIP3   OH215592   2.124   7.637   2.159
 5216TIP3    H115593   2.190   7.582   2.112
 5216TIP3    H215594   2.130   7.722   2.113
 5217TIP3   OH215595   2.026   7.157   1.377
 5217TIP3    H115596   1.958   7.160   1.306
 5217TIP3    H215597   1.994   7.231   1.433
 5218TIP3   OH215598   1.896   6.830   1.331
 5218TIP3    H115599   1.848   6.868   1.256
 5218TIP3    H215600   1.872   6.735   1.321
 5219TIP3   OH215601   1.900   7.107   1.877
 5219TIP3    H115602   1.902   7.010   1.866
 5219TIP3    H215603   1.884   7.117   1.974
 5220TIP3   OH215604   0.523   7.189   2.622
 5220TIP3    H115605   0.520   7.152   2.532
 5220TIP3    H215606   0.621   7.187   2.639
 5221TIP3   OH215607   2.187   7.529   2.735
 5221TIP3    H115608   2.260   7.464   2.723
 5221TIP3    H215609   2.214   7.602   2.675
 5222TIP3   OH215610   2.375   7.333   2.739
 5222TIP3    H115611   2.299   7.286   2.781
 5222TIP3    H215612   2.447   7.269   2.758
 5223TIP3   OH215613   1.836   6.564   1.318
 5223TIP3    H115614   1.906   6.530   1.376
 5223TIP3    H215615   1.761   6.505   1.334
 5224TIP3   OH215616   1.897   6.831   1.767
 5224TIP3    H115617   1.931   6.739   1.783
 5224TIP3    H215618   1.954   6.857   1.692
 5225TIP3   OH215619   2.054   6.992   2.265
 5225TIP3    H115620   2.139   7.019   2.224
 5225TIP3    H215621   2.066   7.030   2.354
 5226TIP3   OH215622   2.124   7.140   2.492
 5226TIP3    H115623   2.049   7.173   2.545
 5226TIP3    H215624   2.157   7.223   2.451
 5227TIP3   OH215625   0.744   6.863   3.289
 5227TIP3    H115626   0.841   6.859   3.299
 5227TIP3    H215627   0.718   6.779   3.331
 5228TIP3   OH215628   2.576   6.735   3.050
 5228TIP3    H115629   2.637   6.669   3.011
 5228TIP3    H215630   2.548   6.786   2.971
 5229TIP3   OH215631   1.980   6.580   1.823
 5229TIP3    H115632   2.029   6.556   1.904
 5229TIP3    H215633   1.928   6.498   1.809
 5230TIP3   OH215634   0.708   6.559   2.625
 5230TIP3    H115635   0.769   6.483   2.637
 5230TIP3    H215636   0.770   6.633   2.620
 5231TIP3   OH215637   0.505   6.830   2.700
 5231TIP3    H115638   0.555   6.829   2.616
 5231TIP3    H215639   0.533   6.913   2.740
 5232TIP3   OH215640   2.447   6.871   2.852
 5232TIP3    H115641   2.362   6.913   2.876
 5232TIP3    H215642   2.414   6.797   2.798
 5233TIP3   OH215643   2.093   6.504   1.446
 5233TIP3    H115644   2.124   6.443   1.376
 5233TIP3    H215645   2.153   6.581   1.439
 5234TIP3   OH215646   0.478   6.390   2.217
 5234TIP3    H115647   0.394   6.350   2.243
 5234TIP3    H215648   0.475   6.374   2.120
 5235TIP3   OH215649   0.710   6.415   3.014
 5235TIP3    H115650   0.659   6.409   3.096
 5235TIP3    H215651   0.643   6.454   2.954
 5236TIP3   OH215652   2.348   6.630   2.736
 5236TIP3    H115653   2.256   6.616   2.706
 5236TIP3    H215654   2.384   6.539   2.728
 5237TIP3   OH215655   1.551   6.548   2.357
 5237TIP3    H115656   1.508   6.478   2.410
 5237TIP3    H215657   1.624   6.500   2.314
 5238TIP3   OH215658   2.064   6.427   2.267
 5238TIP3    H115659   2.095   6.484   2.194
 5238TIP3    H215660   1.968   6.442   2.264
 5239TIP3   OH215661   2.158   6.519   2.025
 5239TIP3    H115662   2.211   6.441   2.004
 5239TIP3    H215663   2.218   6.593   2.007
 5240TIP3   OH215664   0.803   6.257   2.368
 5240TIP3    H115665   0.710   6.226   2.368
 5240TIP3    H215666   0.850   6.171   2.357
 5241TIP3   OH215667   0.636   6.127   2.076
 5241TIP3    H115668   0.663   6.182   2.000
 5241TIP3    H215669   0.543   6.151   2.082
 5242TIP3   OH215670   1.246   6.290   2.254
 5242TIP3    H115671   1.304   6.337   2.192
 5242TIP3    H215672   1.272   6.328   2.339
 5243TIP3   OH215673   1.786   6.436   2.234
 5243TIP3    H115674   1.788   6.392   2.148
 5243TIP3    H215675   1.775   6.359   2.294
 5244TIP3   OH215676   1.818   6.359   1.796
 5244TIP3    H115677   1.732   6.402   1.816
 5244TIP3    H215678   1.806   6.273   1.842
 5245TIP3   OH215679   0.713   6.283   1.813
 5245TIP3    H115680   0.757   6.213   1.760
 5245TIP3    H215681   0.791   6.336   1.839
 5246TIP3   OH215682   1.223   6.467   1.876
 5246TIP3    H115683   1.278   6.416   1.940
 5246TIP3    H215684   1.245   6.558   1.906
 5247TIP3   OH215685   1.008   6.540   3.263
 5247TIP3    H115686   0.970   6.469   3.319
 5247TIP3    H215687   1.101   6.538   3.292
 5248TIP3   OH215688   1.258   6.536   3.382
 5248TIP3    H115689   1.343   6.507   3.345
 5248TIP3    H215690   1.243   6.466   3.450
 5249TIP3   OH215691   2.084   6.600   3.169
 5249TIP3    H115692   2.101   6.569   3.260
 5249TIP3    H215693   2.174   6.594   3.129
 5250TIP3   OH215694   3.288   7.509   1.433
 5250TIP3    H115695   3.247   7.595   1.411
 5250TIP3    H215696   3.220   7.450   1.397
 5251TIP3   OH215697   3.288   7.523   1.810
 5251TIP3    H115698   3.323   7.498   1.898
 5251TIP3    H215699   3.249   7.439   1.780
 5252TIP3   OH215700   2.583   7.414   2.175
 5252TIP3    H115701   2.614   7.346   2.238
 5252TIP3    H215702   2.657   7.476   2.177
 5253TIP3   OH215703   3.505   7.824   1.500
 5253TIP3    H115704   3.503   7.752   1.565
 5253TIP3    H215705   3.562   7.888   1.544
 5254TIP3   OH215706   2.627   7.764   1.980
 5254TIP3    H115707   2.584   7.686   1.942
 5254TIP3    H215708   2.696   7.783   1.912
 5255TIP3   OH215709   2.258   7.012   1.690
 5255TIP3    H115710   2.219   7.099   1.708
 5255TIP3    H215711   2.189   6.975   1.632
 5256TIP3   OH215712   2.321   7.316   1.856
 5256TIP3    H115713   2.373   7.240   1.890
 5256TIP3    H215714   2.392   7.375   1.824
 5257TIP3   OH215715   3.099   7.737   1.857
 5257TIP3    H115716   3.149   7.660   1.822
 5257TIP3    H215717   3.176   7.793   1.881
 5258TIP3   OH215718   4.101   7.068   1.854
 5258TIP3    H115719   4.131   7.151   1.895
 5258TIP3    H215720   4.126   7.082   1.761
 5259TIP3   OH215721   3.499   7.249   1.886
 5259TIP3    H115722   3.541   7.164   1.907
 5259TIP3    H215723   3.466   7.232   1.796
 5260TIP3   OH215724   2.828   6.904   1.855
 5260TIP3    H115725   2.814   6.974   1.787
 5260TIP3    H215726   2.785   6.828   1.812
 5261TIP3   OH215727   3.532   7.003   1.472
 5261TIP3    H115728   3.603   6.988   1.539
 5261TIP3    H215729   3.586   7.036   1.398
 5262TIP3   OH215730   2.471   7.110   1.959
 5262TIP3    H115731   2.554   7.096   2.009
 5262TIP3    H215732   2.491   7.056   1.879
 5263TIP3   OH215733   2.909   7.310   1.756
 5263TIP3    H115734   3.004   7.288   1.769
 5263TIP3    H215735   2.872   7.224   1.726
 5264TIP3   OH215736   4.176   7.278   2.024
 5264TIP3    H115737   4.090   7.322   2.006
 5264TIP3    H215738   4.192   7.307   2.115
 5265TIP3   OH215739   2.830   6.892   2.285
 5265TIP3    H115740   2.771   6.937   2.223
 5265TIP3    H215741   2.782   6.905   2.369
 5266TIP3   OH215742   3.159   7.714   1.301
 5266TIP3    H115743   3.130   7.711   1.209
 5266TIP3    H215744   3.200   7.803   1.307
 5267TIP3   OH215745   2.936   7.673   2.080
 5267TIP3    H115746   2.873   7.741   2.110
 5267TIP3    H215747   2.977   7.717   2.002
 5268TIP3   OH215748   3.735   7.009   1.651
 5268TIP3    H115749   3.736   6.952   1.729
 5268TIP3    H215750   3.790   7.084   1.679
 5269TIP3   OH215751   2.703   7.011   2.072
 5269TIP3    H115752   2.765   7.083   2.097
 5269TIP3    H215753   2.754   6.970   1.999
 5270TIP3   OH215754   2.766   7.886   2.187
 5270TIP3    H115755   2.718   7.872   2.102
 5270TIP3    H215756   2.688   7.884   2.248
 5271TIP3   OH215757   2.159   7.529   1.420
 5271TIP3    H115758   2.128   7.528   1.326
 5271TIP3    H215759   2.188   7.620   1.431
 5272TIP3   OH215760   3.891   6.974   2.020
 5272TIP3    H115761   3.803   6.996   1.984
 5272TIP3    H215762   3.952   7.004   1.950
 5273TIP3   OH215763   3.177   6.603   1.999
 5273TIP3    H115764   3.170   6.512   2.033
 5273TIP3    H215765   3.100   6.645   2.044
 5274TIP3   OH215766   3.540   7.841   1.217
 5274TIP3    H115767   3.516   7.760   1.168
 5274TIP3    H215768   3.547   7.809   1.309
 5275TIP3   OH215769   3.818   7.978   2.003
 5275TIP3    H115770   3.806   7.900   1.945
 5275TIP3    H215771   3.849   8.046   1.940
 5276TIP3   OH215772   3.122   7.370   1.265
 5276TIP3    H115773   3.041   7.421   1.244
 5276TIP3    H215774   3.165   7.364   1.178
 5277TIP3   OH215775   3.077   7.158   0.976
 5277TIP3    H115776   3.145   7.213   1.019
 5277TIP3    H215777   3.134   7.095   0.927
 5278TIP3   OH215778   4.023   7.619   1.847
 5278TIP3    H115779   3.939   7.669   1.853
 5278TIP3    H215780   4.053   7.644   1.757
 5279TIP3   OH215781   3.468   7.448   1.235
 5279TIP3    H115782   3.413   7.469   1.314
 5279TIP3    H215783   3.552   7.423   1.278
 5280TIP3   OH215784   3.700   7.492   2.147
 5280TIP3    H115785   3.699   7.577   2.195
 5280TIP3    H215786   3.613   7.497   2.101
 5281TIP3   OH215787   2.707   7.461   1.638
 5281TIP3    H115788   2.661   7.398   1.578
 5281TIP3    H215789   2.780   7.405   1.673
 5282TIP3   OH215790   2.832   7.822   1.817
 5282TIP3    H115791   2.859   7.776   1.736
 5282TIP3    H215792   2.917   7.862   1.843
 5283TIP3   OH215793   2.829   7.430   1.997
 5283TIP3    H115794   2.867   7.404   1.911
 5283TIP3    H215795   2.874   7.515   2.016
 5284TIP3   OH215796   3.014   7.885   2.326
 5284TIP3    H115797   2.979   7.974   2.345
 5284TIP3    H215798   2.940   7.850   2.273
 5285TIP3   OH215799   3.298   7.316   1.059
 5285TIP3    H115800   3.361   7.373   1.108
 5285TIP3    H215801   3.329   7.330   0.966
 5286TIP3   OH215802   2.727   7.536   2.426
 5286TIP3    H115803   2.733   7.624   2.468
 5286TIP3    H215804   2.634   7.514   2.444
 5287TIP3   OH215805   3.823   6.555   1.107
 5287TIP3    H115806   3.740   6.577   1.155
 5287TIP3    H215807   3.837   6.636   1.054
 5288TIP3   OH215808   2.565   7.296   1.457
 5288TIP3    H115809   2.502   7.340   1.397
 5288TIP3    H215810   2.528   7.208   1.462
 5289TIP3   OH215811   2.364   7.681   2.360
 5289TIP3    H115812   2.291   7.661   2.299
 5289TIP3    H215813   2.396   7.592   2.386
 5290TIP3   OH215814   3.951   7.454   2.325
 5290TIP3    H115815   3.871   7.466   2.272
 5290TIP3    H215816   3.969   7.359   2.313
 5291TIP3   OH215817   2.551   7.885   2.362
 5291TIP3    H115818   2.605   7.845   2.433
 5291TIP3    H215819   2.480   7.818   2.352
 5292TIP3   OH215820   2.933   6.699   2.105
 5292TIP3    H115821   2.839   6.682   2.088
 5292TIP3    H215822   2.926   6.768   2.173
 5293TIP3   OH215823   3.488   6.812   2.336
 5293TIP3    H115824   3.555   6.768   2.392
 5293TIP3    H215825   3.403   6.782   2.376
 5294TIP3   OH215826   3.716   7.233   2.256
 5294TIP3    H115827   3.662   7.240   2.336
 5294TIP3    H215828   3.699   7.318   2.211
 5295TIP3   OH215829   3.389   7.347   0.812
 5295TIP3    H115830   3.343   7.332   0.727
 5295TIP3    H215831   3.458   7.411   0.786
 5296TIP3   OH215832   3.092   6.735   1.105
 5296TIP3    H115833   3.057   6.730   1.196
 5296TIP3    H215834   3.054   6.653   1.068
 5297TIP3   OH215835   2.879   7.208   2.149
 5297TIP3    H115836   2.831   7.227   2.233
 5297TIP3    H215837   2.861   7.290   2.098
 5298TIP3   OH215838   2.764   7.089   1.666
 5298TIP3    H115839   2.670   7.069   1.680
 5298TIP3    H215840   2.777   7.053   1.576
 5299TIP3   OH215841   3.257   7.170   1.395
 5299TIP3    H115842   3.206   7.240   1.349
 5299TIP3    H215843   3.314   7.136   1.323
 5300TIP3   OH215844   3.437   7.428   2.480
 5300TIP3    H115845   3.468   7.340   2.511
 5300TIP3    H215846   3.519   7.478   2.493
 5301TIP3   OH215847   3.412   7.201   1.630
 5301TIP3    H115848   3.349   7.227   1.560
 5301TIP3    H215849   3.449   7.122   1.586
 5302TIP3   OH215850   2.701   7.230   2.360
 5302TIP3    H115851   2.725   7.294   2.428
 5302TIP3    H215852   2.691   7.148   2.412
 5303TIP3   OH215853   2.750   6.711   1.069
 5303TIP3    H115854   2.738   6.709   1.166
 5303TIP3    H215855   2.672   6.763   1.041
 5304TIP3   OH215856   2.374   6.690   1.899
 5304TIP3    H115857   2.406   6.745   1.977
 5304TIP3    H215858   2.317   6.762   1.856
 5305TIP3   OH215859   2.267   6.723   1.468
 5305TIP3    H115860   2.307   6.765   1.389
 5305TIP3    H215861   2.205   6.794   1.495
 5306TIP3   OH215862   3.423   7.449   2.049
 5306TIP3    H115863   3.456   7.378   1.990
 5306TIP3    H215864   3.389   7.394   2.123
 5307TIP3   OH215865   3.095   6.918   1.729
 5307TIP3    H115866   3.021   6.912   1.791
 5307TIP3    H215867   3.172   6.897   1.785
 5308TIP3   OH215868   2.521   6.965   1.725
 5308TIP3    H115869   2.426   6.982   1.703
 5308TIP3    H215870   2.533   6.874   1.694
 5309TIP3   OH215871   2.789   6.959   1.426
 5309TIP3    H115872   2.884   6.974   1.408
 5309TIP3    H215873   2.746   6.985   1.341
 5310TIP3   OH215874   3.584   6.991   1.939
 5310TIP3    H115875   3.540   6.999   2.026
 5310TIP3    H215876   3.528   6.924   1.895
 5311TIP3   OH215877   2.642   6.999   1.199
 5311TIP3    H115878   2.574   6.952   1.147
 5311TIP3    H215879   2.695   7.038   1.127
 5312TIP3   OH215880   2.715   7.783   2.564
 5312TIP3    H115881   2.793   7.812   2.616
 5312TIP3    H215882   2.650   7.772   2.636
 5313TIP3   OH215883   3.172   7.245   1.824
 5313TIP3    H115884   3.243   7.200   1.776
 5313TIP3    H215885   3.173   7.198   1.910
 5314TIP3   OH215886   2.706   6.692   1.703
 5314TIP3    H115887   2.771   6.620   1.708
 5314TIP3    H215888   2.726   6.728   1.615
 5315TIP3   OH215889   3.148   7.144   2.100
 5315TIP3    H115890   3.058   7.175   2.122
 5315TIP3    H215891   3.205   7.200   2.156
 5316TIP3   OH215892   2.890   7.509   1.210
 5316TIP3    H115893   2.811   7.452   1.197
 5316TIP3    H215894   2.868   7.553   1.296
 5317TIP3   OH215895   3.787   7.758   1.838
 5317TIP3    H115896   3.815   7.808   1.758
 5317TIP3    H215897   3.703   7.717   1.808
 5318TIP3   OH215898   3.346   6.834   1.082
 5318TIP3    H115899   3.249   6.816   1.084
 5318TIP3    H215900   3.352   6.930   1.098
 5319TIP3   OH215901   3.297   7.869   2.204
 5319TIP3    H115902   3.328   7.819   2.280
 5319TIP3    H215903   3.214   7.907   2.238
 5320TIP3   OH215904   3.414   7.089   1.178
 5320TIP3    H115905   3.511   7.093   1.189
 5320TIP3    H215906   3.396   7.166   1.122
 5321TIP3   OH215907   2.559   7.496   1.874
 5321TIP3    H115908   2.613   7.495   1.792
 5321TIP3    H215909   2.622   7.464   1.940
 5322TIP3   OH215910   3.001   7.703   1.053
 5322TIP3    H115911   2.956   7.771   1.108
 5322TIP3    H215912   2.966   7.621   1.097
 5323TIP3   OH215913   2.467   7.460   2.497
 5323TIP3    H115914   2.479   7.446   2.593
 5323TIP3    H215915   2.395   7.397   2.479
 5324TIP3   OH215916   3.191   7.567   2.525
 5324TIP3    H115917   3.121   7.522   2.475
 5324TIP3    H215918   3.271   7.529   2.484
 5325TIP3   OH215919   3.854   7.181   1.011
 5325TIP3    H115920   3.790   7.138   0.950
 5325TIP3    H215921   3.852   7.270   0.971
 5326TIP3   OH215922   4.075   8.015   2.094
 5326TIP3    H115923   3.979   8.030   2.084
 5326TIP3    H215924   4.100   8.002   2.000
 5327TIP3   OH215925   3.551   7.631   1.740
 5327TIP3    H115926   3.460   7.605   1.762
 5327TIP3    H215927   3.586   7.547   1.704
 5328TIP3   OH215928   2.248   7.156   1.214
 5328TIP3    H115929   2.295   7.239   1.235
 5328TIP3    H215930   2.172   7.161   1.276
 5329TIP3   OH215931   2.821   7.626   1.447
 5329TIP3    H115932   2.788   7.712   1.474
 5329TIP3    H215933   2.791   7.567   1.520
 5330TIP3   OH215934   3.341   7.830   1.934
 5330TIP3    H115935   3.331   7.842   2.031
 5330TIP3    H215936   3.426   7.785   1.928
 5331TIP3   OH215937   3.351   7.667   0.790
 5331TIP3    H115938   3.381   7.650   0.881
 5331TIP3    H215939   3.269   7.717   0.805
 5332TIP3   OH215940   2.672   6.976   2.502
 5332TIP3    H115941   2.576   6.976   2.517
 5332TIP3    H215942   2.703   6.919   2.575
 5333TIP3   OH215943   3.473   7.637   1.041
 5333TIP3    H115944   3.468   7.564   1.105
 5333TIP3    H215945   3.568   7.635   1.017
 5334TIP3   OH215946   2.656   7.651   0.873
 5334TIP3    H115947   2.696   7.569   0.838
 5334TIP3    H215948   2.712   7.669   0.949
 5335TIP3   OH215949   2.367   7.396   1.292
 5335TIP3    H115950   2.300   7.435   1.351
 5335TIP3    H215951   2.377   7.468   1.226
 5336TIP3   OH215952   3.503   7.050   2.204
 5336TIP3    H115953   3.596   7.075   2.219
 5336TIP3    H215954   3.496   6.964   2.250
 5337TIP3   OH215955   3.389   6.788   1.358
 5337TIP3    H115956   3.377   6.808   1.262
 5337TIP3    H215957   3.430   6.871   1.390
 5338TIP3   OH215958   3.069   6.975   1.458
 5338TIP3    H115959   3.137   7.043   1.438
 5338TIP3    H215960   3.082   6.964   1.555
 5339TIP3   OH215961   3.346   7.284   2.250
 5339TIP3    H115962   3.371   7.326   2.335
 5339TIP3    H215963   3.399   7.201   2.250
 5340TIP3   OH215964   3.220   6.690   1.552
 5340TIP3    H115965   3.230   6.758   1.620
 5340TIP3    H215966   3.281   6.724   1.483
 5341TIP3   OH215967   2.732   6.697   1.349
 5341TIP3    H115968   2.736   6.791   1.375
 5341TIP3    H215969   2.828   6.675   1.353
 5342TIP3   OH215970   3.985   7.189   2.243
 5342TIP3    H115971   3.887   7.186   2.252
 5342TIP3    H215972   3.996   7.139   2.161
 5343TIP3   OH215973   3.638   7.384   1.633
 5343TIP3    H115974   3.563   7.323   1.643
 5343TIP3    H215975   3.709   7.336   1.680
 5344TIP3   OH215976   2.362   7.619   1.107
 5344TIP3    H115977   2.390   7.709   1.084
 5344TIP3    H215978   2.416   7.566   1.044
 5345TIP3   OH215979   2.291   6.884   1.246
 5345TIP3    H115980   2.292   6.982   1.238
 5345TIP3    H215981   2.220   6.860   1.185
 5346TIP3   OH215982   2.670   6.580   2.089
 5346TIP3    H115983   2.726   6.515   2.043
 5346TIP3    H215984   2.663   6.535   2.176
 5347TIP3   OH215985   2.512   7.755   2.744
 5347TIP3    H115986   2.532   7.659   2.753
 5347TIP3    H215987   2.421   7.752   2.706
 5348TIP3   OH215988   2.487   7.415   0.969
 5348TIP3    H115989   2.544   7.380   1.039
 5348TIP3    H215990   2.554   7.425   0.897
 5349TIP3   OH215991   3.135   7.835   2.565
 5349TIP3    H115992   3.101   7.852   2.475
 5349TIP3    H215993   3.168   7.743   2.554
 5350TIP3   OH215994   2.926   7.595   0.780
 5350TIP3    H115995   2.975   7.613   0.861
 5350TIP3    H215996   2.962   7.507   0.756
 5351TIP3   OH215997   3.606   7.863   2.138
 5351TIP3    H115998   3.677   7.916   2.095
 5351TIP3    H215999   3.532   7.925   2.131
 5352TIP3   OH216000   2.636   7.506   2.744
 5352TIP3    H116001   2.709   7.447   2.722
 5352TIP3    H216002   2.663   7.540   2.832
 5353TIP3   OH216003   2.684   7.326   1.168
 5353TIP3    H116004   2.664   7.278   1.250
 5353TIP3    H216005   2.729   7.257   1.115
 5354TIP3   OH216006   2.969   7.400   2.405
 5354TIP3    H116007   2.887   7.454   2.403
 5354TIP3    H216008   3.018   7.434   2.327
 5355TIP3   OH216009   2.800   7.127   1.017
 5355TIP3    H116010   2.775   7.127   0.922
 5355TIP3    H216011   2.898   7.127   1.009
 5356TIP3   OH216012   3.488   7.781   2.533
 5356TIP3    H116013   3.571   7.773   2.484
 5356TIP3    H216014   3.500   7.719   2.607
 5357TIP3   OH216015   3.615   7.482   0.711
 5357TIP3    H116016   3.595   7.420   0.637
 5357TIP3    H216017   3.599   7.566   0.664
 5358TIP3   OH216018   3.084   7.187   2.537
 5358TIP3    H116019   3.095   7.109   2.479
 5358TIP3    H216020   3.049   7.253   2.475
 5359TIP3   OH216021   3.086   6.981   2.341
 5359TIP3    H116022   3.115   7.009   2.253
 5359TIP3    H216023   2.995   6.948   2.324
 5360TIP3   OH216024   3.115   7.513   2.212
 5360TIP3    H116025   3.196   7.516   2.159
 5360TIP3    H216026   3.058   7.578   2.166
 5361TIP3   OH216027   3.706   7.477   2.584
 5361TIP3    H116028   3.754   7.394   2.592
 5361TIP3    H216029   3.774   7.536   2.549
 5362TIP3   OH216030   3.737   7.721   2.325
 5362TIP3    H116031   3.682   7.776   2.265
 5362TIP3    H216032   3.826   7.742   2.288
 5363TIP3   OH216033   2.975   7.297   2.758
 5363TIP3    H116034   2.905   7.232   2.780
 5363TIP3    H216035   3.005   7.261   2.671
 5364TIP3   OH216036   3.233   6.736   2.405
 5364TIP3    H116037   3.171   6.810   2.388
 5364TIP3    H216038   3.171   6.661   2.399
 5365TIP3   OH216039   3.576   7.190   2.495
 5365TIP3    H116040   3.534   7.103   2.501
 5365TIP3    H216041   3.661   7.171   2.541
 5366TIP3   OH216042   3.809   7.127   2.624
 5366TIP3    H116043   3.828   7.031   2.637
 5366TIP3    H216044   3.808   7.161   2.715
 5367TIP3   OH216045   2.810   7.076   2.817
 5367TIP3    H116046   2.811   6.984   2.783
 5367TIP3    H216047   2.848   7.060   2.907
 5368TIP3   OH216048   3.321   6.745   2.666
 5368TIP3    H116049   3.386   6.672   2.663
 5368TIP3    H216050   3.281   6.734   2.577
 5369TIP3   OH216051   3.332   6.990   2.793
 5369TIP3    H116052   3.362   6.915   2.738
 5369TIP3    H216053   3.239   6.965   2.802
 5370TIP3   OH216054   2.103   7.525   1.161
 5370TIP3    H116055   2.180   7.571   1.122
 5370TIP3    H216056   2.091   7.449   1.101
 5371TIP3   OH216057   3.967   8.147   2.369
 5371TIP3    H116058   3.892   8.130   2.431
 5371TIP3    H216059   4.011   8.221   2.412
 5372TIP3   OH216060   3.745   7.634   1.023
 5372TIP3    H116061   3.817   7.691   0.991
 5372TIP3    H216062   3.789   7.593   1.101
 5373TIP3   OH216063   3.879   7.505   1.219
 5373TIP3    H116064   3.817   7.461   1.281
 5373TIP3    H216065   3.950   7.538   1.278
 5374TIP3   OH216066   3.921   7.893   1.644
 5374TIP3    H116067   3.985   7.835   1.600
 5374TIP3    H216068   3.928   7.976   1.594
 5375TIP3   OH216069   3.826   7.417   0.871
 5375TIP3    H116070   3.753   7.422   0.805
 5375TIP3    H216071   3.797   7.489   0.930
 5376TIP3   OH216072   3.686   7.093   0.821
 5376TIP3    H116073   3.678   7.122   0.728
 5376TIP3    H216074   3.660   6.998   0.813
 5377TIP3   OH216075   3.695   7.362   1.364
 5377TIP3    H116076   3.703   7.266   1.353
 5377TIP3    H216077   3.681   7.371   1.461
 5378TIP3   OH216078   2.320   7.444   2.108
 5378TIP3    H116079   2.318   7.410   2.017
 5378TIP3    H216080   2.417   7.443   2.126
 5379TIP3   OH216081   3.981   7.785   2.222
 5379TIP3    H116082   4.055   7.720   2.211
 5379TIP3    H216083   4.008   7.857   2.162
 5380TIP3   OH216084   4.167   7.589   2.230
 5380TIP3    H116085   4.093   7.540   2.272
 5380TIP3    H216086   4.241   7.527   2.248
 5381TIP3   OH216087   3.630   6.827   0.807
 5381TIP3    H116088   3.705   6.790   0.857
 5381TIP3    H216089   3.559   6.762   0.819
 5382TIP3   OH216090   3.694   7.083   1.254
 5382TIP3    H116091   3.733   6.994   1.269
 5382TIP3    H216092   3.750   7.113   1.180
 5383TIP3   OH216093   3.851   7.252   1.752
 5383TIP3    H116094   3.937   7.277   1.710
 5383TIP3    H216095   3.868   7.289   1.841
 5384TIP3   OH216096   3.924   7.398   1.982
 5384TIP3    H116097   3.847   7.434   2.030
 5384TIP3    H216098   3.958   7.479   1.937
 5385TIP3   OH216099   2.543   7.123   2.784
 5385TIP3    H116100   2.640   7.116   2.788
 5385TIP3    H216101   2.517   7.036   2.821
 5386TIP3   OH216102   4.372   6.992   2.536
 5386TIP3    H116103   4.434   6.927   2.496
 5386TIP3    H216104   4.343   7.043   2.458
 5387TIP3   OH216105   3.798   6.833   1.296
 5387TIP3    H116106   3.847   6.814   1.378
 5387TIP3    H216107   3.738   6.755   1.293
 5388TIP3   OH216108   2.498   6.811   2.103
 5388TIP3    H116109   2.562   6.741   2.127
 5388TIP3    H216110   2.555   6.890   2.106
 5389TIP3   OH216111   2.301   7.085   2.184
 5389TIP3    H116112   2.354   7.096   2.103
 5389TIP3    H216113   2.322   7.166   2.233
 5390TIP3   OH216114   4.241   7.126   2.338
 5390TIP3    H116115   4.154   7.168   2.356
 5390TIP3    H216116   4.211   7.051   2.283
 5391TIP3   OH216117   3.879   6.762   0.932
 5391TIP3    H116118   3.913   6.692   0.872
 5391TIP3    H216119   3.947   6.832   0.923
 5392TIP3   OH216120   2.505   6.682   2.504
 5392TIP3    H116121   2.455   6.667   2.585
 5392TIP3    H216122   2.434   6.713   2.444
 5393TIP3   OH216123   4.143   6.887   2.223
 5393TIP3    H116124   4.052   6.870   2.192
 5393TIP3    H216125   4.181   6.796   2.215
 5394TIP3   OH216126   3.334   6.798   1.830
 5394TIP3    H116127   3.303   6.730   1.894
 5394TIP3    H216128   3.418   6.758   1.798
 5395TIP3   OH216129   3.867   6.692   1.750
 5395TIP3    H116130   3.903   6.739   1.671
 5395TIP3    H216131   3.771   6.704   1.739
 5396TIP3   OH216132   3.963   6.785   1.512
 5396TIP3    H116133   4.037   6.732   1.473
 5396TIP3    H216134   3.998   6.876   1.496
 5397TIP3   OH216135   2.399   6.414   1.533
 5397TIP3    H116136   2.439   6.445   1.450
 5397TIP3    H216137   2.309   6.449   1.524
 5398TIP3   OH216138   3.029   6.557   1.749
 5398TIP3    H116139   3.088   6.595   1.681
 5398TIP3    H216140   3.078   6.580   1.831
 5399TIP3   OH216141   3.584   6.698   1.723
 5399TIP3    H116142   3.588   6.655   1.636
 5399TIP3    H216143   3.571   6.619   1.781
 5400TIP3   OH216144   3.617   6.619   1.287
 5400TIP3    H116145   3.529   6.660   1.300
 5400TIP3    H216146   3.603   6.532   1.332
 5401TIP3   OH216147   2.504   6.535   1.274
 5401TIP3    H116148   2.549   6.474   1.212
 5401TIP3    H216149   2.578   6.591   1.305
 5402TIP3   OH216150   3.008   6.723   1.371
 5402TIP3    H116151   3.072   6.676   1.427
 5402TIP3    H216152   3.033   6.815   1.394
 5403TIP3   OH216153   2.806   6.802   2.754
 5403TIP3    H116154   2.770   6.727   2.804
 5403TIP3    H216155   2.901   6.795   2.777
 5404TIP3   OH216156   3.066   6.794   2.866
 5404TIP3    H116157   3.139   6.748   2.820
 5404TIP3    H216158   3.045   6.728   2.936
 5405TIP3   OH216159   3.883   6.861   2.657
 5405TIP3    H116160   3.898   6.826   2.748
 5405TIP3    H216161   3.972   6.851   2.617
 5406TIP3   OH216162   5.076   7.772   0.923
 5406TIP3    H116163   5.051   7.861   0.892
 5406TIP3    H216164   5.010   7.718   0.876
 5407TIP3   OH216165   5.085   7.781   1.298
 5407TIP3    H116166   5.120   7.754   1.385
 5407TIP3    H216167   5.045   7.699   1.266
 5408TIP3   OH216168   4.378   7.673   1.664
 5408TIP3    H116169   4.411   7.605   1.725
 5408TIP3    H216170   4.457   7.729   1.655
 5409TIP3   OH216171   5.302   8.082   0.985
 5409TIP3    H116172   5.309   8.002   1.039
 5409TIP3    H216173   5.360   8.143   1.033
 5410TIP3   OH216174   4.415   8.021   1.469
 5410TIP3    H116175   4.383   7.936   1.434
 5410TIP3    H216176   4.496   8.036   1.415
 5411TIP3   OH216177   4.061   7.283   1.165
 5411TIP3    H116178   4.014   7.366   1.183
 5411TIP3    H216179   3.990   7.232   1.122
 5412TIP3   OH216180   4.114   7.573   1.347
 5412TIP3    H116181   4.163   7.494   1.378
 5412TIP3    H216182   4.184   7.625   1.305
 5413TIP3   OH216183   4.898   7.995   1.338
 5413TIP3    H116184   4.947   7.918   1.305
 5413TIP3    H216185   4.975   8.050   1.366
 5414TIP3   OH216186   5.896   7.322   1.346
 5414TIP3    H116187   5.926   7.407   1.385
 5414TIP3    H216188   5.919   7.336   1.252
 5415TIP3   OH216189   5.292   7.502   1.376
 5415TIP3    H116190   5.339   7.418   1.394
 5415TIP3    H216191   5.264   7.488   1.284
 5416TIP3   OH216192   4.637   7.166   1.339
 5416TIP3    H116193   4.615   7.238   1.276
 5416TIP3    H216194   4.589   7.092   1.295
 5417TIP3   OH216195   5.326   7.261   0.956
 5417TIP3    H116196   5.398   7.245   1.021
 5417TIP3    H216197   5.379   7.288   0.879
 5418TIP3   OH216198   4.265   7.367   1.448
 5418TIP3    H116199   4.349   7.348   1.496
 5418TIP3    H216200   4.279   7.313   1.368
 5419TIP3   OH216201   4.704   7.565   1.246
 5419TIP3    H116202   4.798   7.541   1.255
 5419TIP3    H216203   4.665   7.482   1.212
 5420TIP3   OH216204   5.970   7.534   1.515
 5420TIP3    H116205   5.885   7.580   1.498
 5420TIP3    H216206   5.994   7.571   1.602
 5421TIP3   OH216207   4.629   7.150   1.776
 5421TIP3    H116208   4.570   7.186   1.707
 5421TIP3    H216209   4.576   7.167   1.856
 5422TIP3   OH216210   4.960   7.974   0.746
 5422TIP3    H116211   4.874   7.929   0.733
 5422TIP3    H216212   4.928   8.054   0.791
 5423TIP3   OH216213   4.733   7.930   1.567
 5423TIP3    H116214   4.668   7.996   1.598
 5423TIP3    H216215   4.768   7.975   1.487
 5424TIP3   OH216216   5.529   7.267   1.138
 5424TIP3    H116217   5.524   7.214   1.218
 5424TIP3    H216218   5.583   7.343   1.167
 5425TIP3   OH216219   4.502   7.264   1.558
 5425TIP3    H116220   4.563   7.337   1.581
 5425TIP3    H216221   4.551   7.224   1.483
 5426TIP3   OH216222   4.561   8.144   1.676
 5426TIP3    H116223   4.516   8.133   1.589
 5426TIP3    H216224   4.482   8.141   1.734
 5427TIP3   OH216225   3.956   7.775   0.915
 5427TIP3    H116226   3.915   7.794   0.829
 5427TIP3    H216227   3.973   7.865   0.944
 5428TIP3   OH216228   5.689   7.223   1.510
 5428TIP3    H116229   5.602   7.247   1.473
 5428TIP3    H216230   5.751   7.254   1.441
 5429TIP3   OH216231   4.989   6.862   1.501
 5429TIP3    H116232   4.965   6.768   1.512
 5429TIP3    H216233   4.911   6.905   1.542
 5430TIP3   OH216234   5.615   8.235   1.490
 5430TIP3    H116235   5.603   8.157   1.433
 5430TIP3    H216236   5.646   8.303   1.426
 5431TIP3   OH216237   4.921   7.632   0.740
 5431TIP3    H116238   4.836   7.681   0.733
 5431TIP3    H216239   4.948   7.635   0.647
 5432TIP3   OH216240   5.815   7.872   1.331
 5432TIP3    H116241   5.731   7.923   1.339
 5432TIP3    H216242   5.843   7.898   1.241
 5433TIP3   OH216243   5.262   7.722   0.727
 5433TIP3    H116244   5.208   7.743   0.806
 5433TIP3    H216245   5.346   7.692   0.769
 5434TIP3   OH216246   5.496   7.749   1.634
 5434TIP3    H116247   5.495   7.834   1.684
 5434TIP3    H216248   5.409   7.755   1.588
 5435TIP3   OH216249   4.497   7.710   1.128
 5435TIP3    H116250   4.457   7.650   1.061
 5435TIP3    H216251   4.574   7.658   1.159
 5436TIP3   OH216252   4.635   8.077   1.331
 5436TIP3    H116253   4.598   8.073   1.241
 5436TIP3    H216254   4.732   8.073   1.315
 5437TIP3   OH216255   4.623   7.687   1.486
 5437TIP3    H116256   4.660   7.660   1.399
 5437TIP3    H216257   4.670   7.772   1.504
 5438TIP3   OH216258   4.811   8.141   1.811
 5438TIP3    H116259   4.775   8.229   1.832
 5438TIP3    H216260   4.738   8.107   1.757
 5439TIP3   OH216261   4.526   7.792   1.917
 5439TIP3    H116262   4.531   7.881   1.957
 5439TIP3    H216263   4.431   7.772   1.931
 5440TIP3   OH216264   4.363   7.550   0.940
 5440TIP3    H116265   4.294   7.591   0.883
 5440TIP3    H216266   4.328   7.461   0.951
 5441TIP3   OH216267   4.159   7.938   1.847
 5441TIP3    H116268   4.091   7.916   1.781
 5441TIP3    H216269   4.193   7.850   1.872
 5442TIP3   OH216270   5.751   7.712   1.811
 5442TIP3    H116271   5.668   7.725   1.763
 5442TIP3    H216272   5.766   7.616   1.800
 5443TIP3   OH216273   4.345   8.143   1.851
 5443TIP3    H116274   4.401   8.104   1.921
 5443TIP3    H216275   4.275   8.075   1.841
 5444TIP3   OH216276   4.746   6.944   1.621
 5444TIP3    H116277   4.658   6.913   1.591
 5444TIP3    H216278   4.719   7.025   1.668
 5445TIP3   OH216279   5.268   7.059   1.822
 5445TIP3    H116280   5.302   7.068   1.912
 5445TIP3    H216281   5.174   7.039   1.840
 5446TIP3   OH216282   5.509   7.486   1.731
 5446TIP3    H116283   5.462   7.486   1.817
 5446TIP3    H216284   5.492   7.575   1.696
 5447TIP3   OH216285   4.905   7.001   0.594
 5447TIP3    H116286   4.862   6.984   0.679
 5447TIP3    H216287   4.874   6.925   0.542
 5448TIP3   OH216288   4.677   7.464   1.635
 5448TIP3    H116289   4.627   7.483   1.717
 5448TIP3    H216290   4.659   7.545   1.583
 5449TIP3   OH216291   4.560   7.347   1.152
 5449TIP3    H116292   4.468   7.320   1.170
 5449TIP3    H216293   4.573   7.306   1.063
 5450TIP3   OH216294   5.049   7.436   0.880
 5450TIP3    H116295   4.992   7.503   0.837
 5450TIP3    H216296   5.123   7.433   0.818
 5451TIP3   OH216297   5.230   7.702   1.959
 5451TIP3    H116298   5.208   7.634   2.026
 5451TIP3    H216299   5.322   7.723   1.984
 5452TIP3   OH216300   5.210   7.460   1.117
 5452TIP3    H116301   5.147   7.490   1.049
 5452TIP3    H216302   5.245   7.381   1.071
 5453TIP3   OH216303   4.498   7.488   1.845
 5453TIP3    H116304   4.525   7.552   1.912
 5453TIP3    H216305   4.486   7.406   1.898
 5454TIP3   OH216306   4.530   6.937   0.578
 5454TIP3    H116307   4.523   6.951   0.674
 5454TIP3    H216308   4.494   7.019   0.543
 5455TIP3   OH216309   4.088   7.009   1.431
 5455TIP3    H116310   4.166   7.041   1.481
 5455TIP3    H216311   4.124   6.980   1.346
 5456TIP3   OH216312   4.056   6.990   0.946
 5456TIP3    H116313   4.104   7.025   0.868
 5456TIP3    H216314   3.995   7.065   0.964
 5457TIP3   OH216315   5.218   7.703   1.538
 5457TIP3    H116316   5.251   7.631   1.480
 5457TIP3    H216317   5.186   7.650   1.614
 5458TIP3   OH216318   4.894   7.164   1.212
 5458TIP3    H116319   4.811   7.165   1.264
 5458TIP3    H216320   4.961   7.165   1.282
 5459TIP3   OH216321   4.322   7.225   1.220
 5459TIP3    H116322   4.228   7.233   1.191
 5459TIP3    H216323   4.344   7.133   1.197
 5460TIP3   OH216324   4.589   7.222   0.911
 5460TIP3    H116325   4.684   7.233   0.889
 5460TIP3    H216326   4.543   7.252   0.830
 5461TIP3   OH216327   5.384   7.242   1.418
 5461TIP3    H116328   5.347   7.257   1.508
 5461TIP3    H216329   5.316   7.184   1.380
 5462TIP3   OH216330   4.421   7.272   0.698
 5462TIP3    H116331   4.342   7.226   0.666
 5462TIP3    H216332   4.486   7.249   0.629
 5463TIP3   OH216333   4.512   8.041   2.052
 5463TIP3    H116334   4.591   8.068   2.104
 5463TIP3    H216335   4.447   8.030   2.125
 5464TIP3   OH216336   4.970   7.497   1.308
 5464TIP3    H116337   5.046   7.460   1.259
 5464TIP3    H216338   4.978   7.453   1.395
 5465TIP3   OH216339   4.493   6.982   1.192
 5465TIP3    H116340   4.456   6.905   1.240
 5465TIP3    H216341   4.526   6.941   1.111
 5466TIP3   OH216342   4.946   7.395   1.603
 5466TIP3    H116343   4.856   7.432   1.613
 5466TIP3    H216344   5.002   7.459   1.650
 5467TIP3   OH216345   4.700   7.785   0.706
 5467TIP3    H116346   4.628   7.721   0.687
 5467TIP3    H216347   4.667   7.825   0.790
 5468TIP3   OH216348   5.582   8.013   1.328
 5468TIP3    H116349   5.610   8.063   1.247
 5468TIP3    H216350   5.497   7.973   1.299
 5469TIP3   OH216351   5.094   8.124   1.692
 5469TIP3    H116352   5.127   8.075   1.768
 5469TIP3    H216353   5.011   8.161   1.727
 5470TIP3   OH216354   4.358   7.764   1.360
 5470TIP3    H116355   4.407   7.754   1.275
 5470TIP3    H216356   4.418   7.720   1.422
 5471TIP3   OH216357   4.263   7.718   1.986
 5471TIP3    H116358   4.277   7.703   2.081
 5471TIP3    H216359   4.191   7.655   1.967
 5472TIP3   OH216360   4.990   7.829   2.009
 5472TIP3    H116361   4.925   7.780   1.956
 5472TIP3    H216362   5.075   7.796   1.973
 5473TIP3   OH216363   5.874   8.272   1.580
 5473TIP3    H116364   5.777   8.286   1.568
 5473TIP3    H216365   5.900   8.259   1.486
 5474TIP3   OH216366   5.349   7.888   1.232
 5474TIP3    H116367   5.256   7.864   1.250
 5474TIP3    H216368   5.383   7.804   1.195
 5475TIP3   OH216369   4.052   7.405   0.712
 5475TIP3    H116370   4.094   7.491   0.729
 5475TIP3    H216371   3.971   7.413   0.767
 5476TIP3   OH216372   4.618   7.881   0.944
 5476TIP3    H116373   4.586   7.969   0.967
 5476TIP3    H216374   4.582   7.827   1.018
 5477TIP3   OH216375   5.139   8.087   1.422
 5477TIP3    H116376   5.128   8.098   1.519
 5477TIP3    H216377   5.224   8.042   1.415
 5478TIP3   OH216378   4.467   7.231   1.989
 5478TIP3    H116379   4.370   7.233   2.000
 5478TIP3    H216380   4.494   7.174   2.063
 5479TIP3   OH216381   4.162   7.651   0.783
 5479TIP3    H116382   4.095   7.689   0.843
 5479TIP3    H216383   4.176   7.726   0.721
 5480TIP3   OH216384   5.305   7.295   1.676
 5480TIP3    H116385   5.386   7.338   1.709
 5480TIP3    H216386   5.296   7.216   1.732
 5481TIP3   OH216387   5.172   7.051   0.847
 5481TIP3    H116388   5.144   7.079   0.759
 5481TIP3    H216389   5.227   7.126   0.878
 5482TIP3   OH216390   4.871   7.229   0.943
 5482TIP3    H116391   4.937   7.299   0.924
 5482TIP3    H216392   4.879   7.220   1.040
 5483TIP3   OH216393   5.142   7.544   1.746
 5483TIP3    H116394   5.169   7.598   1.824
 5483TIP3    H216395   5.196   7.464   1.757
 5484TIP3   OH216396   5.015   6.948   1.045
 5484TIP3    H116397   5.002   7.029   1.098
 5484TIP3    H216398   5.076   6.982   0.975
 5485TIP3   OH216399   4.529   6.957   0.853
 5485TIP3    H116400   4.533   7.050   0.884
 5485TIP3    H216401   4.625   6.937   0.851
 5486TIP3   OH216402   5.779   7.448   1.733
 5486TIP3    H116403   5.681   7.442   1.733
 5486TIP3    H216404   5.799   7.411   1.646
 5487TIP3   OH216405   5.436   7.644   1.128
 5487TIP3    H116406   5.362   7.581   1.129
 5487TIP3    H216407   5.507   7.592   1.172
 5488TIP3   OH216408   4.161   7.865   0.600
 5488TIP3    H116409   4.186   7.956   0.622
 5488TIP3    H216410   4.155   7.873   0.504
 5489TIP3   OH216411   4.099   7.140   0.719
 5489TIP3    H116412   4.094   7.237   0.724
 5489TIP3    H216413   4.015   7.118   0.677
 5490TIP3   OH216414   4.481   6.864   1.591
 5490TIP3    H116415   4.450   6.830   1.505
 5490TIP3    H216416   4.470   6.786   1.649
 5491TIP3   OH216417   4.308   8.010   2.232
 5491TIP3    H116418   4.329   7.914   2.239
 5491TIP3    H216419   4.218   8.006   2.192
 5492TIP3   OH216420   4.930   8.093   2.051
 5492TIP3    H116421   4.896   8.108   1.960
 5492TIP3    H216422   4.966   8.002   2.042
 5493TIP3   OH216423   5.403   8.119   1.625
 5493TIP3    H116424   5.473   8.173   1.583
 5493TIP3    H216425   5.328   8.179   1.620
 5494TIP3   OH216426   4.430   7.760   2.232
 5494TIP3    H116427   4.509   7.712   2.205
 5494TIP3    H216428   4.458   7.795   2.320
 5495TIP3   OH216429   4.511   7.583   0.678
 5495TIP3    H116430   4.465   7.546   0.755
 5495TIP3    H216431   4.532   7.504   0.627
 5496TIP3   OH216432   4.762   7.649   1.889
 5496TIP3    H116433   4.684   7.708   1.891
 5496TIP3    H216434   4.812   7.686   1.812
 5497TIP3   OH216435   5.282   8.042   2.022
 5497TIP3    H116436   5.365   8.021   1.977
 5497TIP3    H216437   5.282   7.979   2.096
 5498TIP3   OH216438   4.888   7.441   2.013
 5498TIP3    H116439   4.885   7.363   1.955
 5498TIP3    H216440   4.843   7.509   1.957
 5499TIP3   OH216441   4.888   7.226   1.824
 5499TIP3    H116442   4.915   7.270   1.741
 5499TIP3    H216443   4.794   7.204   1.805
 5500TIP3   OH216444   4.908   7.765   1.697
 5500TIP3    H116445   4.992   7.774   1.649
 5500TIP3    H216446   4.852   7.831   1.652
 5501TIP3   OH216447   5.492   7.733   2.070
 5501TIP3    H116448   5.550   7.660   2.096
 5501TIP3    H216449   5.556   7.799   2.038
 5502TIP3   OH216450   5.536   7.976   1.811
 5502TIP3    H116451   5.479   8.031   1.753
 5502TIP3    H216452   5.624   7.999   1.773
 5503TIP3   OH216453   4.765   7.545   2.249
 5503TIP3    H116454   4.696   7.476   2.264
 5503TIP3    H216455   4.797   7.521   2.159
 5504TIP3   OH216456   5.014   6.987   1.886
 5504TIP3    H116457   4.962   7.068   1.867
 5504TIP3    H216458   4.945   6.918   1.878
 5505TIP3   OH216459   5.147   7.488   2.108
 5505TIP3    H116460   5.128   7.475   2.202
 5505TIP3    H216461   5.058   7.468   2.072
 5506TIP3   OH216462   5.384   7.432   1.966
 5506TIP3    H116463   5.307   7.442   2.026
 5506TIP3    H216464   5.453   7.399   2.027
 5507TIP3   OH216465   5.614   7.352   2.134
 5507TIP3    H116466   5.616   7.283   2.201
 5507TIP3    H216467   5.606   7.431   2.191
 5508TIP3   OH216468   4.601   7.327   2.302
 5508TIP3    H116469   4.604   7.234   2.270
 5508TIP3    H216470   4.639   7.316   2.392
 5509TIP3   OH216471   5.116   7.003   2.143
 5509TIP3    H116472   5.179   6.929   2.138
 5509TIP3    H216473   5.070   6.994   2.057
 5510TIP3   OH216474   5.181   7.215   2.306
 5510TIP3    H116475   5.157   7.144   2.242
 5510TIP3    H216476   5.102   7.273   2.302
 5511TIP3   OH216477   3.886   7.797   0.601
 5511TIP3    H116478   3.983   7.808   0.606
 5511TIP3    H216479   3.877   7.701   0.582
 5512TIP3   OH216480   5.763   8.402   1.856
 5512TIP3    H116481   5.689   8.387   1.918
 5512TIP3    H216482   5.808   8.478   1.896
 5513TIP3   OH216483   5.720   8.147   1.136
 5513TIP3    H116484   5.781   8.090   1.085
 5513TIP3    H216485   5.717   8.229   1.085
 5514TIP3   OH216486   5.471   7.611   0.855
 5514TIP3    H116487   5.500   7.519   0.849
 5514TIP3    H216488   5.475   7.629   0.951
 5515TIP3   OH216489   4.115   7.700   1.597
 5515TIP3    H116490   4.112   7.663   1.507
 5515TIP3    H216491   4.212   7.699   1.613
 5516TIP3   OH216492   5.779   8.042   1.707
 5516TIP3    H116493   5.855   7.979   1.698
 5516TIP3    H216494   5.807   8.116   1.650
 5517TIP3   OH216495   5.969   7.847   1.721
 5517TIP3    H116496   5.892   7.799   1.761
 5517TIP3    H216497   6.039   7.780   1.737
 5518TIP3   OH216498   5.479   7.326   0.732
 5518TIP3    H116499   5.521   7.238   0.753
 5518TIP3    H216500   5.553   7.369   0.686
 5519TIP3   OH216501   5.648   7.505   1.241
 5519TIP3    H116502   5.733   7.531   1.200
 5519TIP3    H216503   5.662   7.543   1.330
 5520TIP3   OH216504   5.719   7.654   1.471
 5520TIP3    H116505   5.642   7.689   1.519
 5520TIP3    H216506   5.750   7.733   1.423
 5521TIP3   OH216507   4.335   7.379   2.272
 5521TIP3    H116508   4.433   7.374   2.275
 5521TIP3    H216509   4.312   7.292   2.309
 5522TIP3   OH216510   6.180   7.252   2.029
 5522TIP3    H116511   6.235   7.184   1.984
 5522TIP3    H216512   6.137   7.295   1.952
 5523TIP3   OH216513   5.582   7.088   0.795
 5523TIP3    H116514   5.642   7.064   0.868
 5523TIP3    H216515   5.529   7.005   0.788
 5524TIP3   OH216516   4.297   7.073   1.604
 5524TIP3    H116517   4.358   6.997   1.610
 5524TIP3    H216518   4.360   7.147   1.593
 5525TIP3   OH216519   4.096   7.346   1.672
 5525TIP3    H116520   4.146   7.340   1.588
 5525TIP3    H216521   4.129   7.429   1.708
 5526TIP3   OH216522   6.037   7.380   1.832
 5526TIP3    H116523   5.952   7.424   1.850
 5526TIP3    H216524   6.004   7.302   1.782
 5527TIP3   OH216525   4.083   6.856   1.179
 5527TIP3    H116526   3.989   6.845   1.201
 5527TIP3    H216527   4.078   6.911   1.098
 5528TIP3   OH216528   4.304   6.931   1.989
 5528TIP3    H116529   4.251   6.923   2.070
 5528TIP3    H216530   4.238   6.967   1.927
 5529TIP3   OH216531   5.939   7.151   1.704
 5529TIP3    H116532   5.849   7.147   1.668
 5529TIP3    H216533   5.964   7.056   1.706
 5530TIP3   OH216534   5.149   7.064   1.337
 5530TIP3    H116535   5.106   6.991   1.384
 5530TIP3    H216536   5.218   7.020   1.285
 5531TIP3   OH216537   5.661   6.949   1.245
 5531TIP3    H116538   5.702   6.994   1.168
 5531TIP3    H216539   5.566   6.964   1.228
 5532TIP3   OH216540   5.762   7.039   1.008
 5532TIP3    H116541   5.837   6.986   0.973
 5532TIP3    H216542   5.793   7.129   0.984
 5533TIP3   OH216543   4.391   6.771   1.345
 5533TIP3    H116544   4.298   6.739   1.347
 5533TIP3    H216545   4.438   6.685   1.339
 5534TIP3   OH216546   4.192   6.643   0.998
 5534TIP3    H116547   4.214   6.697   0.920
 5534TIP3    H216548   4.159   6.710   1.060
 5535TIP3   OH216549   4.841   6.798   1.226
 5535TIP3    H116550   4.895   6.847   1.162
 5535TIP3    H216551   4.858   6.847   1.308
 5536TIP3   OH216552   5.380   6.955   1.202
 5536TIP3    H116553   5.384   6.920   1.112
 5536TIP3    H216554   5.368   6.874   1.256
 5537TIP3   OH216555   5.412   6.878   0.818
 5537TIP3    H116556   5.323   6.906   0.795
 5537TIP3    H216557   5.399   6.785   0.846
 5538TIP3   OH216558   4.297   6.802   0.763
 5538TIP3    H116559   4.340   6.740   0.701
 5538TIP3    H216560   4.373   6.851   0.798
 5539TIP3   OH216561   4.806   6.976   0.856
 5539TIP3    H116562   4.868   6.928   0.913
 5539TIP3    H216563   4.830   7.068   0.879
 5540TIP3   OH216564   4.599   7.052   2.239
 5540TIP3    H116565   4.563   6.981   2.294
 5540TIP3    H216566   4.693   7.051   2.267
 5541TIP3   OH216567   4.849   7.049   2.357
 5541TIP3    H116568   4.935   7.020   2.322
 5541TIP3    H216569   4.833   6.981   2.426
 5542TIP3   OH216570   6.172   7.926   1.140
 5542TIP3    H116571   6.226   7.881   1.207
 5542TIP3    H216572   6.241   7.956   1.076
 5543TIP3   OH216573   6.053   7.621   0.948
 5543TIP3    H116574   6.144   7.595   0.973
 5543TIP3    H216575   6.041   7.578   0.863
 5544TIP3   OH216576   6.414   7.404   1.269
 5544TIP3    H116577   6.355   7.437   1.199
 5544TIP3    H216578   6.358   7.419   1.348
 5545TIP3   OH216579   6.300   7.508   1.030
 5545TIP3    H116580   6.351   7.588   1.059
 5545TIP3    H216581   6.362   7.468   0.968
 5546TIP3   OH216582   6.777   7.125   0.991
 5546TIP3    H116583   6.764   7.029   1.005
 5546TIP3    H216584   6.692   7.160   1.024
 5547TIP3   OH216585   6.281   8.058   1.407
 5547TIP3    H116586   6.264   8.145   1.446
 5547TIP3    H216587   6.192   8.019   1.417
 5548TIP3   OH216588   5.945   8.190   1.334
 5548TIP3    H116589   5.875   8.174   1.268
 5548TIP3    H216590   5.975   8.101   1.357
 5549TIP3   OH216591   6.532   7.210   1.107
 5549TIP3    H116592   6.445   7.172   1.081
 5549TIP3    H216593   6.501   7.277   1.170
 5550TIP3   OH216594   7.049   7.281   1.331
 5550TIP3    H116595   7.084   7.313   1.415
 5550TIP3    H216596   6.953   7.271   1.352
 5551TIP3   OH216597   6.451   7.713   1.119
 5551TIP3    H116598   6.408   7.743   1.201
 5551TIP3    H216599   6.495   7.793   1.088
 5552TIP3   OH216600   6.310   7.753   1.349
 5552TIP3    H116601   6.290   7.817   1.419
 5552TIP3    H216602   6.293   7.668   1.394
 5553TIP3   OH216603   5.888   7.263   0.919
 5553TIP3    H116604   5.957   7.294   0.981
 5553TIP3    H216605   5.936   7.253   0.836
 5554TIP3   OH216606   6.037   7.964   1.478
 5554TIP3    H116607   6.043   7.944   1.573
 5554TIP3    H216608   5.961   7.910   1.452
 5555TIP3   OH216609   6.262   7.489   1.481
 5555TIP3    H116610   6.165   7.488   1.495
 5555TIP3    H216611   6.293   7.433   1.555
 5556TIP3   OH216612   6.273   7.124   1.089
 5556TIP3    H116613   6.238   7.087   1.005
 5556TIP3    H216614   6.270   7.044   1.147
 5557TIP3   OH216615   6.117   8.271   1.701
 5557TIP3    H116616   6.147   8.178   1.700
 5557TIP3    H216617   6.026   8.263   1.664
 5558TIP3   OH216618   6.235   8.019   1.712
 5558TIP3    H116619   6.304   7.953   1.703
 5558TIP3    H216620   6.250   8.051   1.804
 5559TIP3   OH216621   6.646   7.711   1.501
 5559TIP3    H116622   6.685   7.624   1.485
 5559TIP3    H216623   6.598   7.728   1.419
 5560TIP3   OH216624   6.662   7.508   1.280
 5560TIP3    H116625   6.637   7.536   1.190
 5560TIP3    H216626   6.578   7.467   1.307
 5561TIP3   OH216627   6.548   7.803   1.742
 5561TIP3    H116628   6.484   7.730   1.755
 5561TIP3    H216629   6.587   7.780   1.655
 5562TIP3   OH216630   6.782   7.250   1.388
 5562TIP3    H116631   6.727   7.321   1.352
 5562TIP3    H216632   6.724   7.172   1.374
 5563TIP3   OH216633   6.396   7.581   1.789
 5563TIP3    H116634   6.401   7.488   1.757
 5563TIP3    H216635   6.432   7.568   1.880
 5564TIP3   OH216636   6.906   7.247   1.634
 5564TIP3    H116637   6.978   7.181   1.623
 5564TIP3    H216638   6.857   7.236   1.550
 5565TIP3   OH216639   6.970   7.452   1.803
 5565TIP3    H116640   6.951   7.388   1.733
 5565TIP3    H216641   6.904   7.522   1.787
 5566TIP3   OH216642   5.912   7.949   1.079
 5566TIP3    H116643   5.921   7.900   0.997
 5566TIP3    H216644   6.007   7.952   1.107
 5567TIP3   OH216645   6.131   7.631   1.754
 5567TIP3    H116646   6.229   7.629   1.761
 5567TIP3    H216647   6.109   7.545   1.794
 5568TIP3   OH216648   6.088   7.330   1.095
 5568TIP3    H116649   6.147   7.252   1.103
 5568TIP3    H216650   6.154   7.400   1.079
 5569TIP3   OH216651   5.891   7.603   1.169
 5569TIP3    H116652   5.943   7.602   1.085
 5569TIP3    H216653   5.919   7.688   1.206
 5570TIP3   OH216654   6.095   7.176   1.476
 5570TIP3    H116655   6.048   7.186   1.561
 5570TIP3    H216656   6.032   7.217   1.415
 5571TIP3   OH216657   6.178   7.029   0.852
 5571TIP3    H116658   6.089   6.988   0.858
 5571TIP3    H216659   6.232   6.951   0.835
 5572TIP3   OH216660   6.396   7.311   1.721
 5572TIP3    H116661   6.359   7.243   1.780
 5572TIP3    H216662   6.490   7.307   1.748
 5573TIP3   OH216663   6.644   7.303   1.839
 5573TIP3    H116664   6.734   7.291   1.805
 5573TIP3    H216665   6.639   7.232   1.906
 5574TIP3   OH216666   1.830   0.491   5.746
 5574TIP3    H116667   1.800   0.420   5.806
 5574TIP3    H216668   1.857   0.560   5.808
 5575TIP3   OH216669   1.487   0.953   5.765
 5575TIP3    H116670   1.549   0.890   5.722
 5575TIP3    H216671   1.485   0.920   5.855
 5576TIP3   OH216672   2.443  -0.055   6.299
 5576TIP3    H116673   2.366  -0.004   6.267
 5576TIP3    H216674   2.491   0.011   6.351
 5577TIP3   OH216675   1.525   0.443   5.512
 5577TIP3    H116676   1.447   0.386   5.505
 5577TIP3    H216677   1.486   0.518   5.560
 5578TIP3   OH216678   1.899   0.747   5.919
 5578TIP3    H116679   1.805   0.742   5.946
 5578TIP3    H216680   1.897   0.829   5.866
 5579TIP3   OH216681   1.648   0.791   5.620
 5579TIP3    H116682   1.689   0.709   5.586
 5579TIP3    H216683   1.689   0.856   5.559
 5580TIP3   OH216684   1.764   0.575   5.491
 5580TIP3    H116685   1.689   0.514   5.477
 5580TIP3    H216686   1.803   0.537   5.572
 5581TIP3   OH216687   2.130   0.655   6.260
 5581TIP3    H116688   2.118   0.578   6.200
 5581TIP3    H216689   2.108   0.730   6.201
 5582TIP3   OH216690   2.329   0.296   6.107
 5582TIP3    H116691   2.245   0.346   6.110
 5582TIP3    H216692   2.357   0.316   6.015
 5583TIP3   OH216693   1.759   0.152   5.496
 5583TIP3    H116694   1.712   0.165   5.580
 5583TIP3    H216695   1.843   0.113   5.526
 5584TIP3   OH216696   1.644   0.762   6.014
 5584TIP3    H116697   1.641   0.848   6.060
 5584TIP3    H216698   1.650   0.698   6.088
 5585TIP3   OH216699   1.381   0.731   5.522
 5585TIP3    H116700   1.435   0.751   5.599
 5585TIP3    H216701   1.296   0.705   5.560
 5586TIP3   OH216702   1.924   0.593   4.905
 5586TIP3    H116703   1.933   0.690   4.895
 5586TIP3    H216704   2.018   0.565   4.894
 5587TIP3   OH216705   2.371   1.000   6.310
 5587TIP3    H116706   2.368   0.904   6.326
 5587TIP3    H216707   2.287   1.027   6.353
 5588TIP3   OH216708   1.505   0.816   6.396
 5588TIP3    H116709   1.494   0.899   6.447
 5588TIP3    H216710   1.435   0.761   6.436
 5589TIP3   OH216711   1.198   0.918   5.375
 5589TIP3    H116712   1.179   0.922   5.280
 5589TIP3    H216713   1.192   1.010   5.405
 5590TIP3   OH216714   1.439   0.813   5.028
 5590TIP3    H116715   1.502   0.745   4.996
 5590TIP3    H216716   1.470   0.827   5.120
 5591TIP3   OH216717   1.475   0.868   5.298
 5591TIP3    H116718   1.393   0.860   5.352
 5591TIP3    H216719   1.533   0.819   5.358
 5592TIP3   OH216720   2.264   0.120   6.579
 5592TIP3    H116721   2.185   0.177   6.572
 5592TIP3    H216722   2.226   0.033   6.561
 5593TIP3   OH216723   1.666   0.046   5.045
 5593TIP3    H116724   1.654   0.004   4.959
 5593TIP3    H216725   1.754   0.084   5.039
 5594TIP3   OH216726   2.061   1.349   6.403
 5594TIP3    H116727   2.058   1.373   6.309
 5594TIP3    H216728   2.145   1.392   6.430
 5595TIP3   OH216729   2.096   0.440   6.090
 5595TIP3    H116730   2.123   0.492   6.011
 5595TIP3    H216731   2.013   0.399   6.060
 5596TIP3   OH216732   1.377   0.400   5.215
 5596TIP3    H116733   1.325   0.478   5.243
 5596TIP3    H216734   1.381   0.350   5.299
 5597TIP3   OH216735   1.780   0.803   6.370
 5597TIP3    H116736   1.684   0.792   6.359
 5597TIP3    H216737   1.784   0.852   6.454
 5598TIP3   OH216738   2.176  -0.140   5.250
 5598TIP3    H116739   2.111  -0.195   5.201
 5598TIP3    H216740   2.150  -0.052   5.214
 5599TIP3   OH216741   2.381   0.715   6.341
 5599TIP3    H116742   2.283   0.708   6.335
 5599TIP3    H216743   2.405   0.684   6.251
 5600TIP3   OH216744   1.857   0.670   5.175
 5600TIP3    H116745   1.833   0.605   5.244
 5600TIP3    H216746   1.873   0.615   5.097
 5601TIP3   OH216747   1.279   0.885   6.245
 5601TIP3    H116748   1.304   0.957   6.184
 5601TIP3    H216749   1.362   0.868   6.291
 5602TIP3   OH216750   1.700   0.552   6.186
 5602TIP3    H116751   1.662   0.477   6.235
 5602TIP3    H216752   1.749   0.504   6.118
 5603TIP3   OH216753   1.615   0.406   5.072
 5603TIP3    H116754   1.674   0.371   5.143
 5603TIP3    H216755   1.530   0.402   5.122
 5604TIP3   OH216756   1.893   1.044   6.244
 5604TIP3    H116757   1.818   0.981   6.241
 5604TIP3    H216758   1.873   1.102   6.168
 5605TIP3   OH216759   1.954   0.872   4.892
 5605TIP3    H116760   1.993   0.948   4.847
 5605TIP3    H216761   1.873   0.914   4.928
 5606TIP3   OH216762   1.779   0.323   5.273
 5606TIP3    H116763   1.758   0.268   5.351
 5606TIP3    H216764   1.877   0.321   5.275
 5607TIP3   OH216765   1.194   0.596   5.279
 5607TIP3    H116766   1.146   0.599   5.363
 5607TIP3    H216767   1.213   0.690   5.265
 5608TIP3   OH216768   1.914   1.016   5.835
 5608TIP3    H116769   1.870   1.062   5.760
 5608TIP3    H216770   2.008   1.031   5.812
 5609TIP3   OH216771   1.146   0.560   4.996
 5609TIP3    H116772   1.156   0.532   5.089
 5609TIP3    H216773   1.224   0.519   4.954
 5610TIP3   OH216774   1.804   0.914   6.630
 5610TIP3    H116775   1.849   0.834   6.662
 5610TIP3    H216776   1.875   0.980   6.639
 5611TIP3   OH216777   1.585   0.620   4.897
 5611TIP3    H116778   1.621   0.555   4.961
 5611TIP3    H216779   1.649   0.615   4.823
 5612TIP3   OH216780   1.920   0.553   6.413
 5612TIP3    H116781   2.000   0.590   6.371
 5612TIP3    H216782   1.855   0.619   6.380
 5613TIP3   OH216783   1.920   0.124   4.931
 5613TIP3    H116784   1.900   0.085   4.844
 5613TIP3    H216785   1.883   0.214   4.916
 5614TIP3   OH216786   2.080   0.381   6.565
 5614TIP3    H116787   2.022   0.440   6.513
 5614TIP3    H216788   2.167   0.409   6.529
 5615TIP3   OH216789   0.913   0.876   5.157
 5615TIP3    H116790   1.009   0.858   5.151
 5615TIP3    H216791   0.901   0.927   5.074
 5616TIP3   OH216792   2.173   1.094   5.796
 5616TIP3    H116793   2.190   1.129   5.885
 5616TIP3    H216794   2.225   1.153   5.740
 5617TIP3   OH216795   2.197   1.123   6.074
 5617TIP3    H116796   2.153   1.035   6.075
 5617TIP3    H216797   2.264   1.108   6.143
 5618TIP3   OH216798   2.241   0.799   6.651
 5618TIP3    H116799   2.169   0.808   6.717
 5618TIP3    H216800   2.283   0.887   6.656
 5619TIP3   OH216801   2.057   0.310   5.266
 5619TIP3    H116802   2.121   0.378   5.236
 5619TIP3    H216803   2.102   0.275   5.345
 5620TIP3   OH216804   2.183   0.181   5.471
 5620TIP3    H116805   2.115   0.144   5.531
 5620TIP3    H216806   2.246   0.225   5.532
 5621TIP3   OH216807   2.247   0.577   5.904
 5621TIP3    H116808   2.293   0.507   5.854
 5621TIP3    H216809   2.242   0.650   5.839
 5622TIP3   OH216810   2.069   0.875   6.100
 5622TIP3    H116811   1.998   0.917   6.153
 5622TIP3    H216812   2.017   0.828   6.031
 5623TIP3   OH216813   2.115   0.090   5.115
 5623TIP3    H116814   2.044   0.098   5.047
 5623TIP3    H216815   2.091   0.165   5.173
 5624TIP3   OH216816   2.001  -0.249   5.061
 5624TIP3    H116817   1.954  -0.175   5.021
 5624TIP3    H216818   1.939  -0.322   5.044
 5625TIP3   OH216819   1.995   0.045   5.627
 5625TIP3    H116820   2.015  -0.050   5.627
 5625TIP3    H216821   1.980   0.063   5.721
 5626TIP3   OH216822   2.313   0.470   6.464
 5626TIP3    H116823   2.385   0.404   6.453
 5626TIP3    H216824   2.342   0.543   6.406
 5627TIP3   OH216825   2.479   0.258   6.476
 5627TIP3    H116826   2.403   0.212   6.518
 5627TIP3    H216827   2.551   0.198   6.505
 5628TIP3   OH216828   2.167  -0.086   6.023
 5628TIP3    H116829   2.244  -0.051   5.974
 5628TIP3    H216830   2.168  -0.028   6.101
 5629TIP3   OH216831   2.203   0.088   6.239
 5629TIP3    H116832   2.115   0.126   6.258
 5629TIP3    H216833   2.249   0.164   6.197
 5630TIP3   OH216834   1.744   0.977   5.444
 5630TIP3    H116835   1.797   0.962   5.363
 5630TIP3    H216836   1.800   1.039   5.493
 5631TIP3   OH216837   1.476   1.059   6.525
 5631TIP3    H116838   1.518   1.054   6.614
 5631TIP3    H216839   1.541   1.112   6.475
 5632TIP3   OH216840   1.658   1.204   6.383
 5632TIP3    H116841   1.728   1.157   6.336
 5632TIP3    H216842   1.710   1.262   6.443
 5633TIP3   OH216843   1.371   1.074   6.059
 5633TIP3    H116844   1.296   1.091   5.999
 5633TIP3    H216845   1.385   1.163   6.098
 5634TIP3   OH216846   1.638   1.016   6.114
 5634TIP3    H116847   1.543   1.033   6.098
 5634TIP3    H216848   1.679   1.094   6.073
 5635TIP3   OH216849   1.842   1.203   6.027
 5635TIP3    H116850   1.828   1.286   5.978
 5635TIP3    H216851   1.868   1.141   5.955
 5636TIP3   OH216852   1.178   0.823   5.108
 5636TIP3    H116853   1.271   0.835   5.079
 5636TIP3    H216854   1.155   0.742   5.059
 5637TIP3   OH216855   1.896   0.936   5.217
 5637TIP3    H116856   1.887   0.838   5.206
 5637TIP3    H216857   1.850   0.967   5.136
 5638TIP3   OH216858   2.122   1.081   6.399
 5638TIP3    H116859   2.042   1.054   6.350
 5638TIP3    H216860   2.105   1.176   6.409
 5639TIP3   OH216861   3.388   0.453   5.169
 5639TIP3    H116862   3.359   0.544   5.148
 5639TIP3    H216863   3.311   0.403   5.136
 5640TIP3   OH216864   3.395   0.454   5.551
 5640TIP3    H116865   3.418   0.427   5.641
 5640TIP3    H216866   3.342   0.379   5.520
 5641TIP3   OH216867   2.683   0.350   5.922
 5641TIP3    H116868   2.735   0.280   5.965
 5641TIP3    H216869   2.753   0.397   5.874
 5642TIP3   OH216870   3.633   0.758   5.234
 5642TIP3    H116871   3.613   0.689   5.299
 5642TIP3    H216872   3.663   0.831   5.291
 5643TIP3   OH216873   2.663   0.767   5.648
 5643TIP3    H116874   2.650   0.669   5.651
 5643TIP3    H216875   2.759   0.770   5.630
 5644TIP3   OH216876   2.350  -0.034   5.441
 5644TIP3    H116877   2.300   0.049   5.447
 5644TIP3    H216878   2.289  -0.085   5.384
 5645TIP3   OH216879   2.417   0.267   5.596
 5645TIP3    H116880   2.465   0.184   5.618
 5645TIP3    H216881   2.472   0.306   5.526
 5646TIP3   OH216882   3.288   1.218   5.256
 5646TIP3    H116883   3.329   1.149   5.200
 5646TIP3    H216884   3.280   1.171   5.340
 5647TIP3   OH216885   3.181   0.683   5.601
 5647TIP3    H116886   3.214   0.606   5.551
 5647TIP3    H216887   3.267   0.724   5.625
 5648TIP3   OH216888   3.605   0.179   5.647
 5648TIP3    H116889   3.618   0.086   5.671
 5648TIP3    H216890   3.566   0.174   5.558
 5649TIP3   OH216891   2.913  -0.192   5.579
 5649TIP3    H116892   2.899  -0.110   5.526
 5649TIP3    H216893   2.831  -0.240   5.560
 5650TIP3   OH216894   3.595  -0.040   5.272
 5650TIP3    H116895   3.655  -0.091   5.330
 5650TIP3    H216896   3.644  -0.044   5.189
 5651TIP3   OH216897   2.547   0.043   5.691
 5651TIP3    H116898   2.638   0.044   5.729
 5651TIP3    H216899   2.560  -0.022   5.620
 5652TIP3   OH216900   3.009   0.246   5.521
 5652TIP3    H116901   3.101   0.212   5.524
 5652TIP3    H216902   2.962   0.177   5.470
 5653TIP3   OH216903   4.234   0.190   5.799
 5653TIP3    H116904   4.160   0.244   5.762
 5653TIP3    H216905   4.293   0.257   5.834
 5654TIP3   OH216906   3.283   0.675   5.034
 5654TIP3    H116907   3.232   0.652   4.955
 5654TIP3    H216908   3.236   0.756   5.063
 5655TIP3   OH216909   3.045   0.597   5.825
 5655TIP3    H116910   2.982   0.663   5.862
 5655TIP3    H216911   3.081   0.645   5.748
 5656TIP3   OH216912   2.801   0.006   5.772
 5656TIP3    H116913   2.878   0.044   5.818
 5656TIP3    H216914   2.838  -0.076   5.736
 5657TIP3   OH216915   2.873   0.788   5.928
 5657TIP3    H116916   2.846   0.874   5.891
 5657TIP3    H216917   2.793   0.767   5.982
 5658TIP3   OH216918   2.251   0.486   5.170
 5658TIP3    H116919   2.226   0.523   5.084
 5658TIP3    H216920   2.306   0.557   5.208
 5659TIP3   OH216921   3.699   1.001   5.399
 5659TIP3    H116922   3.609   0.992   5.439
 5659TIP3    H216923   3.690   1.088   5.354
 5660TIP3   OH216924   3.401   1.048   5.071
 5660TIP3    H116925   3.449   0.964   5.055
 5660TIP3    H216926   3.463   1.112   5.030
 5661TIP3   OH216927   3.543   0.831   4.984
 5661TIP3    H116928   3.492   0.755   4.956
 5661TIP3    H216929   3.584   0.798   5.067
 5662TIP3   OH216930   3.926   0.910   5.743
 5662TIP3    H116931   3.913   0.833   5.684
 5662TIP3    H216932   3.907   0.985   5.683
 5663TIP3   OH216933   3.219   0.310   5.000
 5663TIP3    H116934   3.134   0.359   4.987
 5663TIP3    H216935   3.254   0.307   4.910
 5664TIP3   OH216936   3.174   0.092   4.715
 5664TIP3    H116937   3.246   0.141   4.758
 5664TIP3    H216938   3.223   0.019   4.674
 5665TIP3   OH216939   4.123   0.555   5.591
 5665TIP3    H116940   4.037   0.604   5.593
 5665TIP3    H216941   4.152   0.576   5.500
 5666TIP3   OH216942   3.564   0.390   4.969
 5666TIP3    H116943   3.508   0.412   5.047
 5666TIP3    H216944   3.649   0.370   5.013
 5667TIP3   OH216945   3.798   0.427   5.891
 5667TIP3    H116946   3.792   0.510   5.941
 5667TIP3    H216947   3.711   0.427   5.846
 5668TIP3   OH216948   2.925   0.803   5.534
 5668TIP3    H116949   2.898   0.767   5.448
 5668TIP3    H216950   3.012   0.759   5.549
 5669TIP3   OH216951   2.935   0.347   5.762
 5669TIP3    H116952   2.959   0.319   5.670
 5669TIP3    H216953   2.976   0.436   5.766
 5670TIP3   OH216954   3.458   0.995   5.521
 5670TIP3    H116955   3.448   1.072   5.579
 5670TIP3    H216956   3.442   0.920   5.582
 5671TIP3   OH216957   3.074   0.911   6.070
 5671TIP3    H116958   3.012   0.972   6.117
 5671TIP3    H216959   3.009   0.857   6.020
 5672TIP3   OH216960   3.407   0.242   4.797
 5672TIP3    H116961   3.461   0.306   4.847
 5672TIP3    H216962   3.434   0.263   4.704
 5673TIP3   OH216963   2.825   0.467   6.180
 5673TIP3    H116964   2.829   0.555   6.221
 5673TIP3    H216965   2.729   0.451   6.182
 5674TIP3   OH216966   3.156   0.917   5.072
 5674TIP3    H116967   3.232   0.977   5.083
 5674TIP3    H216968   3.087   0.973   5.035
 5675TIP3   OH216969   2.870   1.076   6.160
 5675TIP3    H116970   2.832   1.077   6.070
 5675TIP3    H216971   2.791   1.051   6.214
 5676TIP3   OH216972   2.682   0.202   5.155
 5676TIP3    H116973   2.673   0.289   5.200
 5676TIP3    H216974   2.612   0.152   5.199
 5677TIP3   OH216975   3.721   0.851   4.396
 5677TIP3    H116976   3.729   0.948   4.381
 5677TIP3    H216977   3.814   0.823   4.384
 5678TIP3   OH216978   2.444   0.609   6.101
 5678TIP3    H116979   2.376   0.593   6.032
 5678TIP3    H216980   2.483   0.520   6.112
 5679TIP3   OH216981   2.297   0.804   5.737
 5679TIP3    H116982   2.393   0.805   5.725
 5679TIP3    H216983   2.280   0.888   5.781
 5680TIP3   OH216984   4.163   1.259   5.793
 5680TIP3    H116985   4.161   1.163   5.807
 5680TIP3    H216986   4.080   1.285   5.838
 5681TIP3   OH216987   3.265   1.040   5.924
 5681TIP3    H116988   3.264   1.132   5.957
 5681TIP3    H216989   3.194   0.999   5.979
 5682TIP3   OH216990   3.036   1.176   4.870
 5682TIP3    H116991   2.984   1.146   4.794
 5682TIP3    H216992   2.985   1.251   4.904
 5683TIP3   OH216993   2.470   1.018   5.263
 5683TIP3    H116994   2.513   1.006   5.350
 5683TIP3    H216995   2.424   0.932   5.254
 5684TIP3   OH216996   3.233   1.075   4.515
 5684TIP3    H116997   3.290   1.004   4.479
 5684TIP3    H216998   3.267   1.081   4.607
 5685TIP3   OH216999   3.286   1.118   4.785
 5685TIP3    H117000   3.197   1.131   4.824
 5685TIP3    H217001   3.332   1.073   4.857
 5686TIP3   OH217002   4.050   0.371   6.068
 5686TIP3    H117003   3.972   0.406   6.022
 5686TIP3    H217004   4.037   0.276   6.055
 5687TIP3   OH217005   2.647   0.793   6.083
 5687TIP3    H117006   2.693   0.786   6.169
 5687TIP3    H217007   2.574   0.728   6.093
 5688TIP3   OH217008   3.831   0.172   6.012
 5688TIP3    H117009   3.793   0.203   6.095
 5688TIP3    H217010   3.810   0.245   5.950
 5689TIP3   OH217011   3.486   0.280   4.541
 5689TIP3    H117012   3.446   0.263   4.454
 5689TIP3    H217013   3.563   0.335   4.517
 5690TIP3   OH217014   3.008   0.134   5.916
 5690TIP3    H117015   2.946   0.153   5.990
 5690TIP3    H217016   2.992   0.212   5.858
 5691TIP3   OH217017   2.870   0.018   5.414
 5691TIP3    H117018   2.773   0.017   5.420
 5691TIP3    H217019   2.883  -0.008   5.320
 5692TIP3   OH217020   3.351   0.115   5.139
 5692TIP3    H117021   3.302   0.185   5.092
 5692TIP3    H217022   3.415   0.086   5.072
 5693TIP3   OH217023   3.541   0.413   6.200
 5693TIP3    H117024   3.515   0.336   6.254
 5693TIP3    H217025   3.635   0.422   6.227
 5694TIP3   OH217026   3.494   0.178   5.396
 5694TIP3    H117027   3.435   0.220   5.331
 5694TIP3    H217028   3.518   0.097   5.344
 5695TIP3   OH217029   2.810   0.168   6.109
 5695TIP3    H117030   2.779   0.244   6.160
 5695TIP3    H217031   2.753   0.096   6.139
 5696TIP3   OH217032   2.440  -0.222   5.234
 5696TIP3    H117033   2.449  -0.225   5.137
 5696TIP3    H217034   2.346  -0.195   5.242
 5697TIP3   OH217035   3.523   0.384   5.798
 5697TIP3    H117036   3.559   0.313   5.741
 5697TIP3    H217037   3.494   0.330   5.875
 5698TIP3   OH217038   2.608  -0.112   5.459
 5698TIP3    H117039   2.516  -0.076   5.450
 5698TIP3    H217040   2.604  -0.177   5.387
 5699TIP3   OH217041   2.909  -0.092   5.166
 5699TIP3    H117042   2.994  -0.094   5.118
 5699TIP3    H217043   2.844  -0.094   5.093
 5700TIP3   OH217044   2.744  -0.117   4.939
 5700TIP3    H117045   2.662  -0.113   4.886
 5700TIP3    H217046   2.802  -0.063   4.881
 5701TIP3   OH217047   3.857   1.606   5.890
 5701TIP3    H117048   3.854   1.631   5.796
 5701TIP3    H217049   3.935   1.656   5.922
 5702TIP3   OH217050   2.813   0.716   6.310
 5702TIP3    H117051   2.891   0.748   6.359
 5702TIP3    H217052   2.746   0.720   6.381
 5703TIP3   OH217053   3.266   0.166   5.569
 5703TIP3    H117054   3.352   0.143   5.530
 5703TIP3    H217055   3.273   0.132   5.661
 5704TIP3   OH217056   3.277   0.096   5.831
 5704TIP3    H117057   3.185   0.095   5.864
 5704TIP3    H217058   3.324   0.145   5.901
 5705TIP3   OH217059   2.988   0.457   4.955
 5705TIP3    H117060   2.916   0.391   4.943
 5705TIP3    H217061   2.968   0.489   5.047
 5706TIP3   OH217062   3.886   0.693   5.577
 5706TIP3    H117063   3.909   0.745   5.496
 5706TIP3    H217064   3.801   0.651   5.551
 5707TIP3   OH217065   3.423  -0.158   4.769
 5707TIP3    H117066   3.363  -0.211   4.825
 5707TIP3    H217067   3.458  -0.095   4.836
 5708TIP3   OH217068   3.395   0.782   5.945
 5708TIP3    H117069   3.411   0.757   6.036
 5708TIP3    H217070   3.345   0.866   5.953
 5709TIP3   OH217071   3.523   0.034   4.937
 5709TIP3    H117072   3.620   0.047   4.944
 5709TIP3    H217073   3.496   0.111   4.882
 5710TIP3   OH217074   2.678   0.492   5.636
 5710TIP3    H117075   2.666   0.490   5.538
 5710TIP3    H217076   2.728   0.411   5.649
 5711TIP3   OH217077   3.130   0.605   4.776
 5711TIP3    H117078   3.083   0.692   4.780
 5711TIP3    H217079   3.075   0.551   4.836
 5712TIP3   OH217080   2.565   0.384   6.233
 5712TIP3    H117081   2.564   0.373   6.330
 5712TIP3    H217082   2.484   0.335   6.208
 5713TIP3   OH217083   3.290   0.519   6.263
 5713TIP3    H117084   3.226   0.466   6.211
 5713TIP3    H217085   3.375   0.490   6.223
 5714TIP3   OH217086   3.545   1.043   5.839
 5714TIP3    H117087   3.450   1.034   5.855
 5714TIP3    H217088   3.573   1.091   5.920
 5715TIP3   OH217089   3.957   0.108   4.740
 5715TIP3    H117090   3.897   0.058   4.680
 5715TIP3    H217091   3.941   0.198   4.704
 5716TIP3   OH217092   4.176   0.968   5.832
 5716TIP3    H117093   4.079   0.962   5.823
 5716TIP3    H217094   4.203   0.938   5.742
 5717TIP3   OH217095   3.660   0.927   4.663
 5717TIP3    H117096   3.629   0.858   4.724
 5717TIP3    H217097   3.670   0.879   4.579
 5718TIP3   OH217098   3.653   0.559   5.495
 5718TIP3    H117099   3.560   0.532   5.509
 5718TIP3    H217100   3.688   0.479   5.449
 5719TIP3   OH217101   2.789   0.787   5.271
 5719TIP3    H117102   2.753   0.852   5.208
 5719TIP3    H217103   2.718   0.720   5.277
 5720TIP3   OH217104   2.339   0.084   4.955
 5720TIP3    H117105   2.384   0.170   4.972
 5720TIP3    H217106   2.265   0.092   5.019
 5721TIP3   OH217107   2.919   0.550   5.197
 5721TIP3    H117108   2.897   0.641   5.222
 5721TIP3    H217109   2.846   0.502   5.243
 5722TIP3   OH217110   3.041   1.138   5.720
 5722TIP3    H117111   3.092   1.202   5.667
 5722TIP3    H217112   3.112   1.098   5.774
 5723TIP3   OH217113   2.692   1.019   5.097
 5723TIP3    H117114   2.609   1.029   5.148
 5723TIP3    H217115   2.728   1.110   5.101
 5724TIP3   OH217116   3.438   0.760   5.677
 5724TIP3    H117117   3.428   0.762   5.775
 5724TIP3    H217118   3.514   0.703   5.666
 5725TIP3   OH217119   3.415   0.657   4.561
 5725TIP3    H117120   3.467   0.631   4.641
 5725TIP3    H217121   3.326   0.628   4.588
 5726TIP3   OH217122   3.688   1.292   5.730
 5726TIP3    H117123   3.609   1.234   5.728
 5726TIP3    H217124   3.667   1.355   5.657
 5727TIP3   OH217125   3.753   1.127   4.380
 5727TIP3    H117126   3.790   1.201   4.328
 5727TIP3    H217127   3.672   1.172   4.415
 5728TIP3   OH217128   3.577   0.585   4.772
 5728TIP3    H117129   3.564   0.523   4.846
 5728TIP3    H217130   3.674   0.583   4.764
 5729TIP3   OH217131   2.511   0.998   5.877
 5729TIP3    H117132   2.548   0.913   5.907
 5729TIP3    H217133   2.503   1.044   5.962
 5730TIP3   OH217134   2.779   0.634   4.561
 5730TIP3    H117135   2.790   0.541   4.536
 5730TIP3    H217136   2.759   0.626   4.657
 5731TIP3   OH217137   2.722   0.641   4.831
 5731TIP3    H117138   2.782   0.607   4.898
 5731TIP3    H217139   2.729   0.738   4.844
 5732TIP3   OH217140   2.431   0.329   5.019
 5732TIP3    H117141   2.395   0.369   5.101
 5732TIP3    H217142   2.468   0.408   4.976
 5733TIP3   OH217143   2.995   0.840   4.782
 5733TIP3    H117144   2.907   0.859   4.820
 5733TIP3    H217145   3.001   0.910   4.716
 5734TIP3   OH217146   3.208  -0.115   5.156
 5734TIP3    H117147   3.254  -0.028   5.156
 5734TIP3    H217148   3.183  -0.124   5.249
 5735TIP3   OH217149   3.460   0.223   6.008
 5735TIP3    H117150   3.463   0.290   6.079
 5735TIP3    H217151   3.512   0.152   6.047
 5736TIP3   OH217152   2.741   0.913   4.851
 5736TIP3    H117153   2.706   0.983   4.791
 5736TIP3    H217154   2.719   0.951   4.939
 5737TIP3   OH217155   3.741   0.317   5.374
 5737TIP3    H117156   3.660   0.267   5.394
 5737TIP3    H217157   3.809   0.267   5.424
 5738TIP3   OH217158   2.452   0.550   4.834
 5738TIP3    H117159   2.528   0.610   4.846
 5738TIP3    H217160   2.494   0.485   4.772
 5739TIP3   OH217161   2.396  -0.183   4.953
 5739TIP3    H117162   2.388  -0.086   4.954
 5739TIP3    H217163   2.304  -0.211   4.965
 5740TIP3   OH217164   3.708   1.272   5.320
 5740TIP3    H117165   3.665   1.321   5.247
 5740TIP3    H217166   3.803   1.291   5.300
 5741TIP3   OH217167   2.323   0.780   5.229
 5741TIP3    H117168   2.247   0.791   5.288
 5741TIP3    H217169   2.285   0.810   5.143
 5742TIP3   OH217170   2.471   1.279   6.308
 5742TIP3    H117171   2.558   1.294   6.352
 5742TIP3    H217172   2.459   1.184   6.319
 5743TIP3   OH217173   2.967   1.255   6.349
 5743TIP3    H117174   3.060   1.229   6.350
 5743TIP3    H217175   2.932   1.197   6.279
 5744TIP3   OH217176   2.942   0.836   4.473
 5744TIP3    H117177   2.884   0.765   4.510
 5744TIP3    H217178   3.017   0.783   4.442
 5745TIP3   OH217179   3.601   1.168   6.077
 5745TIP3    H117180   3.593   1.100   6.147
 5745TIP3    H217181   3.676   1.221   6.109
 5746TIP3   OH217182   3.377   0.877   4.388
 5746TIP3    H117183   3.416   0.810   4.447
 5746TIP3    H217184   3.434   0.872   4.309
 5747TIP3   OH217185   2.609   0.714   6.501
 5747TIP3    H117186   2.628   0.618   6.505
 5747TIP3    H217187   2.522   0.715   6.455
 5748TIP3   OH217188   2.588   0.355   4.696
 5748TIP3    H117189   2.638   0.323   4.773
 5748TIP3    H217190   2.659   0.360   4.629
 5749TIP3   OH217191   3.220   0.793   6.274
 5749TIP3    H117192   3.173   0.813   6.190
 5749TIP3    H217193   3.246   0.699   6.263
 5750TIP3   OH217194   3.107   0.557   4.505
 5750TIP3    H117195   3.103   0.568   4.602
 5750TIP3    H217196   3.106   0.459   4.498
 5751TIP3   OH217197   3.711   0.802   5.885
 5751TIP3    H117198   3.784   0.848   5.839
 5751TIP3    H217199   3.637   0.864   5.868
 5752TIP3   OH217200   2.714   0.459   6.492
 5752TIP3    H117201   2.760   0.376   6.477
 5752TIP3    H217202   2.752   0.485   6.580
 5753TIP3   OH217203   2.793   0.267   4.913
 5753TIP3    H117204   2.752   0.238   4.998
 5753TIP3    H217205   2.826   0.182   4.877
 5754TIP3   OH217206   3.075   0.348   6.160
 5754TIP3    H117207   2.987   0.393   6.152
 5754TIP3    H217208   3.117   0.374   6.075
 5755TIP3   OH217209   2.893   0.047   4.766
 5755TIP3    H117210   2.865   0.059   4.673
 5755TIP3    H217211   2.990   0.056   4.756
 5756TIP3   OH217212   3.585   0.729   6.281
 5756TIP3    H117213   3.654   0.692   6.224
 5756TIP3    H217214   3.572   0.659   6.346
 5757TIP3   OH217215   3.718   0.381   4.421
 5757TIP3    H117216   3.695   0.340   4.335
 5757TIP3    H217217   3.685   0.473   4.403
 5758TIP3   OH217218   3.088   0.113   6.290
 5758TIP3    H117219   3.065   0.072   6.203
 5758TIP3    H217220   3.086   0.208   6.261
 5759TIP3   OH217221   3.226   0.442   5.956
 5759TIP3    H117222   3.303   0.447   5.898
 5759TIP3    H217223   3.163   0.501   5.909
 5760TIP3   OH217224   3.790   0.404   6.313
 5760TIP3    H117225   3.825   0.348   6.386
 5760TIP3    H217226   3.868   0.456   6.288
 5761TIP3   OH217227   3.841   0.655   6.068
 5761TIP3    H117228   3.781   0.709   6.011
 5761TIP3    H217229   3.927   0.679   6.028
 5762TIP3   OH217230   3.447   0.188   6.307
 5762TIP3    H117231   3.490   0.151   6.387
 5762TIP3    H217232   3.355   0.164   6.323
 5763TIP3   OH217233   2.708   1.123   4.667
 5763TIP3    H117234   2.802   1.110   4.644
 5763TIP3    H217235   2.676   1.168   4.587
 5764TIP3   OH217236   2.184   0.504   4.868
 5764TIP3    H117237   2.280   0.524   4.861
 5764TIP3    H217238   2.181   0.411   4.837
 5765TIP3   OH217239   2.101   1.107   5.291
 5765TIP3    H117240   2.035   1.045   5.254
 5765TIP3    H217241   2.145   1.051   5.358
 5766TIP3   OH217242   2.228   0.963   5.486
 5766TIP3    H117243   2.220   0.884   5.542
 5766TIP3    H217244   2.279   1.022   5.544
 5767TIP3   OH217245   3.962   1.361   5.281
 5767TIP3    H117246   3.989   1.393   5.369
 5767TIP3    H217247   4.030   1.400   5.224
 5768TIP3   OH217248   3.990   1.379   5.563
 5768TIP3    H117249   3.944   1.292   5.560
 5768TIP3    H217250   4.066   1.356   5.619
 5769TIP3   OH217251   4.042   1.059   6.139
 5769TIP3    H117252   3.968   1.069   6.203
 5769TIP3    H217253   4.081   1.148   6.141
 5770TIP3   OH217254   3.856   0.568   4.752
 5770TIP3    H117255   3.921   0.635   4.723
 5770TIP3    H217256   3.899   0.532   4.832
 5771TIP3   OH217257   3.980   0.442   4.957
 5771TIP3    H117258   3.913   0.403   5.017
 5771TIP3    H217259   4.044   0.481   5.020
 5772TIP3   OH217260   4.039   0.833   5.392
 5772TIP3    H117261   4.090   0.763   5.344
 5772TIP3    H217262   4.034   0.904   5.325
 5773TIP3   OH217263   3.865   1.130   5.585
 5773TIP3    H117264   3.793   1.172   5.636
 5773TIP3    H217265   3.815   1.084   5.514
 5774TIP3   OH217266   3.913   0.343   4.604
 5774TIP3    H117267   3.843   0.353   4.535
 5774TIP3    H217268   3.889   0.419   4.661
 5775TIP3   OH217269   3.783   0.002   4.545
 5775TIP3    H117270   3.763   0.085   4.500
 5775TIP3    H217271   3.727  -0.059   4.495
 5776TIP3   OH217272   3.793   0.309   5.102
 5776TIP3    H117273   3.794   0.214   5.079
 5776TIP3    H217274   3.779   0.309   5.200
 5777TIP3   OH217275   2.418   0.360   5.857
 5777TIP3    H117276   2.415   0.334   5.762
 5777TIP3    H217277   2.515   0.366   5.870
 5778TIP3   OH217278   4.085   0.721   5.961
 5778TIP3    H117279   4.156   0.654   5.950
 5778TIP3    H217280   4.108   0.789   5.896
 5779TIP3   OH217281   4.264   0.518   5.975
 5779TIP3    H117282   4.190   0.464   6.012
 5779TIP3    H217283   4.339   0.458   5.995
 5780TIP3   OH217284   3.795   0.057   4.973
 5780TIP3    H117285   3.823  -0.022   5.025
 5780TIP3    H217286   3.859   0.057   4.899
 5781TIP3   OH217287   3.949   0.187   5.502
 5781TIP3    H117288   4.034   0.211   5.460
 5781TIP3    H217289   3.964   0.224   5.591
 5782TIP3   OH217290   4.016   0.339   5.727
 5782TIP3    H117291   3.938   0.374   5.774
 5782TIP3    H217292   4.050   0.419   5.681
 5783TIP3   OH217293   2.637   0.040   6.518
 5783TIP3    H117294   2.721   0.013   6.557
 5783TIP3    H217295   2.578  -0.024   6.560
 5784TIP3   OH217296   2.401   0.024   5.927
 5784TIP3    H117297   2.445   0.025   5.840
 5784TIP3    H217298   2.423   0.112   5.960
 5785TIP3   OH217299   3.544   1.234   4.935
 5785TIP3    H117300   3.594   1.218   4.853
 5785TIP3    H217301   3.604   1.292   4.984
 5786TIP3   OH217302   2.652   1.017   6.317
 5786TIP3    H117303   2.556   0.998   6.309
 5786TIP3    H217304   2.659   1.044   6.409
 5787TIP3   OH217305   2.818   1.059   5.878
 5787TIP3    H117306   2.738   1.070   5.825
 5787TIP3    H217307   2.888   1.093   5.820
 5788TIP3   OH217308   3.270   1.306   6.005
 5788TIP3    H117309   3.312   1.303   6.093
 5788TIP3    H217310   3.336   1.358   5.954
 5789TIP3   OH217311   3.445   1.465   5.863
 5789TIP3    H117312   3.515   1.411   5.824
 5789TIP3    H217313   3.497   1.521   5.925
 5790TIP3   OH217314   2.530   1.363   5.881
 5790TIP3    H117315   2.434   1.371   5.863
 5790TIP3    H217316   2.526   1.341   5.975
 5791TIP3   OH217317   3.165   1.331   5.555
 5791TIP3    H117318   3.097   1.348   5.487
 5791TIP3    H217319   3.169   1.416   5.603
 5792TIP3   OH217320   3.433   1.266   5.604
 5792TIP3    H117321   3.340   1.284   5.583
 5792TIP3    H217322   3.479   1.338   5.557
 5793TIP3   OH217323   3.633   1.455   5.514
 5793TIP3    H117324   3.622   1.540   5.465
 5793TIP3    H217325   3.663   1.395   5.442
 5794TIP3   OH217326   2.415   1.117   5.639
 5794TIP3    H117327   2.444   1.088   5.729
 5794TIP3    H217328   2.483   1.070   5.585
 5795TIP3   OH217329   2.606   0.987   5.500
 5795TIP3    H117330   2.619   0.900   5.545
 5795TIP3    H217331   2.699   1.015   5.488
 5796TIP3   OH217332   2.881   1.083   5.493
 5796TIP3    H117333   2.902   0.990   5.469
 5796TIP3    H217334   2.934   1.091   5.574
 5797TIP3   OH217335   2.200   0.886   5.015
 5797TIP3    H117336   2.113   0.854   4.985
 5797TIP3    H217337   2.189   0.981   5.002
 5798TIP3   OH217338   2.972   1.071   4.608
 5798TIP3    H117339   3.061   1.093   4.572
 5798TIP3    H217340   2.949   0.996   4.548
 5799TIP3   OH217341   3.691   1.193   4.706
 5799TIP3    H117342   3.685   1.095   4.695
 5799TIP3    H217343   3.646   1.224   4.624
 5800TIP3   OH217344   2.276   0.912   4.666
 5800TIP3    H117345   2.271   0.925   4.762
 5800TIP3    H217346   2.363   0.868   4.655
 5801TIP3   OH217347   3.915   1.336   5.891
 5801TIP3    H117348   3.836   1.306   5.841
 5801TIP3    H217349   3.896   1.432   5.897
 5802TIP3   OH217350   5.182   0.707   4.657
 5802TIP3    H117351   5.155   0.799   4.637
 5802TIP3    H217352   5.106   0.659   4.619
 5803TIP3   OH217353   5.187   0.710   5.039
 5803TIP3    H117354   5.216   0.686   5.129
 5803TIP3    H217355   5.140   0.630   5.010
 5804TIP3   OH217356   4.479   0.604   5.402
 5804TIP3    H117357   4.511   0.534   5.461
 5804TIP3    H217358   4.560   0.657   5.392
 5805TIP3   OH217359   5.428   1.014   4.722
 5805TIP3    H117360   5.412   0.948   4.791
 5805TIP3    H217361   5.458   1.090   4.774
 5806TIP3   OH217362   4.454   1.015   5.125
 5806TIP3    H117363   4.447   0.917   5.127
 5806TIP3    H217364   4.551   1.025   5.119
 5807TIP3   OH217365   4.150   0.229   4.924
 5807TIP3    H117366   4.095   0.308   4.937
 5807TIP3    H217367   4.090   0.174   4.871
 5808TIP3   OH217368   4.212   0.515   5.086
 5808TIP3    H117369   4.253   0.431   5.116
 5808TIP3    H217370   4.278   0.548   5.023
 5809TIP3   OH217371   5.078   1.474   4.737
 5809TIP3    H117372   5.120   1.402   4.687
 5809TIP3    H217373   5.069   1.435   4.825
 5810TIP3   OH217374   4.979   0.936   5.088
 5810TIP3    H117375   5.020   0.861   5.041
 5810TIP3    H217376   5.061   0.983   5.113
 5811TIP3   OH217377   5.400   0.435   5.133
 5811TIP3    H117378   5.416   0.344   5.160
 5811TIP3    H217379   5.362   0.426   5.044
 5812TIP3   OH217380   4.720   0.054   5.050
 5812TIP3    H117381   4.697   0.144   5.019
 5812TIP3    H217382   4.635   0.009   5.039
 5813TIP3   OH217383   5.388   0.209   4.757
 5813TIP3    H117384   5.449   0.164   4.819
 5813TIP3    H217385   5.443   0.213   4.678
 5814TIP3   OH217386   4.342   0.297   5.181
 5814TIP3    H117387   4.435   0.301   5.215
 5814TIP3    H217388   4.356   0.234   5.107
 5815TIP3   OH217389   4.801   0.498   4.989
 5815TIP3    H117390   4.895   0.473   5.003
 5815TIP3    H217391   4.762   0.412   4.962
 5816TIP3   OH217392   6.027   0.445   5.284
 5816TIP3    H117393   5.954   0.500   5.249
 5816TIP3    H217394   6.091   0.511   5.312
 5817TIP3   OH217395   5.073   0.929   4.524
 5817TIP3    H117396   5.031   0.917   4.438
 5817TIP3    H217397   5.029   1.012   4.554
 5818TIP3   OH217398   4.837   0.855   5.312
 5818TIP3    H117399   4.776   0.923   5.347
 5818TIP3    H217400   4.877   0.903   5.236
 5819TIP3   OH217401   4.601   0.265   5.247
 5819TIP3    H117402   4.669   0.310   5.300
 5819TIP3    H217403   4.627   0.173   5.258
 5820TIP3   OH217404   4.666   1.052   5.409
 5820TIP3    H117405   4.640   1.139   5.373
 5820TIP3    H217406   4.586   1.034   5.464
 5821TIP3   OH217407   4.055   0.741   4.645
 5821TIP3    H117408   4.014   0.769   4.562
 5821TIP3    H217409   4.087   0.827   4.682
 5822TIP3   OH217410   5.496   1.257   4.884
 5822TIP3    H117411   5.407   1.248   4.924
 5822TIP3    H217412   5.488   1.343   4.840
 5823TIP3   OH217413   5.195   1.299   4.557
 5823TIP3    H117414   5.246   1.217   4.537
 5823TIP3    H217415   5.257   1.365   4.518
 5824TIP3   OH217416   5.341   1.084   4.470
 5824TIP3    H117417   5.300   1.004   4.434
 5824TIP3    H217418   5.379   1.051   4.554
 5825TIP3   OH217419   5.721   1.163   5.233
 5825TIP3    H117420   5.708   1.089   5.170
 5825TIP3    H217421   5.701   1.241   5.176
 5826TIP3   OH217422   5.014   0.566   4.486
 5826TIP3    H117423   4.932   0.618   4.468
 5826TIP3    H217424   5.055   0.563   4.398
 5827TIP3   OH217425   4.970   0.346   4.203
 5827TIP3    H117426   5.041   0.397   4.246
 5827TIP3    H217427   5.023   0.280   4.155
 5828TIP3   OH217428   5.918   0.811   5.078
 5828TIP3    H117429   5.834   0.861   5.077
 5828TIP3    H217430   5.950   0.831   4.987
 5829TIP3   OH217431   5.359   0.645   4.457
 5829TIP3    H117432   5.305   0.668   4.536
 5829TIP3    H217433   5.445   0.625   4.500
 5830TIP3   OH217434   5.591   0.688   5.376
 5830TIP3    H117435   5.581   0.780   5.406
 5830TIP3    H217436   5.504   0.677   5.331
 5831TIP3   OH217437   4.593   0.641   4.876
 5831TIP3    H117438   4.554   0.581   4.809
 5831TIP3    H217439   4.670   0.588   4.908
 5832TIP3   OH217440   4.723   1.053   5.024
 5832TIP3    H117441   4.704   1.018   4.936
 5832TIP3    H217442   4.812   1.016   5.042
 5833TIP3   OH217443   4.733   0.609   5.239
 5833TIP3    H117444   4.760   0.583   5.148
 5833TIP3    H217445   4.775   0.697   5.250
 5834TIP3   OH217446   5.257   1.251   5.008
 5834TIP3    H117447   5.242   1.333   5.058
 5834TIP3    H217448   5.238   1.180   5.073
 5835TIP3   OH217449   4.869   1.165   5.558
 5835TIP3    H117450   4.808   1.229   5.601
 5835TIP3    H217451   4.805   1.114   5.505
 5836TIP3   OH217452   5.200   0.501   4.284
 5836TIP3    H117453   5.257   0.564   4.334
 5836TIP3    H217454   5.228   0.521   4.191
 5837TIP3   OH217455   4.616   0.731   5.656
 5837TIP3    H117456   4.620   0.818   5.701
 5837TIP3    H217457   4.522   0.709   5.670
 5838TIP3   OH217458   4.948   1.178   4.561
 5838TIP3    H117459   5.030   1.231   4.569
 5838TIP3    H217460   4.887   1.241   4.520
 5839TIP3   OH217461   4.662   1.331   5.637
 5839TIP3    H117462   4.625   1.336   5.547
 5839TIP3    H217463   4.582   1.312   5.692
 5840TIP3   OH217464   4.461   0.483   4.677
 5840TIP3    H117465   4.393   0.529   4.625
 5840TIP3    H217466   4.419   0.398   4.692
 5841TIP3   OH217467   5.518   1.108   3.883
 5841TIP3    H117468   5.525   1.205   3.868
 5841TIP3    H217469   5.611   1.080   3.871
 5842TIP3   OH217470   4.240   0.868   5.589
 5842TIP3    H117471   4.172   0.850   5.521
 5842TIP3    H217472   4.278   0.780   5.607
 5843TIP3   OH217473   4.097   1.062   5.219
 5843TIP3    H117474   4.193   1.055   5.210
 5843TIP3    H217475   4.088   1.139   5.277
 5844TIP3   OH217476   5.961   1.517   5.282
 5844TIP3    H117477   5.957   1.420   5.294
 5844TIP3    H217478   5.877   1.543   5.325
 5845TIP3   OH217479   5.066   1.291   5.412
 5845TIP3    H117480   5.066   1.385   5.442
 5845TIP3    H217481   4.994   1.254   5.468
 5846TIP3   OH217482   4.830   1.425   4.365
 5846TIP3    H117483   4.782   1.409   4.281
 5846TIP3    H217484   4.796   1.513   4.392
 5847TIP3   OH217485   4.265   1.274   4.750
 5847TIP3    H117486   4.312   1.267   4.836
 5847TIP3    H217487   4.214   1.192   4.750
 5848TIP3   OH217488   5.027   1.329   4.002
 5848TIP3    H117489   5.086   1.259   3.966
 5848TIP3    H217490   5.062   1.340   4.093
 5849TIP3   OH217491   5.080   1.377   4.271
 5849TIP3    H117492   4.991   1.387   4.313
 5849TIP3    H217493   5.132   1.342   4.345
 5850TIP3   OH217494   5.833   0.645   5.554
 5850TIP3    H117495   5.760   0.654   5.492
 5850TIP3    H217496   5.838   0.549   5.562
 5851TIP3   OH217497   4.446   1.050   5.571
 5851TIP3    H117498   4.493   1.037   5.655
 5851TIP3    H217499   4.371   0.988   5.580
 5852TIP3   OH217500   5.635   0.429   5.494
 5852TIP3    H117501   5.584   0.441   5.575
 5852TIP3    H217502   5.603   0.500   5.437
 5853TIP3   OH217503   5.281   0.537   4.029
 5853TIP3    H117504   5.242   0.520   3.941
 5853TIP3    H217505   5.359   0.590   4.005
 5854TIP3   OH217506   4.797   0.396   5.398
 5854TIP3    H117507   4.735   0.413   5.471
 5854TIP3    H217508   4.782   0.474   5.341
 5855TIP3   OH217509   4.660   0.278   4.901
 5855TIP3    H117510   4.565   0.257   4.913
 5855TIP3    H217511   4.675   0.246   4.809
 5856TIP3   OH217512   5.145   0.367   4.623
 5856TIP3    H117513   5.098   0.440   4.576
 5856TIP3    H217514   5.211   0.340   4.556
 5857TIP3   OH217515   5.336   0.667   5.695
 5857TIP3    H117516   5.304   0.590   5.746
 5857TIP3    H217517   5.426   0.674   5.727
 5858TIP3   OH217518   5.289   0.430   4.882
 5858TIP3    H117519   5.234   0.477   4.816
 5858TIP3    H217520   5.310   0.349   4.830
 5859TIP3   OH217521   4.598   0.424   5.588
 5859TIP3    H117522   4.610   0.488   5.659
 5859TIP3    H217523   4.577   0.342   5.636
 5860TIP3   OH217524   4.230   0.034   4.725
 5860TIP3    H117525   4.244   0.034   4.628
 5860TIP3    H217526   4.135   0.056   4.728
 5861TIP3   OH217527   5.319   0.640   5.285
 5861TIP3    H117528   5.353   0.569   5.226
 5861TIP3    H217529   5.291   0.585   5.361
 5862TIP3   OH217530   4.408   0.152   4.943
 5862TIP3    H117531   4.317   0.187   4.931
 5862TIP3    H217532   4.400   0.074   4.886
 5863TIP3   OH217533   4.701   0.172   4.653
 5863TIP3    H117534   4.792   0.161   4.619
 5863TIP3    H217535   4.646   0.163   4.573
 5864TIP3   OH217536   4.537   0.154   4.426
 5864TIP3    H117537   4.463   0.139   4.365
 5864TIP3    H217538   4.597   0.203   4.366
 5865TIP3   OH217539   5.655   1.861   5.378
 5865TIP3    H117540   5.651   1.889   5.285
 5865TIP3    H217541   5.733   1.911   5.409
 5866TIP3   OH217542   4.606   0.974   5.797
 5866TIP3    H117543   4.686   1.004   5.845
 5866TIP3    H217544   4.541   0.975   5.870
 5867TIP3   OH217545   5.058   0.429   5.053
 5867TIP3    H117546   5.142   0.401   5.015
 5867TIP3    H217547   5.063   0.395   5.145
 5868TIP3   OH217548   5.069   0.359   5.313
 5868TIP3    H117549   4.979   0.351   5.350
 5868TIP3    H217550   5.118   0.402   5.385
 5869TIP3   OH217551   4.783   0.713   4.436
 5869TIP3    H117552   4.710   0.649   4.425
 5869TIP3    H217553   4.763   0.748   4.527
 5870TIP3   OH217554   5.682   0.950   5.064
 5870TIP3    H117555   5.707   1.001   4.984
 5870TIP3    H217556   5.597   0.908   5.036
 5871TIP3   OH217557   5.218   0.096   4.257
 5871TIP3    H117558   5.160   0.047   4.319
 5871TIP3    H217559   5.256   0.163   4.319
 5872TIP3   OH217560   5.187   1.035   5.435
 5872TIP3    H117561   5.199   1.019   5.529
 5872TIP3    H217562   5.145   1.123   5.434
 5873TIP3   OH217563   5.319   0.290   4.420
 5873TIP3    H117564   5.416   0.302   4.428
 5873TIP3    H217565   5.293   0.368   4.367
 5874TIP3   OH217566   4.479   0.737   5.111
 5874TIP3    H117567   4.517   0.708   5.025
 5874TIP3    H217568   4.520   0.675   5.173
 5875TIP3   OH217569   4.930   0.863   4.261
 5875TIP3    H117570   4.881   0.949   4.263
 5875TIP3    H217571   4.875   0.809   4.321
 5876TIP3   OH217572   4.359   0.653   5.727
 5876TIP3    H117573   4.374   0.639   5.822
 5876TIP3    H217574   4.285   0.593   5.708
 5877TIP3   OH217575   5.078   0.775   5.748
 5877TIP3    H117576   5.014   0.720   5.700
 5877TIP3    H217577   5.164   0.745   5.711
 5878TIP3   OH217578   5.345   1.283   5.335
 5878TIP3    H117579   5.248   1.288   5.345
 5878TIP3    H217580   5.373   1.341   5.409
 5879TIP3   OH217581   5.751   0.365   4.227
 5879TIP3    H117582   5.692   0.315   4.167
 5879TIP3    H217583   5.737   0.455   4.190
 5880TIP3   OH217584   5.972   1.222   5.319
 5880TIP3    H117585   5.874   1.219   5.307
 5880TIP3    H217586   6.001   1.194   5.229
 5881TIP3   OH217587   5.454   1.184   4.148
 5881TIP3    H117588   5.426   1.115   4.210
 5881TIP3    H217589   5.467   1.136   4.064
 5882TIP3   OH217590   5.449   0.815   4.983
 5882TIP3    H117591   5.355   0.789   4.995
 5882TIP3    H217592   5.483   0.736   4.936
 5883TIP3   OH217593   4.580   1.042   4.738
 5883TIP3    H117594   4.577   1.123   4.683
 5883TIP3    H217595   4.486   1.025   4.751
 5884TIP3   OH217596   4.140   0.344   4.446
 5884TIP3    H117597   4.185   0.428   4.465
 5884TIP3    H217598   4.063   0.350   4.507
 5885TIP3   OH217599   4.710   0.804   4.679
 5885TIP3    H117600   4.677   0.894   4.698
 5885TIP3    H217601   4.675   0.754   4.756
 5886TIP3   OH217602   4.848   1.384   5.205
 5886TIP3    H117603   4.889   1.458   5.156
 5886TIP3    H217604   4.925   1.349   5.253
 5887TIP3   OH217605   4.496   1.280   4.590
 5887TIP3    H117606   4.411   1.290   4.636
 5887TIP3    H217607   4.529   1.373   4.593
 5888TIP3   OH217608   5.231   1.017   5.166
 5888TIP3    H117609   5.222   1.017   5.264
 5888TIP3    H217610   5.311   0.965   5.154
 5889TIP3   OH217611   5.212   0.911   4.049
 5889TIP3    H117612   5.265   0.886   4.129
 5889TIP3    H217613   5.123   0.886   4.078
 5890TIP3   OH217614   5.483   1.548   5.213
 5890TIP3    H117615   5.401   1.496   5.205
 5890TIP3    H217616   5.469   1.615   5.142
 5891TIP3   OH217617   5.548   1.384   3.867
 5891TIP3    H117618   5.585   1.458   3.816
 5891TIP3    H217619   5.468   1.428   3.903
 5892TIP3   OH217620   5.373   0.842   4.262
 5892TIP3    H117621   5.362   0.778   4.335
 5892TIP3    H217622   5.470   0.841   4.251
 5893TIP3   OH217623   4.285   1.245   5.364
 5893TIP3    H117624   4.340   1.174   5.402
 5893TIP3    H217625   4.313   1.321   5.417
 5894TIP3   OH217626   4.575   0.891   4.049
 5894TIP3    H117627   4.588   0.798   4.023
 5894TIP3    H217628   4.554   0.882   4.144
 5895TIP3   OH217629   4.519   0.897   4.321
 5895TIP3    H117630   4.593   0.872   4.378
 5895TIP3    H217631   4.521   0.995   4.328
 5896TIP3   OH217632   4.253   0.588   4.526
 5896TIP3    H117633   4.187   0.635   4.582
 5896TIP3    H217634   4.266   0.657   4.457
 5897TIP3   OH217635   4.787   1.093   4.268
 5897TIP3    H117636   4.700   1.117   4.305
 5897TIP3    H217637   4.803   1.170   4.212
 5898TIP3   OH217638   4.989   0.145   4.642
 5898TIP3    H117639   5.041   0.229   4.639
 5898TIP3    H217640   4.992   0.124   4.736
 5899TIP3   OH217641   5.259   0.474   5.494
 5899TIP3    H117642   5.248   0.534   5.570
 5899TIP3    H217643   5.299   0.398   5.537
 5900TIP3   OH217644   4.532   1.168   4.339
 5900TIP3    H117645   4.502   1.239   4.277
 5900TIP3    H217646   4.516   1.212   4.426
 5901TIP3   OH217647   5.536   0.573   4.862
 5901TIP3    H117648   5.457   0.521   4.883
 5901TIP3    H217649   5.607   0.525   4.911
 5902TIP3   OH217650   4.249   0.794   4.329
 5902TIP3    H117651   4.318   0.862   4.338
 5902TIP3    H217652   4.293   0.737   4.262
 5903TIP3   OH217653   4.193   0.073   4.451
 5903TIP3    H117654   4.186   0.170   4.445
 5903TIP3    H217655   4.102   0.045   4.435
 5904TIP3   OH217656   5.505   1.526   4.807
 5904TIP3    H117657   5.462   1.573   4.732
 5904TIP3    H217658   5.599   1.546   4.786
 5905TIP3   OH217659   4.115   1.010   4.712
 5905TIP3    H117660   4.052   1.041   4.779
 5905TIP3    H217661   4.081   1.055   4.631
 5906TIP3   OH217662   4.283   1.553   5.794
 5906TIP3    H117663   4.368   1.550   5.845
 5906TIP3    H217664   4.262   1.459   5.787
 5907TIP3   OH217665   4.750   1.488   5.855
 5907TIP3    H117666   4.843   1.508   5.843
 5907TIP3    H217667   4.728   1.445   5.770
 5908TIP3   OH217668   4.737   1.094   3.957
 5908TIP3    H117669   4.682   1.022   3.997
 5908TIP3    H217670   4.813   1.042   3.925
 5909TIP3   OH217671   5.399   1.425   5.564
 5909TIP3    H117672   5.391   1.358   5.636
 5909TIP3    H217673   5.474   1.480   5.596
 5910TIP3   OH217674   5.173   1.132   3.873
 5910TIP3    H117675   5.217   1.069   3.933
 5910TIP3    H217676   5.231   1.130   3.794
 5911TIP3   OH217677   4.405   0.962   5.989
 5911TIP3    H117678   4.420   0.866   5.994
 5911TIP3    H217679   4.319   0.967   5.943
 5912TIP3   OH217680   4.385   0.608   4.185
 5912TIP3    H117681   4.442   0.580   4.258
 5912TIP3    H217682   4.451   0.615   4.112
 5913TIP3   OH217683   5.013   1.050   5.763
 5913TIP3    H117684   4.968   1.072   5.679
 5913TIP3    H217685   5.036   0.956   5.752
 5914TIP3   OH217686   4.900   0.813   3.992
 5914TIP3    H117687   4.900   0.825   4.089
 5914TIP3    H217688   4.900   0.715   3.986
 5915TIP3   OH217689   5.515   1.051   5.388
 5915TIP3    H117690   5.585   1.095   5.335
 5915TIP3    H217691   5.440   1.112   5.370
 5916TIP3   OH217692   4.528   0.697   5.973
 5916TIP3    H117693   4.611   0.654   5.948
 5916TIP3    H217694   4.552   0.732   6.062
 5917TIP3   OH217695   4.587   0.519   4.403
 5917TIP3    H117696   4.564   0.481   4.489
 5917TIP3    H217697   4.626   0.442   4.355
 5918TIP3   OH217698   4.864   0.614   5.633
 5918TIP3    H117699   4.778   0.662   5.628
 5918TIP3    H217700   4.907   0.640   5.548
 5919TIP3   OH217701   4.692   0.309   4.252
 5919TIP3    H117702   4.665   0.317   4.158
 5919TIP3    H217703   4.789   0.313   4.242
 5920TIP3   OH217704   5.388   0.985   5.773
 5920TIP3    H117705   5.435   0.942   5.701
 5920TIP3    H217706   5.381   0.914   5.839
 5921TIP3   OH217707   5.512   0.637   3.909
 5921TIP3    H117708   5.491   0.597   3.823
 5921TIP3    H217709   5.480   0.729   3.891
 5922TIP3   OH217710   4.947   0.389   5.751
 5922TIP3    H117711   4.897   0.329   5.692
 5922TIP3    H217712   4.921   0.476   5.712
 5923TIP3   OH217713   5.025   0.699   5.434
 5923TIP3    H117714   5.105   0.709   5.381
 5923TIP3    H217715   4.964   0.761   5.389
 5924TIP3   OH217716   5.657   0.926   5.575
 5924TIP3    H117717   5.581   0.971   5.531
 5924TIP3    H217718   5.724   0.942   5.504
 5925TIP3   OH217719   4.831   0.513   5.983
 5925TIP3    H117720   4.785   0.438   6.023
 5925TIP3    H217721   4.886   0.471   5.914
 5926TIP3   OH217722   5.223   0.444   5.788
 5926TIP3    H117723   5.244   0.413   5.879
 5926TIP3    H217724   5.127   0.427   5.786
 5927TIP3   OH217725   4.502   1.370   4.151
 5927TIP3    H117726   4.597   1.363   4.132
 5927TIP3    H217727   4.474   1.423   4.074
 5928TIP3   OH217728   3.980   0.755   4.364
 5928TIP3    H117729   4.075   0.776   4.351
 5928TIP3    H217730   3.974   0.666   4.323
 5929TIP3   OH217731   3.894   1.365   4.785
 5929TIP3    H117732   3.830   1.303   4.744
 5929TIP3    H217733   3.940   1.305   4.848
 5930TIP3   OH217734   4.031   1.210   4.968
 5930TIP3    H117735   4.019   1.142   5.035
 5930TIP3    H217736   4.084   1.275   5.019
 5931TIP3   OH217737   5.761   1.612   4.769
 5931TIP3    H117738   5.784   1.649   4.856
 5931TIP3    H217739   5.821   1.660   4.710
 5932TIP3   OH217740   5.784   1.636   5.051
 5932TIP3    H117741   5.742   1.548   5.047
 5932TIP3    H217742   5.862   1.616   5.104
 5933TIP3   OH217743   5.845   1.301   5.638
 5933TIP3    H117744   5.767   1.320   5.694
 5933TIP3    H217745   5.885   1.390   5.631
 5934TIP3   OH217746   5.651   0.825   4.238
 5934TIP3    H117747   5.716   0.892   4.209
 5934TIP3    H217748   5.695   0.790   4.318
 5935TIP3   OH217749   5.776   0.699   4.443
 5935TIP3    H117750   5.709   0.661   4.505
 5935TIP3    H217751   5.842   0.738   4.504
 5936TIP3   OH217752   5.835   1.088   4.879
 5936TIP3    H117753   5.885   1.020   4.830
 5936TIP3    H217754   5.831   1.161   4.815
 5937TIP3   OH217755   5.661   1.383   5.075
 5937TIP3    H117756   5.589   1.430   5.122
 5937TIP3    H217757   5.612   1.340   5.001
 5938TIP3   OH217758   5.708   0.599   4.092
 5938TIP3    H117759   5.639   0.610   4.022
 5938TIP3    H217760   5.685   0.676   4.148
 5939TIP3   OH217761   5.578   0.260   4.032
 5939TIP3    H117762   5.560   0.343   3.986
 5939TIP3    H217763   5.526   0.197   3.978
 5940TIP3   OH217764   5.588   0.566   4.589
 5940TIP3    H117765   5.592   0.472   4.566
 5940TIP3    H217766   5.576   0.566   4.687
 5941TIP3   OH217767   4.215   0.623   5.341
 5941TIP3    H117768   4.211   0.593   5.247
 5941TIP3    H217769   4.312   0.625   5.356
 5942TIP3   OH217770   5.882   0.973   5.438
 5942TIP3    H117771   5.955   0.909   5.425
 5942TIP3    H217772   5.901   1.041   5.371
 5943TIP3   OH217773   6.061   0.774   5.469
 5943TIP3    H117774   5.987   0.720   5.505
 5943TIP3    H217775   6.137   0.714   5.487
 5944TIP3   OH217776   5.590   0.314   4.459
 5944TIP3    H117777   5.620   0.235   4.511
 5944TIP3    H217778   5.654   0.316   4.385
 5945TIP3   OH217779   5.744   0.446   4.990
 5945TIP3    H117780   5.830   0.469   4.946
 5945TIP3    H217781   5.762   0.480   5.079
 5946TIP3   OH217782   5.813   0.598   5.215
 5946TIP3    H117783   5.732   0.633   5.257
 5946TIP3    H217784   5.846   0.676   5.166
 5947TIP3   OH217785   4.431   0.305   6.016
 5947TIP3    H117786   4.521   0.279   5.995
 5947TIP3    H217787   4.394   0.222   6.052
 5948TIP3   OH217788   4.194   0.276   5.416
 5948TIP3    H117789   4.240   0.279   5.329
 5948TIP3    H217790   4.222   0.359   5.455
 5949TIP3   OH217791   5.341   1.483   4.423
 5949TIP3    H117792   5.394   1.475   4.341
 5949TIP3    H217793   5.390   1.551   4.472
 5950TIP3   OH217794   4.442   1.286   5.803
 5950TIP3    H117795   4.348   1.263   5.793
 5950TIP3    H217796   4.455   1.280   5.898
 5951TIP3   OH217797   4.621   1.321   5.352
 5951TIP3    H117798   4.574   1.399   5.314
 5951TIP3    H217799   4.708   1.336   5.308
 5952TIP3   OH217800   5.069   1.554   5.485
 5952TIP3    H117801   5.105   1.561   5.577
 5952TIP3    H217802   5.132   1.613   5.438
 5953TIP3   OH217803   5.244   1.719   5.355
 5953TIP3    H117804   5.316   1.671   5.312
 5953TIP3    H217805   5.294   1.778   5.416
 5954TIP3   OH217806   4.294   1.576   5.382
 5954TIP3    H117807   4.204   1.608   5.359
 5954TIP3    H217808   4.308   1.624   5.465
 5955TIP3   OH217809   4.530   1.555   5.239
 5955TIP3    H117810   4.443   1.567   5.282
 5955TIP3    H217811   4.513   1.588   5.148
 5956TIP3   OH217812   4.958   1.582   5.037
 5956TIP3    H117813   4.889   1.602   4.972
 5956TIP3    H217814   4.970   1.670   5.080
 5957TIP3   OH217815   5.228   1.520   5.088
 5957TIP3    H117816   5.134   1.540   5.070
 5957TIP3    H217817   5.272   1.595   5.046
 5958TIP3   OH217818   5.432   1.712   5.001
 5958TIP3    H117819   5.419   1.797   4.954
 5958TIP3    H217820   5.459   1.653   4.927
 5959TIP3   OH217821   4.207   1.369   5.124
 5959TIP3    H117822   4.234   1.342   5.214
 5959TIP3    H217823   4.279   1.327   5.073
 5960TIP3   OH217824   4.403   1.243   4.984
 5960TIP3    H117825   4.418   1.160   5.034
 5960TIP3    H217826   4.494   1.279   4.980
 5961TIP3   OH217827   4.670   1.334   4.989
 5961TIP3    H117828   4.700   1.242   4.979
 5961TIP3    H217829   4.717   1.359   5.071
 5962TIP3   OH217830   3.995   1.147   4.513
 5962TIP3    H117831   3.909   1.114   4.481
 5962TIP3    H217832   3.987   1.241   4.486
 5963TIP3   OH217833   4.769   1.327   4.099
 5963TIP3    H117834   4.856   1.351   4.062
 5963TIP3    H217835   4.746   1.253   4.038
 5964TIP3   OH217836   5.489   1.452   4.192
 5964TIP3    H117837   5.480   1.354   4.180
 5964TIP3    H217838   5.442   1.483   4.112
 5965TIP3   OH217839   4.071   1.164   4.151
 5965TIP3    H117840   4.076   1.188   4.245
 5965TIP3    H217841   4.159   1.122   4.136
 5966TIP3   OH217842   5.710   1.591   5.378
 5966TIP3    H117843   5.632   1.563   5.326
 5966TIP3    H217844   5.694   1.688   5.382
 5967TIP3   OH217845   6.979   0.963   4.144
 5967TIP3    H117846   6.950   1.055   4.124
 5967TIP3    H217847   6.903   0.915   4.106
 5968TIP3   OH217848   6.982   0.968   4.528
 5968TIP3    H117849   7.013   0.944   4.617
 5968TIP3    H217850   6.938   0.887   4.498
 5969TIP3   OH217851   6.275   0.863   4.893
 5969TIP3    H117852   6.308   0.791   4.950
 5969TIP3    H217853   6.358   0.909   4.873
 5970TIP3   OH217854   7.228   1.266   4.210
 5970TIP3    H117855   7.208   1.202   4.279
 5970TIP3    H217856   7.254   1.344   4.262
 5971TIP3   OH217857   6.251   1.271   4.612
 5971TIP3    H117858   6.243   1.173   4.614
 5971TIP3    H217859   6.348   1.280   4.605
 5972TIP3   OH217860   5.943   0.483   4.413
 5972TIP3    H117861   5.889   0.564   4.423
 5972TIP3    H217862   5.886   0.430   4.356
 5973TIP3   OH217863   6.007   0.771   4.572
 5973TIP3    H117864   6.049   0.688   4.602
 5973TIP3    H217865   6.075   0.807   4.513
 5974TIP3   OH217866   6.875   1.732   4.226
 5974TIP3    H117867   6.916   1.661   4.173
 5974TIP3    H217868   6.865   1.689   4.312
 5975TIP3   OH217869   6.776   1.193   4.575
 5975TIP3    H117870   6.816   1.117   4.529
 5975TIP3    H217871   6.858   1.240   4.600
 5976TIP3   OH217872   7.196   0.693   4.620
 5976TIP3    H117873   7.213   0.602   4.648
 5976TIP3    H217874   7.158   0.682   4.531
 5977TIP3   OH217875   6.512   0.313   4.544
 5977TIP3    H117876   6.489   0.401   4.507
 5977TIP3    H217877   6.433   0.262   4.522
 5978TIP3   OH217878   7.184   0.467   4.244
 5978TIP3    H117879   7.245   0.421   4.306
 5978TIP3    H217880   7.240   0.470   4.165
 5979TIP3   OH217881   6.137   0.553   4.668
 5979TIP3    H117882   6.229   0.557   4.703
 5979TIP3    H217883   6.152   0.492   4.593
 5980TIP3   OH217884   6.596   0.755   4.477
 5980TIP3    H117885   6.691   0.730   4.491
 5980TIP3    H217886   6.558   0.668   4.450
 5981TIP3   OH217887   7.820   0.701   4.764
 5981TIP3    H117888   7.747   0.760   4.737
 5981TIP3    H217889   7.886   0.762   4.800
 5982TIP3   OH217890   6.862   1.182   4.016
 5982TIP3    H117891   6.831   1.174   3.925
 5982TIP3    H217892   6.821   1.267   4.042
 5983TIP3   OH217893   6.632   1.112   4.796
 5983TIP3    H117894   6.572   1.181   4.832
 5983TIP3    H217895   6.674   1.159   4.721
 5984TIP3   OH217896   6.394   0.523   4.736
 5984TIP3    H117897   6.465   0.564   4.789
 5984TIP3    H217898   6.425   0.431   4.733
 5985TIP3   OH217899   6.462   1.309   4.896
 5985TIP3    H117900   6.437   1.396   4.859
 5985TIP3    H217901   6.382   1.291   4.950
 5986TIP3   OH217902   5.850   0.998   4.132
 5986TIP3    H117903   5.811   1.027   4.048
 5986TIP3    H217904   5.883   1.083   4.169
 5987TIP3   OH217905   7.293   1.514   4.371
 5987TIP3    H117906   7.204   1.505   4.412
 5987TIP3    H217907   7.284   1.600   4.326
 5988TIP3   OH217908   6.990   1.558   4.044
 5988TIP3    H117909   7.039   1.475   4.025
 5988TIP3    H217910   7.053   1.622   4.004
 5989TIP3   OH217911   7.131   1.341   3.961
 5989TIP3    H117912   7.112   1.261   3.910
 5989TIP3    H217913   7.170   1.304   4.043
 5990TIP3   OH217914   7.522   1.423   4.718
 5990TIP3    H117915   7.506   1.346   4.659
 5990TIP3    H217916   7.500   1.498   4.659
 5991TIP3   OH217917   6.810   0.823   3.973
 5991TIP3    H117918   6.730   0.875   3.954
 5991TIP3    H217919   6.852   0.819   3.885
 5992TIP3   OH217920   6.766   0.602   3.691
 5992TIP3    H117921   6.837   0.654   3.733
 5992TIP3    H217922   6.819   0.537   3.642
 5993TIP3   OH217923   7.706   1.058   4.556
 5993TIP3    H117924   7.625   1.113   4.561
 5993TIP3    H217925   7.742   1.087   4.469
 5994TIP3   OH217926   7.156   0.900   3.944
 5994TIP3    H117927   7.101   0.924   4.022
 5994TIP3    H217928   7.241   0.880   3.987
 5995TIP3   OH217929   7.388   0.941   4.866
 5995TIP3    H117930   7.384   1.023   4.918
 5995TIP3    H217931   7.302   0.944   4.821
 5996TIP3   OH217932   6.389   0.898   4.364
 5996TIP3    H117933   6.350   0.838   4.296
 5996TIP3    H217934   6.466   0.845   4.395
 5997TIP3   OH217935   6.519   1.308   4.511
 5997TIP3    H117936   6.500   1.275   4.422
 5997TIP3    H217937   6.608   1.272   4.529
 5998TIP3   OH217938   6.523   0.867   4.725
 5998TIP3    H117939   6.554   0.839   4.636
 5998TIP3    H217940   6.570   0.953   4.737
 5999TIP3   OH217941   7.054   1.507   4.495
 5999TIP3    H117942   7.039   1.588   4.547
 5999TIP3    H217943   7.036   1.435   4.559
 6000TIP3   OH217944   6.666   1.425   5.043
 6000TIP3    H117945   6.604   1.487   5.088
 6000TIP3    H217946   6.602   1.372   4.990
 6001TIP3   OH217947   6.997   0.757   3.769
 6001TIP3    H117948   7.054   0.820   3.819
 6001TIP3    H217949   7.025   0.777   3.676
 6002TIP3   OH217950   6.413   0.990   5.144
 6002TIP3    H117951   6.416   1.077   5.190
 6002TIP3    H217952   6.318   0.968   5.153
 6003TIP3   OH217953   6.744   1.436   4.049
 6003TIP3    H117954   6.827   1.487   4.056
 6003TIP3    H217955   6.684   1.499   4.005
 6004TIP3   OH217956   6.459   1.590   5.129
 6004TIP3    H117957   6.424   1.595   5.038
 6004TIP3    H217958   6.379   1.568   5.181
 6005TIP3   OH217959   6.257   0.740   4.166
 6005TIP3    H117960   6.189   0.786   4.112
 6005TIP3    H217961   6.217   0.653   4.178
 6006TIP3   OH217962   7.300   1.374   3.396
 6006TIP3    H117963   7.322   1.461   3.358
 6006TIP3    H217964   7.350   1.314   3.340
 6007TIP3   OH217965   6.035   1.127   5.076
 6007TIP3    H117966   5.969   1.108   5.005
 6007TIP3    H217967   6.074   1.039   5.093
 6008TIP3   OH217968   5.892   1.317   4.710
 6008TIP3    H117969   5.988   1.314   4.700
 6008TIP3    H217970   5.880   1.398   4.762
 6009TIP3   OH217971   7.761   1.776   4.767
 6009TIP3    H117972   7.759   1.679   4.781
 6009TIP3    H217973   7.676   1.800   4.811
 6010TIP3   OH217974   6.862   1.553   4.900
 6010TIP3    H117975   6.858   1.646   4.931
 6010TIP3    H217976   6.790   1.513   4.954
 6011TIP3   OH217977   6.625   1.681   3.852
 6011TIP3    H117978   6.580   1.665   3.768
 6011TIP3    H217979   6.591   1.768   3.878
 6012TIP3   OH217980   6.061   1.531   4.237
 6012TIP3    H117981   6.109   1.523   4.322
 6012TIP3    H217982   6.007   1.451   4.239
 6013TIP3   OH217983   6.827   1.579   3.487
 6013TIP3    H117984   6.885   1.508   3.451
 6013TIP3    H217985   6.863   1.590   3.577
 6014TIP3   OH217986   6.876   1.635   3.757
 6014TIP3    H117987   6.788   1.644   3.800
 6014TIP3    H217988   6.928   1.595   3.828
 6015TIP3   OH217989   7.640   0.884   5.041
 6015TIP3    H117990   7.562   0.914   4.993
 6015TIP3    H217991   7.631   0.788   5.033
 6016TIP3   OH217992   6.242   1.307   5.059
 6016TIP3    H117993   6.290   1.293   5.143
 6016TIP3    H217994   6.167   1.245   5.067
 6017TIP3   OH217995   7.420   0.684   4.985
 6017TIP3    H117996   7.386   0.714   5.070
 6017TIP3    H217997   7.399   0.758   4.926
 6018TIP3   OH217998   7.082   0.795   3.514
 6018TIP3    H117999   7.042   0.777   3.427
 6018TIP3    H218000   7.150   0.860   3.489
 6019TIP3   OH218001   6.592   0.653   4.884
 6019TIP3    H118002   6.530   0.672   4.957
 6019TIP3    H218003   6.578   0.731   4.827
 6020TIP3   OH218004   6.457   0.533   4.389
 6020TIP3    H118005   6.361   0.514   4.399
 6020TIP3    H218006   6.473   0.503   4.296
 6021TIP3   OH218007   6.940   0.623   4.109
 6021TIP3    H118008   6.894   0.696   4.063
 6021TIP3    H218009   7.007   0.596   4.043
 6022TIP3   OH218010   7.131   0.925   5.180
 6022TIP3    H118011   7.105   0.845   5.231
 6022TIP3    H218012   7.225   0.932   5.204
 6023TIP3   OH218013   7.084   0.687   4.368
 6023TIP3    H118014   7.029   0.733   4.302
 6023TIP3    H218015   7.107   0.606   4.316
 6024TIP3   OH218016   6.392   0.681   5.076
 6024TIP3    H118017   6.420   0.743   5.145
 6024TIP3    H218018   6.379   0.598   5.124
 6025TIP3   OH218019   6.026   0.291   4.213
 6025TIP3    H118020   6.042   0.293   4.116
 6025TIP3    H218021   5.930   0.311   4.213
 6026TIP3   OH218022   7.109   0.897   4.770
 6026TIP3    H118023   7.148   0.826   4.713
 6026TIP3    H218024   7.086   0.843   4.848
 6027TIP3   OH218025   6.203   0.410   4.430
 6027TIP3    H118026   6.111   0.444   4.417
 6027TIP3    H218027   6.198   0.331   4.375
 6028TIP3   OH218028   6.497   0.430   4.140
 6028TIP3    H118029   6.588   0.417   4.108
 6028TIP3    H218030   6.443   0.419   4.059
 6029TIP3   OH218031   6.332   0.411   3.912
 6029TIP3    H118032   6.258   0.397   3.850
 6029TIP3    H218033   6.393   0.459   3.852
 6030TIP3   OH218034   7.450   2.119   4.865
 6030TIP3    H118035   7.446   2.144   4.771
 6030TIP3    H218036   7.528   2.169   4.896
 6031TIP3   OH218037   6.401   1.231   5.288
 6031TIP3    H118038   6.484   1.259   5.332
 6031TIP3    H218039   6.339   1.237   5.363
 6032TIP3   OH218040   6.853   0.685   4.539
 6032TIP3    H118041   6.938   0.658   4.502
 6032TIP3    H218042   6.859   0.651   4.632
 6033TIP3   OH218043   6.865   0.616   4.800
 6033TIP3    H118044   6.776   0.609   4.839
 6033TIP3    H218045   6.916   0.658   4.872
 6034TIP3   OH218046   6.578   0.970   3.922
 6034TIP3    H118047   6.505   0.906   3.911
 6034TIP3    H218048   6.559   1.005   4.013
 6035TIP3   OH218049   7.477   1.208   4.552
 6035TIP3    H118050   7.500   1.259   4.471
 6035TIP3    H218051   7.392   1.165   4.526
 6036TIP3   OH218052   7.016   0.352   3.744
 6036TIP3    H118053   6.957   0.303   3.805
 6036TIP3    H218054   7.053   0.419   3.806
 6037TIP3   OH218055   6.978   1.290   4.921
 6037TIP3    H118056   7.008   1.272   5.011
 6037TIP3    H218057   6.941   1.379   4.927
 6038TIP3   OH218058   7.116   0.548   3.907
 6038TIP3    H118059   7.213   0.559   3.915
 6038TIP3    H218060   7.090   0.625   3.853
 6039TIP3   OH218061   6.273   0.991   4.598
 6039TIP3    H118062   6.311   0.965   4.511
 6039TIP3    H218063   6.321   0.933   4.658
 6040TIP3   OH218064   6.728   1.119   3.745
 6040TIP3    H118065   6.678   1.205   3.748
 6040TIP3    H218066   6.674   1.065   3.806
 6041TIP3   OH218067   6.152   0.915   5.217
 6041TIP3    H118068   6.175   0.894   5.309
 6041TIP3    H218069   6.084   0.849   5.195
 6042TIP3   OH218070   6.880   1.032   5.236
 6042TIP3    H118071   6.820   0.978   5.182
 6042TIP3    H218072   6.968   1.003   5.203
 6043TIP3   OH218073   7.139   1.547   4.819
 6043TIP3    H118074   7.042   1.547   4.832
 6043TIP3    H218075   7.167   1.601   4.896
 6044TIP3   OH218076   7.546   0.621   3.711
 6044TIP3    H118077   7.487   0.571   3.651
 6044TIP3    H218078   7.533   0.711   3.675
 6045TIP3   OH218079   7.773   1.486   4.803
 6045TIP3    H118080   7.675   1.476   4.794
 6045TIP3    H218081   7.802   1.456   4.714
 6046TIP3   OH218082   7.249   1.444   3.654
 6046TIP3    H118083   7.214   1.367   3.700
 6046TIP3    H218084   7.263   1.409   3.563
 6047TIP3   OH218085   7.245   1.072   4.468
 6047TIP3    H118086   7.152   1.046   4.482
 6047TIP3    H218087   7.279   0.993   4.422
 6048TIP3   OH218088   6.376   1.299   4.226
 6048TIP3    H118089   6.374   1.379   4.171
 6048TIP3    H218090   6.282   1.282   4.237
 6049TIP3   OH218091   5.935   0.601   3.931
 6049TIP3    H118092   5.982   0.685   3.951
 6049TIP3    H218093   5.860   0.607   3.994
 6050TIP3   OH218094   6.505   1.060   4.166
 6050TIP3    H118095   6.473   1.151   4.186
 6050TIP3    H218096   6.471   1.011   4.243
 6051TIP3   OH218097   6.644   1.640   4.692
 6051TIP3    H118098   6.686   1.713   4.642
 6051TIP3    H218099   6.721   1.604   4.739
 6052TIP3   OH218100   6.292   1.536   4.076
 6052TIP3    H118101   6.207   1.546   4.123
 6052TIP3    H218102   6.326   1.629   4.079
 6053TIP3   OH218103   7.028   1.274   4.653
 6053TIP3    H118104   7.017   1.273   4.751
 6053TIP3    H218105   7.108   1.221   4.642
 6054TIP3   OH218106   6.987   1.172   3.554
 6054TIP3    H118107   7.053   1.148   3.621
 6054TIP3    H218108   6.905   1.146   3.598
 6055TIP3   OH218109   7.280   1.805   4.701
 6055TIP3    H118110   7.198   1.751   4.695
 6055TIP3    H218111   7.264   1.871   4.629
 6056TIP3   OH218112   7.350   1.650   3.347
 6056TIP3    H118113   7.376   1.732   3.301
 6056TIP3    H218114   7.266   1.681   3.386
 6057TIP3   OH218115   7.168   1.107   3.758
 6057TIP3    H118116   7.160   1.036   3.824
 6057TIP3    H218117   7.264   1.101   3.737
 6058TIP3   OH218118   6.081   1.502   4.851
 6058TIP3    H118119   6.138   1.433   4.889
 6058TIP3    H218120   6.108   1.579   4.903
 6059TIP3   OH218121   6.367   1.150   3.536
 6059TIP3    H118122   6.388   1.058   3.510
 6059TIP3    H218123   6.348   1.139   3.631
 6060TIP3   OH218124   6.314   1.153   3.809
 6060TIP3    H118125   6.391   1.128   3.862
 6060TIP3    H218126   6.318   1.252   3.816
 6061TIP3   OH218127   6.048   0.844   4.013
 6061TIP3    H118128   5.983   0.892   4.069
 6061TIP3    H218129   6.063   0.912   3.944
 6062TIP3   OH218130   6.583   1.347   3.755
 6062TIP3    H118131   6.496   1.374   3.791
 6062TIP3    H218132   6.601   1.423   3.697
 6063TIP3   OH218133   6.784   0.402   4.129
 6063TIP3    H118134   6.835   0.486   4.125
 6063TIP3    H218135   6.793   0.380   4.223
 6064TIP3   OH218136   7.054   0.734   4.981
 6064TIP3    H118137   7.051   0.796   5.056
 6064TIP3    H218138   7.102   0.660   5.021
 6065TIP3   OH218139   6.328   1.425   3.825
 6065TIP3    H118140   6.299   1.496   3.763
 6065TIP3    H218141   6.312   1.468   3.912
 6066TIP3   OH218142   7.332   0.829   4.348
 6066TIP3    H118143   7.252   0.778   4.370
 6066TIP3    H218144   7.402   0.781   4.397
 6067TIP3   OH218145   6.045   1.051   3.816
 6067TIP3    H118146   6.115   1.118   3.826
 6067TIP3    H218147   6.089   0.993   3.749
 6068TIP3   OH218148   5.988   0.331   3.941
 6068TIP3    H118149   5.982   0.428   3.932
 6068TIP3    H218150   5.899   0.303   3.918
 6069TIP3   OH218151   7.300   1.784   4.294
 6069TIP3    H118152   7.257   1.831   4.219
 6069TIP3    H218153   7.394   1.804   4.274
 6070TIP3   OH218154   5.909   1.264   4.199
 6070TIP3    H118155   5.848   1.298   4.266
 6070TIP3    H218156   5.876   1.310   4.118
 6071TIP3   OH218157   6.075   1.817   5.275
 6071TIP3    H118158   6.161   1.820   5.323
 6071TIP3    H218159   6.056   1.722   5.274
 6072TIP3   OH218160   6.549   1.771   5.322
 6072TIP3    H118161   6.645   1.758   5.326
 6072TIP3    H218162   6.525   1.710   5.249
 6073TIP3   OH218163   6.534   1.350   3.444
 6073TIP3    H118164   6.480   1.277   3.482
 6073TIP3    H218165   6.612   1.301   3.411
 6074TIP3   OH218166   7.192   1.683   5.053
 6074TIP3    H118167   7.185   1.614   5.123
 6074TIP3    H218168   7.268   1.735   5.083
 6075TIP3   OH218169   6.974   1.382   3.358
 6075TIP3    H118170   7.016   1.314   3.414
 6075TIP3    H218171   7.035   1.385   3.281
 6076TIP3   OH218172   6.198   1.212   5.480
 6076TIP3    H118173   6.219   1.118   5.472
 6076TIP3    H218174   6.114   1.219   5.429
 6077TIP3   OH218175   6.180   0.864   3.672
 6077TIP3    H118176   6.239   0.836   3.745
 6077TIP3    H218177   6.246   0.870   3.599
 6078TIP3   OH218178   6.808   1.306   5.250
 6078TIP3    H118179   6.768   1.326   5.163
 6078TIP3    H218180   6.838   1.213   5.239
 6079TIP3   OH218181   6.679   1.066   3.477
 6079TIP3    H118182   6.691   1.080   3.573
 6079TIP3    H218183   6.689   0.968   3.472
 6080TIP3   OH218184   7.302   1.317   4.857
 6080TIP3    H118185   7.378   1.360   4.813
 6080TIP3    H218186   7.232   1.384   4.841
 6081TIP3   OH218187   6.327   0.948   5.460
 6081TIP3    H118188   6.412   0.913   5.430
 6081TIP3    H218189   6.352   0.986   5.546
 6082TIP3   OH218190   6.381   0.775   3.889
 6082TIP3    H118191   6.362   0.736   3.975
 6082TIP3    H218192   6.422   0.700   3.840
 6083TIP3   OH218193   6.656   0.866   5.118
 6083TIP3    H118194   6.573   0.920   5.112
 6083TIP3    H218195   6.704   0.894   5.036
 6084TIP3   OH218196   6.488   0.566   3.738
 6084TIP3    H118197   6.462   0.574   3.644
 6084TIP3    H218198   6.586   0.569   3.730
 6085TIP3   OH218199   7.177   1.241   5.253
 6085TIP3    H118200   7.247   1.204   5.198
 6085TIP3    H218201   7.165   1.172   5.320
 6086TIP3   OH218202   7.303   0.923   3.384
 6086TIP3    H118203   7.278   0.873   3.304
 6086TIP3    H218204   7.305   1.012   3.346
 6087TIP3   OH218205   6.743   0.645   5.240
 6087TIP3    H118206   6.696   0.584   5.180
 6087TIP3    H218207   6.718   0.731   5.199
 6088TIP3   OH218208   6.818   0.955   4.923
 6088TIP3    H118209   6.900   0.962   4.872
 6088TIP3    H218210   6.760   1.018   4.875
 6089TIP3   OH218211   7.383   0.916   5.284
 6089TIP3    H118212   7.416   0.859   5.358
 6089TIP3    H218213   7.462   0.965   5.260
 6090TIP3   OH218214   7.433   1.170   5.041
 6090TIP3    H118215   7.374   1.225   4.983
 6090TIP3    H218216   7.520   1.193   5.001
 6091TIP3   OH218217   6.615   0.767   5.470
 6091TIP3    H118218   6.590   0.683   5.508
 6091TIP3    H218219   6.679   0.740   5.402
 6092TIP3   OH218220   7.023   0.700   5.276
 6092TIP3    H118221   7.050   0.665   5.363
 6092TIP3    H218222   6.927   0.685   5.279
 6093TIP3   OH218223   6.299   1.627   3.637
 6093TIP3    H118224   6.395   1.619   3.618
 6093TIP3    H218225   6.272   1.680   3.560
 6094TIP3   OH218226   5.776   1.011   3.851
 6094TIP3    H118227   5.871   1.032   3.837
 6094TIP3    H218228   5.770   0.922   3.810
 6095TIP3   OH218229   5.694   1.621   4.268
 6095TIP3    H118230   5.627   1.561   4.229
 6095TIP3    H218231   5.737   1.561   4.333
 6096TIP3   OH218232   5.828   1.466   4.453
 6096TIP3    H118233   5.814   1.399   4.522
 6096TIP3    H218234   5.880   1.531   4.504
 6097TIP3   OH218235   7.555   1.869   4.255
 6097TIP3    H118236   7.581   1.908   4.341
 6097TIP3    H218237   7.622   1.907   4.195
 6098TIP3   OH218238   7.580   1.894   4.538
 6098TIP3    H118239   7.536   1.806   4.533
 6098TIP3    H218240   7.659   1.871   4.588
 6099TIP3   OH218241   7.632   1.568   5.113
 6099TIP3    H118242   7.557   1.579   5.176
 6099TIP3    H218243   7.670   1.658   5.114
 6100TIP3   OH218244   7.445   1.081   3.723
 6100TIP3    H118245   7.508   1.150   3.693
 6100TIP3    H218246   7.490   1.049   3.804
 6101TIP3   OH218247   7.568   0.966   3.937
 6101TIP3    H118248   7.498   0.919   3.989
 6101TIP3    H218249   7.623   1.003   4.007
 6102TIP3   OH218250   7.631   1.344   4.366
 6102TIP3    H118251   7.677   1.280   4.309
 6102TIP3    H218252   7.625   1.422   4.307
 6103TIP3   OH218253   7.457   1.642   4.560
 6103TIP3    H118254   7.386   1.686   4.610
 6103TIP3    H218255   7.407   1.598   4.488
 6104TIP3   OH218256   7.495   0.857   3.571
 6104TIP3    H118257   7.428   0.874   3.501
 6104TIP3    H218258   7.476   0.933   3.629
 6105TIP3   OH218259   7.373   0.515   3.518
 6105TIP3    H118260   7.358   0.599   3.473
 6105TIP3    H218261   7.320   0.455   3.463
 6106TIP3   OH218262   7.385   0.822   4.075
 6106TIP3    H118263   7.389   0.727   4.051
 6106TIP3    H218264   7.373   0.820   4.173
 6107TIP3   OH218265   6.011   0.878   4.828
 6107TIP3    H118266   6.008   0.849   4.735
 6107TIP3    H218267   6.109   0.882   4.843
 6108TIP3   OH218268   7.679   1.234   4.935
 6108TIP3    H118269   7.751   1.167   4.926
 6108TIP3    H218270   7.703   1.299   4.867
 6109TIP3   OH218271   7.855   1.029   4.959
 6109TIP3    H118272   7.781   0.975   4.992
 6109TIP3    H218273   7.930   0.967   4.973
 6110TIP3   OH218274   7.388   0.572   3.945
 6110TIP3    H118275   7.417   0.493   3.997
 6110TIP3    H218276   7.452   0.574   3.872
 6111TIP3   OH218277   7.542   0.705   4.473
 6111TIP3    H118278   7.626   0.729   4.429
 6111TIP3    H218279   7.560   0.738   4.563
 6112TIP3   OH218280   7.604   0.852   4.703
 6112TIP3    H118281   7.526   0.888   4.749
 6112TIP3    H218282   7.636   0.931   4.653
 6113TIP3   OH218283   6.230   0.561   5.508
 6113TIP3    H118284   6.316   0.537   5.472
 6113TIP3    H218285   6.196   0.474   5.534
 6114TIP3   OH218286   5.989   0.533   4.902
 6114TIP3    H118287   6.035   0.533   4.815
 6114TIP3    H218288   6.021   0.616   4.940
 6115TIP3   OH218289   7.138   1.741   3.910
 6115TIP3    H118290   7.189   1.730   3.828
 6115TIP3    H218291   7.190   1.807   3.958
 6116TIP3   OH218292   6.239   1.541   5.293
 6116TIP3    H118293   6.145   1.521   5.279
 6116TIP3    H218294   6.247   1.535   5.389
 6117TIP3   OH218295   6.419   1.580   4.842
 6117TIP3    H118296   6.371   1.656   4.803
 6117TIP3    H218297   6.504   1.594   4.797
 6118TIP3   OH218298   6.858   1.820   4.979
 6118TIP3    H118299   6.900   1.820   5.068
 6118TIP3    H218300   6.923   1.873   4.928
 6119TIP3   OH218301   7.038   1.975   4.842
 6119TIP3    H118302   7.108   1.926   4.798
 6119TIP3    H218303   7.090   2.032   4.903
 6120TIP3   OH218304   6.092   1.832   4.870
 6120TIP3    H118305   6.001   1.862   4.847
 6120TIP3    H218306   6.107   1.885   4.950
 6121TIP3   OH218307   6.328   1.812   4.726
 6121TIP3    H118308   6.240   1.825   4.769
 6121TIP3    H218309   6.310   1.845   4.636
 6122TIP3   OH218310   6.754   1.838   4.524
 6122TIP3    H118311   6.685   1.857   4.458
 6122TIP3    H218312   6.766   1.927   4.565
 6123TIP3   OH218313   7.024   1.778   4.576
 6123TIP3    H118314   6.930   1.796   4.557
 6123TIP3    H218315   7.068   1.851   4.531
 6124TIP3   OH218316   7.228   1.969   4.488
 6124TIP3    H118317   7.215   2.054   4.440
 6124TIP3    H218318   7.256   1.910   4.414
 6125TIP3   OH218319   6.003   1.626   4.609
 6125TIP3    H118320   6.029   1.599   4.700
 6125TIP3    H218321   6.077   1.584   4.559
 6126TIP3   OH218322   6.200   1.499   4.470
 6126TIP3    H118323   6.215   1.415   4.520
 6126TIP3    H218324   6.291   1.535   4.466
 6127TIP3   OH218325   6.466   1.591   4.476
 6127TIP3    H118326   6.497   1.500   4.464
 6127TIP3    H218327   6.514   1.615   4.557
 6128TIP3   OH218328   5.792   1.404   4.000
 6128TIP3    H118329   5.705   1.372   3.968
 6128TIP3    H218330   5.784   1.498   3.976
 6129TIP3   OH218331   6.567   1.583   3.585
 6129TIP3    H118332   6.655   1.605   3.548
 6129TIP3    H218333   6.544   1.509   3.524
 6130TIP3   OH218334   7.287   1.710   3.679
 6130TIP3    H118335   7.277   1.612   3.675
 6130TIP3    H218336   7.238   1.737   3.599
 6131TIP3   OH218337   5.866   1.420   3.638
 6131TIP3    H118338   5.870   1.445   3.731
 6131TIP3    H218339   5.955   1.379   3.624
 6132TIP3   OH218340   7.510   1.849   4.863
 6132TIP3    H118341   7.432   1.819   4.813
 6132TIP3    H218342   7.490   1.945   4.869
 6133TIP3   OH218343   8.027   1.503   4.144
 6133TIP3    H118344   7.990   1.440   4.082
 6133TIP3    H218345   8.119   1.509   4.112
 6134TIP3   OH218346   7.753   0.760   3.922
 6134TIP3    H118347   7.679   0.822   3.906
 6134TIP3    H218348   7.732   0.688   3.861
 6135TIP3   OH218349   7.833   1.014   4.059
 6135TIP3    H118350   7.837   0.919   4.037
 6135TIP3    H218351   7.868   1.053   3.978
 6136TIP3   OH218352   7.647   1.250   3.621
 6136TIP3    H118353   7.603   1.274   3.536
 6136TIP3    H218354   7.671   1.339   3.655
 6137TIP3   OH218355   8.215   1.876   4.584
 6137TIP3    H118356   8.177   1.878   4.496
 6137TIP3    H218357   8.137   1.874   4.642
 6138TIP3   OH218358   7.839   1.390   4.557
 6138TIP3    H118359   7.766   1.363   4.497
 6138TIP3    H218360   7.870   1.305   4.594
 6139TIP3   OH218361   7.692   1.575   4.198
 6139TIP3    H118362   7.789   1.581   4.198
 6139TIP3    H218363   7.669   1.654   4.249
 6140TIP3   OH218364   7.829   1.784   3.719
 6140TIP3    H118365   7.906   1.791   3.777
 6140TIP3    H218366   7.791   1.700   3.749
 6141TIP3   OH218367   8.043   1.571   4.533
 6141TIP3    H118368   8.094   1.538   4.611
 6141TIP3    H218369   7.966   1.511   4.536
 6142TIP3   OH218370   7.814   0.546   3.689
 6142TIP3    H118371   7.830   0.558   3.594
 6142TIP3    H218372   7.718   0.561   3.695
 6143TIP3   OH218373   8.184   1.468   4.746
 6143TIP3    H118374   8.255   1.531   4.769
 6143TIP3    H218375   8.137   1.460   4.830
 6144TIP3   OH218376   7.928   1.181   4.705
 6144TIP3    H118377   7.975   1.169   4.790
 6144TIP3    H218378   7.874   1.101   4.699
 6145TIP3   OH218379   7.734   0.846   3.423
 6145TIP3    H118380   7.778   0.933   3.437
 6145TIP3    H218381   7.653   0.858   3.477
 6146TIP3   OH218382   7.876   1.758   4.339
 6146TIP3    H118383   7.935   1.692   4.380
 6146TIP3    H218384   7.903   1.840   4.383
 6147TIP3   OH218385   7.835   1.101   3.485
 6147TIP3    H118386   7.768   1.141   3.545
 6147TIP3    H218387   7.829   1.159   3.407
 6148TIP3   OH218388   7.839   1.287   3.280
 6148TIP3    H118389   7.909   1.347   3.313
 6148TIP3    H218390   7.866   1.275   3.186
 6149TIP3   OH218391   7.791   0.581   3.412
 6149TIP3    H118392   7.782   0.679   3.415
 6149TIP3    H218393   7.699   0.554   3.400
 6150TIP3   OH218394   7.690   1.512   3.687
 6150TIP3    H118395   7.627   1.551   3.750
 6150TIP3    H218396   7.671   1.564   3.605
 6151TIP3   OH218397   7.868   2.068   4.761
 6151TIP3    H118398   7.954   2.064   4.808
 6151TIP3    H218399   7.840   1.975   4.762
 6152TIP3   OH218400   7.997   1.467   4.965
 6152TIP3    H118401   8.014   1.371   4.962
 6152TIP3    H218402   7.912   1.474   4.916
 6153TIP3   OH218403   8.107   1.212   4.944
 6153TIP3    H118404   8.177   1.151   4.918
 6153TIP3    H218405   8.139   1.242   5.032
 6154TIP3   OH218406   7.576   1.258   3.351
 6154TIP3    H118407   7.668   1.275   3.322
 6154TIP3    H218408   7.561   1.170   3.313
 6155TIP3   OH218409   7.491   1.881   3.754
 6155TIP3    H118410   7.423   1.820   3.718
 6155TIP3    H218411   7.536   1.821   3.817
 6156TIP3   OH218412   7.621   1.723   3.940
 6156TIP3    H118413   7.610   1.655   4.009
 6156TIP3    H218414   7.676   1.788   3.988
 6157TIP3   OH218415   7.819   1.130   4.310
 6157TIP3    H118416   7.814   1.088   4.221
 6157TIP3    H218417   7.911   1.161   4.310
 6158TIP3   OH218418   8.026   0.818   4.991
 6158TIP3    H118419   8.119   0.796   4.988
 6158TIP3    H218420   7.988   0.733   5.021
 6159TIP3   OH218421   7.788   0.787   4.376
 6159TIP3    H118422   7.859   0.769   4.314
 6159TIP3    H218423   7.813   0.872   4.414
 6160TIP3   OH218424   8.039   1.794   4.793
 6160TIP3    H118425   7.951   1.770   4.759
 6160TIP3    H218426   8.026   1.781   4.888
 6161TIP3   OH218427   7.882   2.077   4.363
 6161TIP3    H118428   7.795   2.112   4.334
 6161TIP3    H218429   7.902   2.139   4.434
 6162TIP3   OH218430   8.141   2.064   4.225
 6162TIP3    H118431   8.051   2.069   4.261
 6162TIP3    H218432   8.126   2.101   4.136
 6163TIP3   OH218433   7.793   1.886   4.099
 6163TIP3    H118434   7.823   1.862   4.189
 6163TIP3    H218435   7.865   1.844   4.047
 6164TIP3   OH218436   7.980   1.751   3.957
 6164TIP3    H118437   7.988   1.657   3.980
 6164TIP3    H218438   8.072   1.769   3.927
 6165TIP3   OH218439   7.599   1.652   3.471
 6165TIP3    H118440   7.510   1.621   3.444
 6165TIP3    H218441   7.585   1.748   3.469
 6166TIP3   OH218442   7.673   1.696   3.149
 6166TIP3    H118443   7.627   1.730   3.228
 6166TIP3    H218444   7.720   1.620   3.185
 6167TIP3   OH218445   1.230   2.013   5.318
 6167TIP3    H118446   1.198   2.103   5.297
 6167TIP3    H218447   1.154   1.960   5.287
 6168TIP3   OH218448   1.225   2.013   5.709
 6168TIP3    H118449   1.263   1.987   5.795
 6168TIP3    H218450   1.187   1.928   5.679
 6169TIP3   OH218451   0.528   1.907   6.069
 6169TIP3    H118452   0.563   1.843   6.134
 6169TIP3    H218453   0.609   1.956   6.049
 6170TIP3   OH218454   1.471   2.318   5.386
 6170TIP3    H118455   1.458   2.245   5.448
 6170TIP3    H218456   1.504   2.388   5.444
 6171TIP3   OH218457   0.501   2.317   5.791
 6171TIP3    H118458   0.494   2.219   5.790
 6171TIP3    H218459   0.598   2.326   5.786
 6172TIP3   OH218460   0.261   1.820   5.762
 6172TIP3    H118461   0.318   1.751   5.803
 6172TIP3    H218462   0.311   1.843   5.683
 6173TIP3   OH218463   1.127   2.776   5.404
 6173TIP3    H118464   1.166   2.707   5.347
 6173TIP3    H218465   1.119   2.728   5.488
 6174TIP3   OH218466   1.026   2.240   5.750
 6174TIP3    H118467   1.065   2.160   5.711
 6174TIP3    H218468   1.109   2.286   5.774
 6175TIP3   OH218469   2.047   1.554   5.749
 6175TIP3    H118470   2.073   1.640   5.787
 6175TIP3    H218471   2.078   1.564   5.656
 6176TIP3   OH218472   1.440   1.738   5.779
 6176TIP3    H118473   1.482   1.653   5.801
 6176TIP3    H218474   1.407   1.719   5.689
 6177TIP3   OH218475   0.793   1.412   5.738
 6177TIP3    H118476   0.774   1.483   5.673
 6177TIP3    H218477   0.764   1.334   5.686
 6178TIP3   OH218478   1.474   1.490   5.364
 6178TIP3    H118479   1.544   1.474   5.432
 6178TIP3    H218480   1.529   1.524   5.291
 6179TIP3   OH218481   0.419   1.621   5.865
 6179TIP3    H118482   0.497   1.581   5.907
 6179TIP3    H218483   0.398   1.556   5.797
 6180TIP3   OH218484   0.852   1.801   5.653
 6180TIP3    H118485   0.947   1.777   5.664
 6180TIP3    H218486   0.816   1.719   5.614
 6181TIP3   OH218487   2.119   1.769   5.915
 6181TIP3    H118488   2.033   1.813   5.896
 6181TIP3    H218489   2.120   1.774   6.012
 6182TIP3   OH218490   0.796   1.373   6.170
 6182TIP3    H118491   0.736   1.418   6.108
 6182TIP3    H218492   0.738   1.355   6.246
 6183TIP3   OH218493   1.115   2.232   5.189
 6183TIP3    H118494   1.074   2.215   5.102
 6183TIP3    H218495   1.070   2.314   5.216
 6184TIP3   OH218496   0.880   2.159   5.972
 6184TIP3    H118497   0.820   2.226   6.010
 6184TIP3    H218498   0.923   2.208   5.899
 6185TIP3   OH218499   1.677   1.495   5.544
 6185TIP3    H118500   1.664   1.449   5.628
 6185TIP3    H218501   1.731   1.571   5.570
 6186TIP3   OH218502   0.660   1.497   5.960
 6186TIP3    H118503   0.711   1.576   5.991
 6186TIP3    H218504   0.717   1.471   5.884
 6187TIP3   OH218505   0.706   2.354   6.076
 6187TIP3    H118506   0.680   2.441   6.040
 6187TIP3    H218507   0.627   2.335   6.131
 6188TIP3   OH218508   0.114   2.038   5.309
 6188TIP3    H118509   0.062   2.063   5.230
 6188TIP3    H218510   0.137   2.125   5.347
 6189TIP3   OH218511   1.539   2.560   5.551
 6189TIP3    H118512   1.449   2.550   5.589
 6189TIP3    H218513   1.530   2.645   5.505
 6190TIP3   OH218514   1.835   1.458   5.914
 6190TIP3    H118515   1.747   1.483   5.881
 6190TIP3    H218516   1.894   1.490   5.843
 6191TIP3   OH218517   1.143   1.123   5.893
 6191TIP3    H118518   1.115   1.030   5.887
 6191TIP3    H218519   1.062   1.162   5.933
 6192TIP3   OH218520   1.237   2.604   5.217
 6192TIP3    H118521   1.287   2.521   5.202
 6192TIP3    H218522   1.302   2.668   5.180
 6193TIP3   OH218523   1.383   2.389   5.135
 6193TIP3    H118524   1.348   2.307   5.097
 6193TIP3    H218525   1.422   2.356   5.219
 6194TIP3   OH218526   1.766   2.468   5.893
 6194TIP3    H118527   1.754   2.390   5.835
 6194TIP3    H218528   1.750   2.542   5.830
 6195TIP3   OH218529   1.058   1.863   5.153
 6195TIP3    H118530   0.979   1.916   5.130
 6195TIP3    H218531   1.106   1.859   5.068
 6196TIP3   OH218532   1.016   1.651   4.863
 6196TIP3    H118533   1.083   1.701   4.913
 6196TIP3    H218534   1.074   1.588   4.815
 6197TIP3   OH218535   1.963   2.114   5.745
 6197TIP3    H118536   1.877   2.162   5.747
 6197TIP3    H218537   1.990   2.129   5.652
 6198TIP3   OH218538   1.407   1.947   5.120
 6198TIP3    H118539   1.354   1.969   5.200
 6198TIP3    H218540   1.492   1.920   5.163
 6199TIP3   OH218541   1.641   1.982   6.039
 6199TIP3    H118542   1.638   2.064   6.092
 6199TIP3    H218543   1.555   1.987   5.993
 6200TIP3   OH218544   0.641   1.944   5.540
 6200TIP3    H118545   0.600   1.884   5.474
 6200TIP3    H218546   0.716   1.890   5.573
 6201TIP3   OH218547   0.771   2.359   5.686
 6201TIP3    H118548   0.749   2.318   5.601
 6201TIP3    H218549   0.859   2.321   5.704
 6202TIP3   OH218550   0.772   1.917   5.895
 6202TIP3    H118551   0.807   1.890   5.807
 6202TIP3    H218552   0.819   2.001   5.911
 6203TIP3   OH218553   1.297   2.554   5.672
 6203TIP3    H118554   1.290   2.629   5.734
 6203TIP3    H218555   1.284   2.476   5.731
 6204TIP3   OH218556   0.914   2.473   6.215
 6204TIP3    H118557   0.853   2.531   6.265
 6204TIP3    H218558   0.849   2.417   6.167
 6205TIP3   OH218559   1.242   1.807   4.951
 6205TIP3    H118560   1.304   1.865   5.001
 6205TIP3    H218561   1.270   1.828   4.858
 6206TIP3   OH218562   0.689   2.039   6.309
 6206TIP3    H118563   0.684   2.123   6.357
 6206TIP3    H218564   0.599   2.004   6.320
 6207TIP3   OH218565   0.991   2.481   5.223
 6207TIP3    H118566   1.075   2.531   5.231
 6207TIP3    H218567   0.932   2.545   5.182
 6208TIP3   OH218568   0.703   2.638   6.306
 6208TIP3    H118569   0.672   2.640   6.214
 6208TIP3    H218570   0.620   2.622   6.356
 6209TIP3   OH218571   1.761   1.042   4.998
 6209TIP3    H118572   1.680   1.064   5.049
 6209TIP3    H218573   1.776   1.126   4.950
 6210TIP3   OH218574   0.508   1.789   5.344
 6210TIP3    H118575   0.436   1.824   5.288
 6210TIP3    H218576   0.481   1.697   5.357
 6211TIP3   OH218577   1.554   2.393   4.540
 6211TIP3    H118578   1.562   2.491   4.529
 6211TIP3    H218579   1.648   2.367   4.534
 6212TIP3   OH218580   0.310   2.156   6.243
 6212TIP3    H118581   0.251   2.126   6.173
 6212TIP3    H218582   0.342   2.070   6.277
 6213TIP3   OH218583   0.146   2.389   5.866
 6213TIP3    H118584   0.223   2.331   5.854
 6213TIP3    H218585   0.177   2.445   5.939
 6214TIP3   OH218586   2.005   2.815   5.942
 6214TIP3    H118587   2.004   2.719   5.958
 6214TIP3    H218588   1.922   2.841   5.988
 6215TIP3   OH218589   1.106   2.603   6.072
 6215TIP3    H118590   1.105   2.694   6.108
 6215TIP3    H218591   1.038   2.560   6.127
 6216TIP3   OH218592   0.874   2.727   5.028
 6216TIP3    H118593   0.827   2.709   4.945
 6216TIP3    H218594   0.839   2.814   5.054
 6217TIP3   OH218595   0.310   2.576   5.414
 6217TIP3    H118596   0.357   2.568   5.500
 6217TIP3    H218597   0.263   2.490   5.411
 6218TIP3   OH218598   1.070   2.634   4.668
 6218TIP3    H118599   1.128   2.563   4.633
 6218TIP3    H218600   1.106   2.644   4.759
 6219TIP3   OH218601   1.125   2.678   4.936
 6219TIP3    H118602   1.036   2.687   4.979
 6219TIP3    H218603   1.176   2.638   5.008
 6220TIP3   OH218604   1.895   1.945   6.214
 6220TIP3    H118605   1.810   1.954   6.169
 6220TIP3    H218606   1.912   1.849   6.206
 6221TIP3   OH218607   0.487   2.363   6.251
 6221TIP3    H118608   0.546   2.332   6.323
 6221TIP3    H218609   0.419   2.291   6.250
 6222TIP3   OH218610   0.892   1.180   5.996
 6222TIP3    H118611   0.806   1.140   5.976
 6222TIP3    H218612   0.867   1.253   6.056
 6223TIP3   OH218613   1.462   1.294   6.206
 6223TIP3    H118614   1.526   1.264   6.273
 6223TIP3    H218615   1.376   1.278   6.251
 6224TIP3   OH218616   1.656   1.719   6.139
 6224TIP3    H118617   1.609   1.717   6.225
 6224TIP3    H218618   1.635   1.809   6.106
 6225TIP3   OH218619   1.320   1.850   4.695
 6225TIP3    H118620   1.288   1.827   4.607
 6225TIP3    H218621   1.408   1.888   4.673
 6226TIP3   OH218622   1.035   1.224   4.993
 6226TIP3    H118623   1.005   1.217   5.087
 6226TIP3    H218624   0.993   1.144   4.955
 6227TIP3   OH218625   0.828   1.697   6.042
 6227TIP3    H118626   0.786   1.724   6.126
 6227TIP3    H218627   0.810   1.777   5.988
 6228TIP3   OH218628   0.718   1.586   5.545
 6228TIP3    H118629   0.628   1.550   5.557
 6228TIP3    H218630   0.738   1.544   5.458
 6229TIP3   OH218631   1.198   1.664   5.287
 6229TIP3    H118632   1.147   1.734   5.242
 6229TIP3    H218633   1.253   1.629   5.215
 6230TIP3   OH218634   1.372   1.941   6.369
 6230TIP3    H118635   1.348   1.868   6.431
 6230TIP3    H218636   1.465   1.954   6.394
 6231TIP3   OH218637   1.354   1.689   5.522
 6231TIP3    H118638   1.290   1.715   5.453
 6231TIP3    H218639   1.390   1.609   5.478
 6232TIP3   OH218640   0.646   1.732   6.248
 6232TIP3    H118641   0.697   1.781   6.315
 6232TIP3    H218642   0.626   1.648   6.292
 6233TIP3   OH218643   0.698   1.190   4.967
 6233TIP3    H118644   0.680   1.184   5.063
 6233TIP3    H218645   0.623   1.247   4.938
 6234TIP3   OH218646   1.362   1.936   5.944
 6234TIP3    H118647   1.396   1.864   5.885
 6234TIP3    H218648   1.333   1.882   6.021
 6235TIP3   OH218649   1.050   1.405   5.615
 6235TIP3    H118650   0.972   1.404   5.673
 6235TIP3    H218651   1.123   1.388   5.678
 6236TIP3   OH218652   0.492   1.441   5.577
 6236TIP3    H118653   0.399   1.435   5.603
 6236TIP3    H218654   0.528   1.357   5.610
 6237TIP3   OH218655   0.740   1.458   5.308
 6237TIP3    H118656   0.834   1.469   5.285
 6237TIP3    H218657   0.691   1.478   5.225
 6238TIP3   OH218658   1.526   1.476   5.821
 6238TIP3    H118659   1.493   1.490   5.913
 6238TIP3    H218660   1.458   1.416   5.787
 6239TIP3   OH218661   0.572   1.499   5.093
 6239TIP3    H118662   0.508   1.442   5.047
 6239TIP3    H218663   0.628   1.526   5.017
 6240TIP3   OH218664   1.697   3.166   6.042
 6240TIP3    H118665   1.700   3.186   5.946
 6240TIP3    H218666   1.779   3.209   6.073
 6241TIP3   OH218667   0.654   2.281   6.459
 6241TIP3    H118668   0.736   2.303   6.508
 6241TIP3    H218669   0.591   2.272   6.534
 6242TIP3   OH218670   1.114   1.732   5.718
 6242TIP3    H118671   1.185   1.686   5.671
 6242TIP3    H218672   1.116   1.688   5.805
 6243TIP3   OH218673   0.721   1.222   5.557
 6243TIP3    H118674   0.671   1.145   5.587
 6243TIP3    H218675   0.807   1.180   5.535
 6244TIP3   OH218676   1.094   1.636   5.994
 6244TIP3    H118677   1.004   1.667   6.015
 6244TIP3    H218678   1.151   1.693   6.049
 6245TIP3   OH218679   0.826   2.016   5.097
 6245TIP3    H118680   0.755   1.949   5.087
 6245TIP3    H218681   0.807   2.049   5.189
 6246TIP3   OH218682   1.726   2.253   5.727
 6246TIP3    H118683   1.750   2.302   5.646
 6246TIP3    H218684   1.642   2.208   5.700
 6247TIP3   OH218685   1.285   1.327   4.963
 6247TIP3    H118686   1.190   1.308   4.974
 6247TIP3    H218687   1.293   1.421   4.991
 6248TIP3   OH218688   1.230   2.336   6.096
 6248TIP3    H118689   1.260   2.308   6.184
 6248TIP3    H218690   1.189   2.422   6.113
 6249TIP3   OH218691   1.356   1.576   5.070
 6249TIP3    H118692   1.453   1.579   5.085
 6249TIP3    H218693   1.340   1.656   5.017
 6250TIP3   OH218694   0.525   2.044   5.774
 6250TIP3    H118695   0.562   2.012   5.689
 6250TIP3    H218696   0.562   1.980   5.836
 6251TIP3   OH218697   0.973   2.165   4.923
 6251TIP3    H118698   0.924   2.250   4.927
 6251TIP3    H218699   0.919   2.109   4.983
 6252TIP3   OH218700   0.445   1.938   6.394
 6252TIP3    H118701   0.482   1.953   6.483
 6252TIP3    H218702   0.349   1.929   6.415
 6253TIP3   OH218703   1.131   2.078   6.405
 6253TIP3    H118704   1.072   2.011   6.369
 6253TIP3    H218705   1.219   2.040   6.381
 6254TIP3   OH218706   1.385   2.605   5.989
 6254TIP3    H118707   1.290   2.594   6.006
 6254TIP3    H218708   1.414   2.650   6.071
 6255TIP3   OH218709   1.792   1.658   4.896
 6255TIP3    H118710   1.726   1.627   4.830
 6255TIP3    H218711   1.798   1.752   4.871
 6256TIP3   OH218712   2.017   2.526   5.982
 6256TIP3    H118713   1.919   2.519   5.975
 6256TIP3    H218714   2.042   2.495   5.892
 6257TIP3   OH218715   1.495   2.482   4.808
 6257TIP3    H118716   1.475   2.415   4.875
 6257TIP3    H218717   1.512   2.430   4.728
 6258TIP3   OH218718   1.493   2.115   5.642
 6258TIP3    H118719   1.400   2.090   5.657
 6258TIP3    H218720   1.528   2.034   5.600
 6259TIP3   OH218721   0.624   2.344   5.402
 6259TIP3    H118722   0.619   2.424   5.347
 6259TIP3    H218723   0.530   2.323   5.415
 6260TIP3   OH218724   0.163   1.651   5.128
 6260TIP3    H118725   0.232   1.721   5.123
 6260TIP3    H218726   0.114   1.684   5.205
 6261TIP3   OH218727   0.754   2.106   5.341
 6261TIP3    H118728   0.722   2.195   5.363
 6261TIP3    H218729   0.722   2.054   5.417
 6262TIP3   OH218730   0.894   2.684   5.871
 6262TIP3    H118731   0.941   2.756   5.824
 6262TIP3    H218732   0.968   2.643   5.920
 6263TIP3   OH218733   0.538   2.583   5.252
 6263TIP3    H118734   0.454   2.591   5.300
 6263TIP3    H218735   0.571   2.675   5.254
 6264TIP3   OH218736   1.279   2.321   5.828
 6264TIP3    H118737   1.267   2.319   5.926
 6264TIP3    H218738   1.355   2.263   5.817
 6265TIP3   OH218739   1.264   2.199   4.709
 6265TIP3    H118740   1.318   2.179   4.789
 6265TIP3    H218741   1.176   2.180   4.743
 6266TIP3   OH218742   1.527   2.852   5.882
 6266TIP3    H118743   1.451   2.792   5.881
 6266TIP3    H218744   1.506   2.913   5.808
 6267TIP3   OH218745   1.590   2.677   4.532
 6267TIP3    H118746   1.629   2.746   4.477
 6267TIP3    H218747   1.512   2.727   4.566
 6268TIP3   OH218748   1.418   2.147   4.929
 6268TIP3    H118749   1.407   2.080   5.000
 6268TIP3    H218750   1.515   2.143   4.917
 6269TIP3   OH218751   0.323   2.541   6.031
 6269TIP3    H118752   0.385   2.474   6.063
 6269TIP3    H218753   0.353   2.619   6.080
 6270TIP3   OH218754   0.618   2.193   4.713
 6270TIP3    H118755   0.632   2.100   4.687
 6270TIP3    H218756   0.599   2.183   4.809
 6271TIP3   OH218757   0.564   2.198   4.985
 6271TIP3    H118758   0.638   2.169   5.039
 6271TIP3    H218759   0.569   2.296   4.994
 6272TIP3   OH218760   0.301   1.885   5.182
 6272TIP3    H118761   0.237   1.931   5.240
 6272TIP3    H218762   0.319   1.955   5.117
 6273TIP3   OH218763   1.452   1.535   6.079
 6273TIP3    H118764   1.533   1.578   6.112
 6273TIP3    H218765   1.452   1.451   6.130
 6274TIP3   OH218766   1.336   1.277   5.247
 6274TIP3    H118767   1.323   1.300   5.153
 6274TIP3    H218768   1.376   1.359   5.283
 6275TIP3   OH218769   0.831   2.395   4.931
 6275TIP3    H118770   0.744   2.418   4.969
 6275TIP3    H218771   0.847   2.472   4.875
 6276TIP3   OH218772   1.018   1.464   5.347
 6276TIP3    H118773   1.083   1.536   5.332
 6276TIP3    H218774   1.027   1.452   5.444
 6277TIP3   OH218775   1.290   1.776   6.153
 6277TIP3    H118776   1.315   1.826   6.233
 6277TIP3    H218777   1.342   1.694   6.163
 6278TIP3   OH218778   1.170   1.185   5.449
 6278TIP3    H118779   1.168   1.261   5.511
 6278TIP3    H218780   1.232   1.219   5.381
 6279TIP3   OH218781   0.577   2.471   5.002
 6279TIP3    H118782   0.547   2.541   4.941
 6279TIP3    H218783   0.560   2.513   5.090
 6280TIP3   OH218784   0.694   1.195   5.243
 6280TIP3    H118785   0.699   1.284   5.282
 6280TIP3    H218786   0.789   1.171   5.246
 6281TIP3   OH218787   1.922   1.680   6.128
 6281TIP3    H118788   1.825   1.680   6.140
 6281TIP3    H218789   1.930   1.620   6.052
 6282TIP3   OH218790   1.580   1.872   5.524
 6282TIP3    H118791   1.505   1.811   5.536
 6282TIP3    H218792   1.652   1.825   5.571
 6283TIP3   OH218793   0.299   2.097   4.989
 6283TIP3    H118794   0.370   2.162   5.000
 6283TIP3    H218795   0.342   2.039   4.923
 6284TIP3   OH218796   0.280   1.406   5.035
 6284TIP3    H118797   0.275   1.488   5.087
 6284TIP3    H218798   0.236   1.344   5.096
 6285TIP3   OH218799   1.548   2.832   5.471
 6285TIP3    H118800   1.506   2.882   5.398
 6285TIP3    H218801   1.643   2.849   5.452
 6286TIP3   OH218802   0.164   2.322   5.377
 6286TIP3    H118803   0.099   2.351   5.442
 6286TIP3    H218804   0.128   2.363   5.295
 6287TIP3   OH218805   0.347   2.874   6.431
 6287TIP3    H118806   0.423   2.885   6.492
 6287TIP3    H218807   0.336   2.778   6.436
 6288TIP3   OH218808   0.799   2.819   6.494
 6288TIP3    H118809   0.893   2.798   6.506
 6288TIP3    H218810   0.776   2.757   6.422
 6289TIP3   OH218811   0.781   2.394   4.622
 6289TIP3    H118812   0.722   2.325   4.661
 6289TIP3    H218813   0.858   2.339   4.599
 6290TIP3   OH218814   1.440   2.728   6.229
 6290TIP3    H118815   1.431   2.657   6.297
 6290TIP3    H218816   1.518   2.776   6.260
 6291TIP3   OH218817   1.217   2.441   4.550
 6291TIP3    H118818   1.276   2.384   4.603
 6291TIP3    H218819   1.259   2.438   4.462
 6292TIP3   OH218820   0.448   2.256   6.648
 6292TIP3    H118821   0.485   2.165   6.655
 6292TIP3    H218822   0.354   2.236   6.639
 6293TIP3   OH218823   0.430   1.907   4.848
 6293TIP3    H118824   0.487   1.878   4.922
 6293TIP3    H218825   0.498   1.913   4.777
 6294TIP3   OH218826   1.056   2.350   6.427
 6294TIP3    H118827   1.019   2.365   6.338
 6294TIP3    H218828   1.090   2.258   6.420
 6295TIP3   OH218829   0.943   2.113   4.655
 6295TIP3    H118830   0.946   2.123   4.753
 6295TIP3    H218831   0.944   2.015   4.648
 6296TIP3   OH218832   1.550   2.361   6.033
 6296TIP3    H118833   1.627   2.404   5.990
 6296TIP3    H218834   1.480   2.426   6.015
 6297TIP3   OH218835   0.562   2.004   6.639
 6297TIP3    H118836   0.630   1.936   6.630
 6297TIP3    H218837   0.573   2.020   6.734
 6298TIP3   OH218838   0.630   1.819   5.063
 6298TIP3    H118839   0.609   1.780   5.149
 6298TIP3    H218840   0.670   1.743   5.016
 6299TIP3   OH218841   0.906   1.872   6.288
 6299TIP3    H118842   0.837   1.941   6.293
 6299TIP3    H218843   0.963   1.909   6.216
 6300TIP3   OH218844   0.739   1.615   4.907
 6300TIP3    H118845   0.714   1.617   4.813
 6300TIP3    H218846   0.837   1.615   4.901
 6301TIP3   OH218847   1.424   2.285   6.427
 6301TIP3    H118848   1.504   2.251   6.384
 6301TIP3    H218849   1.414   2.222   6.502
 6302TIP3   OH218850   1.551   1.945   4.575
 6302TIP3    H118851   1.537   1.895   4.492
 6302TIP3    H218852   1.542   2.035   4.541
 6303TIP3   OH218853   1.033   1.661   6.413
 6303TIP3    H118854   1.043   1.587   6.350
 6303TIP3    H218855   0.993   1.731   6.358
 6304TIP3   OH218856   1.050   1.465   6.221
 6304TIP3    H118857   1.071   1.504   6.134
 6304TIP3    H218858   0.960   1.430   6.206
 6305TIP3   OH218859   1.056   1.989   6.099
 6305TIP3    H118860   1.142   2.001   6.059
 6305TIP3    H218861   1.001   2.057   6.053
 6306TIP3   OH218862   1.637   1.957   6.480
 6306TIP3    H118863   1.682   1.873   6.499
 6306TIP3    H218864   1.710   2.012   6.448
 6307TIP3   OH218865   1.681   2.212   6.217
 6307TIP3    H118866   1.623   2.267   6.160
 6307TIP3    H218867   1.769   2.232   6.179
 6308TIP3   OH218868   0.928   1.796   6.625
 6308TIP3    H118869   0.845   1.767   6.667
 6308TIP3    H218870   0.942   1.733   6.552
 6309TIP3   OH218871   1.203   1.244   6.276
 6309TIP3    H118872   1.155   1.328   6.256
 6309TIP3    H218873   1.127   1.185   6.291
 6310TIP3   OH218874   1.291   1.725   6.509
 6310TIP3    H118875   1.276   1.725   6.606
 6310TIP3    H218876   1.203   1.693   6.479
 6311TIP3   OH218877   1.528   1.673   6.370
 6311TIP3    H118878   1.452   1.674   6.433
 6311TIP3    H218879   1.601   1.642   6.427
 6312TIP3   OH218880   1.760   1.615   6.515
 6312TIP3    H118881   1.771   1.519   6.533
 6312TIP3    H218882   1.755   1.653   6.605
 6313TIP3   OH218883   1.243   1.199   6.544
 6313TIP3    H118884   1.323   1.143   6.540
 6313TIP3    H218885   1.233   1.223   6.450
 6314TIP3   OH218886   1.342   1.444   6.668
 6314TIP3    H118887   1.316   1.364   6.621
 6314TIP3    H218888   1.256   1.465   6.711
 6315TIP3   OH218889   0.547   2.675   4.816
 6315TIP3    H118890   0.642   2.665   4.796
 6315TIP3    H218891   0.519   2.725   4.737
 6316TIP3   OH218892   0.035   2.045   5.030
 6316TIP3    H118893   0.129   2.071   5.017
 6316TIP3    H218894   0.031   1.959   4.986
 6317TIP3   OH218895  -0.073   2.666   5.452
 6317TIP3    H118896  -0.117   2.600   5.397
 6317TIP3    H218897  -0.027   2.611   5.519
 6318TIP3   OH218898   0.068   2.520   5.637
 6318TIP3    H118899   0.075   2.453   5.708
 6318TIP3    H218900   0.122   2.590   5.679
 6319TIP3   OH218901   1.802   2.920   5.432
 6319TIP3    H118902   1.832   2.952   5.519
 6319TIP3    H218903   1.870   2.955   5.373
 6320TIP3   OH218904   1.831   2.939   5.716
 6320TIP3    H118905   1.786   2.852   5.711
 6320TIP3    H218906   1.906   2.915   5.772
 6321TIP3   OH218907   1.876   2.616   6.286
 6321TIP3    H118908   1.805   2.625   6.353
 6321TIP3    H218909   1.920   2.703   6.292
 6322TIP3   OH218910   1.693   2.132   4.901
 6322TIP3    H118911   1.763   2.194   4.872
 6322TIP3    H218912   1.732   2.097   4.984
 6323TIP3   OH218913   1.810   2.014   5.113
 6323TIP3    H118914   1.753   1.954   5.165
 6323TIP3    H218915   1.890   2.019   5.169
 6324TIP3   OH218916   1.881   2.389   5.540
 6324TIP3    H118917   1.932   2.319   5.494
 6324TIP3    H218918   1.876   2.459   5.473
 6325TIP3   OH218919   1.706   2.689   5.733
 6325TIP3    H118920   1.634   2.727   5.787
 6325TIP3    H218921   1.657   2.642   5.663
 6326TIP3   OH218922   1.760   1.906   4.754
 6326TIP3    H118923   1.685   1.905   4.691
 6326TIP3    H218924   1.733   1.980   4.813
 6327TIP3   OH218925   1.617   1.580   4.702
 6327TIP3    H118926   1.587   1.605   4.613
 6327TIP3    H218927   1.599   1.484   4.701
 6328TIP3   OH218928   1.633   1.851   5.252
 6328TIP3    H118929   1.644   1.754   5.245
 6328TIP3    H218930   1.620   1.864   5.349
 6329TIP3   OH218931   0.260   1.928   6.025
 6329TIP3    H118932   0.251   1.908   5.929
 6329TIP3    H218933   0.358   1.929   6.034
 6330TIP3   OH218934   1.928   2.276   6.112
 6330TIP3    H118935   1.998   2.208   6.101
 6330TIP3    H218936   1.955   2.344   6.049
 6331TIP3   OH218937   2.114   2.075   6.118
 6331TIP3    H118938   2.039   2.027   6.159
 6331TIP3    H218939   2.188   2.015   6.140
 6332TIP3   OH218940   1.575   1.311   4.688
 6332TIP3    H118941   1.649   1.281   4.744
 6332TIP3    H218942   1.502   1.251   4.713
 6333TIP3   OH218943   1.635   1.569   5.145
 6333TIP3    H118944   1.675   1.479   5.160
 6333TIP3    H218945   1.696   1.602   5.076
 6334TIP3   OH218946   1.797   1.742   5.640
 6334TIP3    H118947   1.882   1.766   5.597
 6334TIP3    H218948   1.813   1.779   5.730
 6335TIP3   OH218949   1.865   1.886   5.872
 6335TIP3    H118950   1.789   1.918   5.924
 6335TIP3    H218951   1.898   1.969   5.832
 6336TIP3   OH218952   2.304   1.468   6.421
 6336TIP3    H118953   2.373   1.407   6.387
 6336TIP3    H218954   2.316   1.541   6.358
 6337TIP3   OH218955   1.739   1.318   5.189
 6337TIP3    H118956   1.789   1.302   5.272
 6337TIP3    H218957   1.679   1.241   5.188
 6338TIP3   OH218958   2.179   1.627   6.220
 6338TIP3    H118959   2.093   1.658   6.252
 6338TIP3    H218960   2.155   1.540   6.183
 6339TIP3   OH218961   1.816   1.252   4.819
 6339TIP3    H118962   1.859   1.182   4.767
 6339TIP3    H218963   1.884   1.322   4.821
 6340TIP3   OH218964   1.386   2.791   5.088
 6340TIP3    H118965   1.432   2.773   5.003
 6340TIP3    H218966   1.449   2.850   5.131
 6341TIP3   OH218967   0.472   2.595   6.474
 6341TIP3    H118968   0.438   2.508   6.446
 6341TIP3    H218969   0.498   2.579   6.566
 6342TIP3   OH218970   0.665   2.626   6.020
 6342TIP3    H118971   0.620   2.703   5.980
 6342TIP3    H218972   0.751   2.636   5.976
 6343TIP3   OH218973   1.108   2.870   6.155
 6343TIP3    H118974   1.150   2.865   6.244
 6343TIP3    H218975   1.175   2.922   6.106
 6344TIP3   OH218976   1.285   3.033   6.008
 6344TIP3    H118977   1.349   2.970   5.972
 6344TIP3    H218978   1.341   3.079   6.075
 6345TIP3   OH218979   2.084   1.378   6.115
 6345TIP3    H118980   1.993   1.367   6.081
 6345TIP3    H218981   2.119   1.287   6.107
 6346TIP3   OH218982   0.341   2.879   6.044
 6346TIP3    H118983   0.250   2.907   6.022
 6346TIP3    H218984   0.351   2.920   6.131
 6347TIP3   OH218985   0.581   2.862   5.905
 6347TIP3    H118986   0.493   2.872   5.948
 6347TIP3    H218987   0.560   2.891   5.814
 6348TIP3   OH218988   1.005   2.897   5.701
 6348TIP3    H118989   0.934   2.895   5.634
 6348TIP3    H218990   0.990   2.983   5.742
 6349TIP3   OH218991   1.272   2.827   5.756
 6349TIP3    H118992   1.180   2.845   5.730
 6349TIP3    H218993   1.321   2.892   5.702
 6350TIP3   OH218994   1.472   3.016   5.661
 6350TIP3    H118995   1.463   3.098   5.610
 6350TIP3    H218996   1.504   2.953   5.592
 6351TIP3   OH218997   0.255   2.673   5.781
 6351TIP3    H118998   0.268   2.646   5.874
 6351TIP3    H218999   0.327   2.622   5.737
 6352TIP3   OH219000   0.451   2.541   5.645
 6352TIP3    H119001   0.464   2.458   5.696
 6352TIP3    H219002   0.542   2.576   5.642
 6353TIP3   OH219003   0.719   2.637   5.651
 6353TIP3    H119004   0.746   2.544   5.639
 6353TIP3    H219005   0.766   2.656   5.735
 6354TIP3   OH219006   1.289   1.298   5.730
 6354TIP3    H119007   1.247   1.233   5.789
 6354TIP3    H219008   1.364   1.248   5.692
 6355TIP3   OH219009   1.808   1.175   5.641
 6355TIP3    H119010   1.843   1.225   5.564
 6355TIP3    H219011   1.712   1.191   5.635
 6356TIP3   OH219012   1.907   1.270   5.403
 6356TIP3    H119013   1.979   1.216   5.363
 6356TIP3    H219014   1.945   1.360   5.387
 6357TIP3   OH219015   0.948   1.064   5.598
 6357TIP3    H119016   1.034   1.095   5.565
 6357TIP3    H219017   0.971   1.035   5.687
 6358TIP3   OH219018   1.524   1.176   5.617
 6358TIP3    H119019   1.529   1.135   5.530
 6358TIP3    H219020   1.510   1.097   5.674
 6359TIP3   OH219021   1.556   1.105   5.180
 6359TIP3    H119022   1.472   1.150   5.197
 6359TIP3    H219023   1.541   1.021   5.227
 6360TIP3   OH219024   0.029   2.447   5.181
 6360TIP3    H119025  -0.040   2.399   5.134
 6360TIP3    H219026   0.023   2.535   5.138
 6361TIP3   OH219027   0.969   1.210   5.260
 6361TIP3    H119028   1.027   1.166   5.325
 6361TIP3    H219029   0.986   1.304   5.285
 6362TIP3   OH219030   0.812   2.628   4.762
 6362TIP3    H119031   0.901   2.652   4.726
 6362TIP3    H219032   0.790   2.555   4.701
 6363TIP3   OH219033   1.528   2.749   4.856
 6363TIP3    H119034   1.521   2.652   4.842
 6363TIP3    H219035   1.487   2.783   4.774
 6364TIP3   OH219036   0.118   2.468   4.817
 6364TIP3    H119037   0.121   2.501   4.908
 6364TIP3    H219038   0.206   2.425   4.806
 6365TIP3   OH219039   1.825   1.344   6.549
 6365TIP3    H119040   1.845   1.315   6.640
 6365TIP3    H219041   1.914   1.342   6.508
 6366TIP3   OH219042   1.757   2.896   6.040
 6366TIP3    H119043   1.678   2.865   5.991
 6366TIP3    H219044   1.737   2.991   6.049
 6367TIP3   OH219045   3.018   2.252   4.814
 6367TIP3    H119046   2.993   2.345   4.798
 6367TIP3    H219047   2.948   2.208   4.762
 6368TIP3   OH219048   3.033   2.280   5.193
 6368TIP3    H119049   3.070   2.249   5.279
 6368TIP3    H219050   2.966   2.213   5.176
 6369TIP3   OH219051   2.327   2.161   5.545
 6369TIP3    H119052   2.352   2.088   5.605
 6369TIP3    H219053   2.388   2.231   5.575
 6370TIP3   OH219054   3.263   2.560   4.880
 6370TIP3    H119055   3.266   2.494   4.951
 6370TIP3    H219056   3.315   2.632   4.918
 6371TIP3   OH219057   2.296   2.575   5.277
 6371TIP3    H119058   2.293   2.477   5.279
 6371TIP3    H219059   2.392   2.589   5.271
 6372TIP3   OH219060   2.063   2.054   5.236
 6372TIP3    H119061   2.116   1.970   5.240
 6372TIP3    H219062   2.099   2.092   5.156
 6373TIP3   OH219063   2.901   3.028   4.877
 6373TIP3    H119064   2.958   2.959   4.836
 6373TIP3    H219065   2.897   3.002   4.969
 6374TIP3   OH219066   2.813   2.493   5.231
 6374TIP3    H119067   2.840   2.428   5.164
 6374TIP3    H219068   2.900   2.523   5.260
 6375TIP3   OH219069   3.837   1.813   5.234
 6375TIP3    H119070   3.867   1.896   5.278
 6375TIP3    H219071   3.867   1.829   5.142
 6376TIP3   OH219072   3.233   1.994   5.276
 6376TIP3    H119073   3.261   1.912   5.320
 6376TIP3    H219074   3.257   1.973   5.186
 6377TIP3   OH219075   2.595   1.655   5.217
 6377TIP3    H119076   2.542   1.724   5.173
 6377TIP3    H219077   2.550   1.575   5.180
 6378TIP3   OH219078   3.235   1.803   4.867
 6378TIP3    H119079   3.301   1.773   4.934
 6378TIP3    H219080   3.294   1.815   4.791
 6379TIP3   OH219081   2.666   2.031   5.111
 6379TIP3    H119082   2.670   2.010   5.206
 6379TIP3    H219083   2.609   1.957   5.078
 6380TIP3   OH219084   3.910   2.020   5.409
 6380TIP3    H119085   3.826   2.068   5.392
 6380TIP3    H219086   3.940   2.062   5.491
 6381TIP3   OH219087   2.561   1.627   5.699
 6381TIP3    H119088   2.519   1.663   5.617
 6381TIP3    H219089   2.496   1.659   5.767
 6382TIP3   OH219090   2.912   2.480   4.681
 6382TIP3    H119091   2.876   2.470   4.591
 6382TIP3    H219092   2.874   2.567   4.706
 6383TIP3   OH219093   2.673   2.415   5.465
 6383TIP3    H119094   2.609   2.479   5.503
 6383TIP3    H219095   2.704   2.464   5.386
 6384TIP3   OH219096   3.455   1.764   5.027
 6384TIP3    H119097   3.461   1.700   5.100
 6384TIP3    H219098   3.526   1.826   5.050
 6385TIP3   OH219099   2.462   1.724   5.471
 6385TIP3    H119100   2.488   1.818   5.475
 6385TIP3    H219101   2.447   1.715   5.375
 6386TIP3   OH219102   2.501   2.608   5.558
 6386TIP3    H119103   2.476   2.696   5.523
 6386TIP3    H219104   2.422   2.591   5.614
 6387TIP3   OH219105   1.897   2.300   4.795
 6387TIP3    H119106   1.858   2.329   4.711
 6387TIP3    H219107   1.929   2.385   4.832
 6388TIP3   OH219108   3.318   2.825   5.046
 6388TIP3    H119109   3.224   2.811   5.032
 6388TIP3    H219110   3.331   2.911   5.000
 6389TIP3   OH219111   3.632   1.709   5.398
 6389TIP3    H119112   3.547   1.743   5.367
 6389TIP3    H219113   3.695   1.743   5.330
 6390TIP3   OH219114   2.929   1.356   5.386
 6390TIP3    H119115   2.916   1.260   5.397
 6390TIP3    H219116   2.850   1.389   5.434
 6391TIP3   OH219117   3.052   2.857   4.729
 6391TIP3    H119118   3.094   2.774   4.696
 6391TIP3    H219119   3.108   2.922   4.681
 6392TIP3   OH219120   3.176   2.638   4.626
 6392TIP3    H119121   3.143   2.561   4.577
 6392TIP3    H219122   3.210   2.598   4.708
 6393TIP3   OH219123   3.549   2.725   5.387
 6393TIP3    H119124   3.548   2.649   5.325
 6393TIP3    H219125   3.542   2.801   5.325
 6394TIP3   OH219126   2.856   2.108   4.652
 6394TIP3    H119127   2.779   2.165   4.627
 6394TIP3    H219128   2.901   2.099   4.566
 6395TIP3   OH219129   2.815   1.904   4.353
 6395TIP3    H119130   2.883   1.958   4.398
 6395TIP3    H219131   2.873   1.842   4.304
 6396TIP3   OH219132   3.756   2.359   5.224
 6396TIP3    H119133   3.675   2.415   5.230
 6396TIP3    H219134   3.790   2.386   5.136
 6397TIP3   OH219135   3.201   2.202   4.612
 6397TIP3    H119136   3.149   2.227   4.692
 6397TIP3    H219137   3.287   2.180   4.652
 6398TIP3   OH219138   3.436   2.238   5.526
 6398TIP3    H119139   3.440   2.318   5.581
 6398TIP3    H219140   3.352   2.252   5.479
 6399TIP3   OH219141   2.439   2.191   5.026
 6399TIP3    H119142   2.390   2.141   4.958
 6399TIP3    H219143   2.517   2.134   5.040
 6400TIP3   OH219144   2.560   2.613   5.171
 6400TIP3    H119145   2.535   2.581   5.083
 6400TIP3    H219146   2.648   2.573   5.185
 6401TIP3   OH219147   2.610   2.166   5.368
 6401TIP3    H119148   2.572   2.190   5.282
 6401TIP3    H219149   2.625   2.254   5.408
 6402TIP3   OH219150   2.714   2.705   5.706
 6402TIP3    H119151   2.663   2.776   5.748
 6402TIP3    H219152   2.643   2.661   5.655
 6403TIP3   OH219153   3.043   2.053   4.441
 6403TIP3    H119154   3.099   2.117   4.490
 6403TIP3    H219155   3.074   2.072   4.349
 6404TIP3   OH219156   2.462   2.283   5.802
 6404TIP3    H119157   2.470   2.369   5.848
 6404TIP3    H219158   2.370   2.260   5.826
 6405TIP3   OH219159   2.793   2.735   4.713
 6405TIP3    H119160   2.866   2.798   4.727
 6405TIP3    H219161   2.727   2.789   4.666
 6406TIP3   OH219162   2.508   2.888   5.791
 6406TIP3    H119163   2.470   2.892   5.701
 6406TIP3    H219164   2.428   2.869   5.846
 6407TIP3   OH219165   3.560   1.298   4.485
 6407TIP3    H119166   3.478   1.321   4.534
 6407TIP3    H219167   3.575   1.380   4.433
 6408TIP3   OH219168   2.305   2.043   4.827
 6408TIP3    H119169   2.232   2.083   4.774
 6408TIP3    H219170   2.263   1.963   4.860
 6409TIP3   OH219171   3.359   2.668   4.037
 6409TIP3    H119172   3.368   2.764   4.019
 6409TIP3    H219173   3.450   2.636   4.021
 6410TIP3   OH219174   2.082   2.425   5.739
 6410TIP3    H119175   2.013   2.404   5.672
 6410TIP3    H219176   2.118   2.336   5.761
 6411TIP3   OH219177   1.937   2.621   5.368
 6411TIP3    H119178   2.033   2.613   5.360
 6411TIP3    H219179   1.929   2.697   5.427
 6412TIP3   OH219180   3.805   3.071   5.435
 6412TIP3    H119181   3.801   2.975   5.450
 6412TIP3    H219182   3.720   3.099   5.476
 6413TIP3   OH219183   2.671   2.982   4.517
 6413TIP3    H119184   2.625   2.969   4.432
 6413TIP3    H219185   2.640   3.070   4.544
 6414TIP3   OH219186   2.105   2.830   4.899
 6414TIP3    H119187   2.152   2.824   4.985
 6414TIP3    H219188   2.054   2.748   4.899
 6415TIP3   OH219189   2.870   2.882   4.150
 6415TIP3    H119190   2.930   2.813   4.116
 6415TIP3    H219191   2.905   2.897   4.240
 6416TIP3   OH219192   2.920   2.935   4.418
 6416TIP3    H119193   2.832   2.946   4.461
 6416TIP3    H219194   2.975   2.904   4.492
 6417TIP3   OH219195   3.690   2.197   5.707
 6417TIP3    H119196   3.607   2.207   5.659
 6417TIP3    H219197   3.707   2.101   5.698
 6418TIP3   OH219198   2.286   2.608   5.723
 6418TIP3    H119199   2.335   2.593   5.807
 6418TIP3    H219200   2.211   2.545   5.733
 6419TIP3   OH219201   2.688   1.432   5.536
 6419TIP3    H119202   2.613   1.370   5.510
 6419TIP3    H219203   2.652   1.512   5.494
 6420TIP3   OH219204   3.217   1.549   5.728
 6420TIP3    H119205   3.301   1.517   5.767
 6420TIP3    H219206   3.165   1.562   5.809
 6421TIP3   OH219207   3.453   1.974   5.624
 6421TIP3    H119208   3.405   1.972   5.709
 6421TIP3    H219209   3.433   2.064   5.591
 6422TIP3   OH219210   3.128   2.117   4.189
 6422TIP3    H119211   3.104   2.083   4.100
 6422TIP3    H219212   3.124   2.213   4.174
 6423TIP3   OH219213   2.830   1.478   4.482
 6423TIP3    H119214   2.794   1.471   4.572
 6423TIP3    H219215   2.790   1.398   4.442
 6424TIP3   OH219216   2.625   1.951   5.534
 6424TIP3    H119217   2.565   1.971   5.609
 6424TIP3    H219218   2.615   2.032   5.479
 6425TIP3   OH219219   2.494   1.841   5.035
 6425TIP3    H119220   2.408   1.838   5.085
 6425TIP3    H219221   2.478   1.780   4.961
 6426TIP3   OH219222   3.165   2.195   5.857
 6426TIP3    H119223   3.144   2.124   5.922
 6426TIP3    H219224   3.258   2.212   5.881
 6427TIP3   OH219225   2.438   1.976   5.736
 6427TIP3    H119226   2.453   2.039   5.807
 6427TIP3    H219227   2.418   1.894   5.785
 6428TIP3   OH219228   2.487   1.456   4.451
 6428TIP3    H119229   2.475   1.449   4.547
 6428TIP3    H219230   2.409   1.510   4.426
 6429TIP3   OH219231   2.035   1.495   5.322
 6429TIP3    H119232   2.100   1.541   5.378
 6429TIP3    H219233   2.074   1.503   5.234
 6430TIP3   OH219234   1.996   1.477   4.835
 6430TIP3    H119235   2.044   1.519   4.761
 6430TIP3    H219236   1.934   1.550   4.860
 6431TIP3   OH219237   3.142   2.194   5.430
 6431TIP3    H119238   3.181   2.122   5.375
 6431TIP3    H219239   3.121   2.141   5.511
 6432TIP3   OH219240   2.839   1.688   5.101
 6432TIP3    H119241   2.752   1.681   5.147
 6432TIP3    H219242   2.899   1.657   5.170
 6433TIP3   OH219243   2.538   1.699   4.794
 6433TIP3    H119244   2.607   1.760   4.766
 6433TIP3    H219245   2.469   1.718   4.726
 6434TIP3   OH219246   3.319   1.730   5.306
 6434TIP3    H119247   3.293   1.737   5.401
 6434TIP3    H219248   3.254   1.667   5.272
 6435TIP3   OH219249   2.376   1.742   4.584
 6435TIP3    H119250   2.300   1.700   4.540
 6435TIP3    H219251   2.426   1.775   4.507
 6436TIP3   OH219252   3.494   3.419   5.527
 6436TIP3    H119253   3.491   3.450   5.435
 6436TIP3    H219254   3.573   3.466   5.560
 6437TIP3   OH219255   2.450   2.531   5.946
 6437TIP3    H119256   2.529   2.560   5.996
 6437TIP3    H219257   2.385   2.527   6.018
 6438TIP3   OH219258   2.475   1.447   5.088
 6438TIP3    H119259   2.415   1.391   5.142
 6438TIP3    H219260   2.461   1.409   5.001
 6439TIP3   OH219261   2.885   1.856   5.544
 6439TIP3    H119262   2.798   1.898   5.529
 6439TIP3    H219263   2.944   1.932   5.557
 6440TIP3   OH219264   2.631   2.266   4.593
 6440TIP3    H119265   2.556   2.205   4.578
 6440TIP3    H219266   2.608   2.303   4.681
 6441TIP3   OH219267   3.527   2.512   5.214
 6441TIP3    H119268   3.555   2.562   5.134
 6441TIP3    H219269   3.443   2.471   5.185
 6442TIP3   OH219270   3.086   1.569   4.464
 6442TIP3    H119271   2.988   1.556   4.462
 6442TIP3    H219272   3.095   1.666   4.476
 6443TIP3   OH219273   3.042   2.693   5.600
 6443TIP3    H119274   3.076   2.607   5.630
 6443TIP3    H219275   2.949   2.684   5.630
 6444TIP3   OH219276   3.154   1.823   4.556
 6444TIP3    H119277   3.249   1.840   4.567
 6444TIP3    H219278   3.122   1.906   4.515
 6445TIP3   OH219279   2.338   2.302   5.266
 6445TIP3    H119280   2.360   2.260   5.180
 6445TIP3    H219281   2.327   2.226   5.326
 6446TIP3   OH219282   2.773   2.422   4.415
 6446TIP3    H119283   2.724   2.507   4.416
 6446TIP3    H219284   2.718   2.367   4.475
 6447TIP3   OH219285   2.203   2.210   5.875
 6447TIP3    H119286   2.216   2.195   5.970
 6447TIP3    H219287   2.130   2.148   5.856
 6448TIP3   OH219288   2.924   2.332   5.894
 6448TIP3    H119289   2.860   2.267   5.859
 6448TIP3    H219290   3.009   2.292   5.865
 6449TIP3   OH219291   3.589   1.922   4.392
 6449TIP3    H119292   3.527   1.881   4.327
 6449TIP3    H219293   3.593   2.011   4.352
 6450TIP3   OH219294   3.807   2.778   5.472
 6450TIP3    H119295   3.710   2.775   5.465
 6450TIP3    H219296   3.833   2.751   5.381
 6451TIP3   OH219297   3.298   2.740   4.298
 6451TIP3    H119298   3.264   2.668   4.353
 6451TIP3    H219299   3.308   2.698   4.210
 6452TIP3   OH219300   3.298   2.376   5.114
 6452TIP3    H119301   3.207   2.354   5.143
 6452TIP3    H219302   3.326   2.290   5.076
 6453TIP3   OH219303   2.421   2.600   4.891
 6453TIP3    H119304   2.419   2.680   4.835
 6453TIP3    H219305   2.327   2.582   4.900
 6454TIP3   OH219306   1.991   1.902   4.607
 6454TIP3    H119307   2.032   1.989   4.626
 6454TIP3    H219308   1.910   1.906   4.663
 6455TIP3   OH219309   2.556   2.363   4.835
 6455TIP3    H119310   2.521   2.453   4.850
 6455TIP3    H219311   2.514   2.313   4.907
 6456TIP3   OH219312   2.684   2.952   5.357
 6456TIP3    H119313   2.726   3.016   5.295
 6456TIP3    H219314   2.735   2.970   5.438
 6457TIP3   OH219315   2.341   2.835   4.743
 6457TIP3    H119316   2.254   2.848   4.786
 6457TIP3    H219317   2.376   2.927   4.744
 6458TIP3   OH219318   3.047   2.445   4.203
 6458TIP3    H119319   3.101   2.437   4.285
 6458TIP3    H219320   2.957   2.442   4.238
 6459TIP3   OH219321   3.319   3.105   5.361
 6459TIP3    H119322   3.232   3.081   5.322
 6459TIP3    H219323   3.339   3.180   5.301
 6460TIP3   OH219324   3.390   2.943   4.017
 6460TIP3    H119325   3.427   3.018   3.968
 6460TIP3    H219326   3.308   2.986   4.051
 6461TIP3   OH219327   2.397   1.728   5.883
 6461TIP3    H119328   2.299   1.738   5.890
 6461TIP3    H219329   2.416   1.685   5.968
 6462TIP3   OH219330   3.214   2.404   4.421
 6462TIP3    H119331   3.206   2.335   4.490
 6462TIP3    H219332   3.310   2.402   4.405
 6463TIP3   OH219333   2.125   2.802   5.516
 6463TIP3    H119334   2.179   2.732   5.555
 6463TIP3    H219335   2.150   2.878   5.570
 6464TIP3   OH219336   2.416   2.449   4.199
 6464TIP3    H119337   2.429   2.355   4.174
 6464TIP3    H219338   2.395   2.441   4.294
 6465TIP3   OH219339   2.360   2.455   4.471
 6465TIP3    H119340   2.434   2.432   4.529
 6465TIP3    H219341   2.361   2.553   4.476
 6466TIP3   OH219342   2.095   2.149   4.678
 6466TIP3    H119343   2.028   2.193   4.733
 6466TIP3    H219344   2.107   2.216   4.608
 6467TIP3   OH219345   3.255   1.772   5.564
 6467TIP3    H119346   3.328   1.821   5.607
 6467TIP3    H219347   3.239   1.698   5.627
 6468TIP3   OH219348   3.095   1.568   4.741
 6468TIP3    H119349   3.097   1.557   4.643
 6468TIP3    H219350   3.162   1.637   4.753
 6469TIP3   OH219351   2.629   2.650   4.422
 6469TIP3    H119352   2.541   2.677   4.455
 6469TIP3    H219353   2.645   2.724   4.360
 6470TIP3   OH219354   2.873   1.744   4.839
 6470TIP3    H119355   2.917   1.669   4.795
 6470TIP3    H219356   2.843   1.703   4.925
 6471TIP3   OH219357   3.093   2.035   5.642
 6471TIP3    H119358   3.110   2.091   5.721
 6471TIP3    H219359   3.141   1.954   5.666
 6472TIP3   OH219360   2.952   1.447   4.941
 6472TIP3    H119361   2.985   1.500   5.017
 6472TIP3    H219362   3.014   1.477   4.870
 6473TIP3   OH219363   2.373   2.725   4.489
 6473TIP3    H119364   2.345   2.795   4.426
 6473TIP3    H219365   2.358   2.770   4.575
 6474TIP3   OH219366   2.468   1.437   4.727
 6474TIP3    H119367   2.469   1.527   4.763
 6474TIP3    H219368   2.563   1.416   4.732
 6475TIP3   OH219369   3.722   1.932   5.630
 6475TIP3    H119370   3.624   1.927   5.630
 6475TIP3    H219371   3.742   1.899   5.541
 6476TIP3   OH219372   3.382   2.123   5.012
 6476TIP3    H119373   3.339   2.037   5.007
 6476TIP3    H219374   3.465   2.098   5.059
 6477TIP3   OH219375   2.088   2.352   4.482
 6477TIP3    H119376   2.154   2.424   4.489
 6477TIP3    H219377   2.133   2.296   4.415
 6478TIP3   OH219378   2.040   1.633   4.608
 6478TIP3    H119379   2.035   1.730   4.613
 6478TIP3    H219380   1.952   1.610   4.577
 6479TIP3   OH219381   3.348   3.078   4.954
 6479TIP3    H119382   3.305   3.127   4.879
 6479TIP3    H219383   3.442   3.102   4.936
 6480TIP3   OH219384   2.435   1.349   5.482
 6480TIP3    H119385   2.399   1.322   5.395
 6480TIP3    H219386   2.413   1.272   5.538
 6481TIP3   OH219387   1.956   2.568   4.863
 6481TIP3    H119388   1.894   2.600   4.930
 6481TIP3    H219389   1.922   2.613   4.782
 6482TIP3   OH219390   2.119   3.118   5.940
 6482TIP3    H119391   2.206   3.120   5.988
 6482TIP3    H219392   2.102   3.023   5.939
 6483TIP3   OH219393   2.592   3.073   5.984
 6483TIP3    H119394   2.687   3.061   5.992
 6483TIP3    H219395   2.570   3.010   5.913
 6484TIP3   OH219396   2.578   2.654   4.109
 6484TIP3    H119397   2.528   2.577   4.145
 6484TIP3    H219398   2.654   2.610   4.066
 6485TIP3   OH219399   3.238   2.947   5.678
 6485TIP3    H119400   3.230   2.896   5.763
 6485TIP3    H219401   3.309   3.010   5.705
 6486TIP3   OH219402   3.020   2.681   4.024
 6486TIP3    H119403   3.069   2.614   4.075
 6486TIP3    H219404   3.075   2.688   3.944
 6487TIP3   OH219405   2.248   2.522   6.137
 6487TIP3    H119406   2.264   2.426   6.147
 6487TIP3    H219407   2.160   2.523   6.093
 6488TIP3   OH219408   2.227   2.168   4.338
 6488TIP3    H119409   2.286   2.141   4.411
 6488TIP3    H219410   2.294   2.176   4.266
 6489TIP3   OH219411   2.858   2.608   5.915
 6489TIP3    H119412   2.807   2.627   5.834
 6489TIP3    H219413   2.885   2.515   5.903
 6490TIP3   OH219414   2.738   2.366   4.145
 6490TIP3    H119415   2.741   2.380   4.241
 6490TIP3    H219416   2.739   2.268   4.140
 6491TIP3   OH219417   3.348   2.588   5.525
 6491TIP3    H119418   3.415   2.639   5.476
 6491TIP3    H219419   3.280   2.653   5.543
 6492TIP3   OH219420   2.372   2.260   6.120
 6492TIP3    H119421   2.442   2.196   6.105
 6492TIP3    H219422   2.395   2.291   6.211
 6493TIP3   OH219423   2.433   2.075   4.556
 6493TIP3    H119424   2.399   2.037   4.639
 6493TIP3    H219425   2.467   1.997   4.509
 6494TIP3   OH219426   2.707   2.144   5.787
 6494TIP3    H119427   2.625   2.197   5.786
 6494TIP3    H219428   2.754   2.177   5.707
 6495TIP3   OH219429   2.536   1.868   4.397
 6495TIP3    H119430   2.510   1.880   4.304
 6495TIP3    H219431   2.634   1.872   4.389
 6496TIP3   OH219432   3.224   2.543   5.911
 6496TIP3    H119433   3.314   2.517   5.887
 6496TIP3    H219434   3.206   2.481   5.983
 6497TIP3   OH219435   2.825   1.934   5.913
 6497TIP3    H119436   2.811   1.855   5.861
 6497TIP3    H219437   2.784   2.004   5.858
 6498TIP3   OH219438   2.828   1.640   5.696
 6498TIP3    H119439   2.887   1.696   5.640
 6498TIP3    H219440   2.748   1.695   5.687
 6499TIP3   OH219441   2.855   2.252   5.589
 6499TIP3    H119442   2.936   2.257   5.537
 6499TIP3    H219443   2.794   2.313   5.542
 6500TIP3   OH219444   3.433   2.213   5.967
 6500TIP3    H119445   3.483   2.132   5.988
 6500TIP3    H219446   3.502   2.271   5.932
 6501TIP3   OH219447   3.490   2.455   5.708
 6501TIP3    H119448   3.429   2.505   5.648
 6501TIP3    H219449   3.576   2.482   5.669
 6502TIP3   OH219450   2.699   2.039   6.144
 6502TIP3    H119451   2.637   1.971   6.177
 6502TIP3    H219452   2.731   2.002   6.060
 6503TIP3   OH219453   3.086   1.980   6.005
 6503TIP3    H119454   3.074   1.964   6.101
 6503TIP3    H219455   2.995   1.959   5.974
 6504TIP3   OH219456   3.319   1.922   5.853
 6504TIP3    H119457   3.248   1.929   5.919
 6504TIP3    H219458   3.396   1.896   5.908
 6505TIP3   OH219459   3.552   1.871   6.001
 6505TIP3    H119460   3.565   1.775   6.019
 6505TIP3    H219461   3.547   1.909   6.092
 6506TIP3   OH219462   3.077   1.502   5.991
 6506TIP3    H119463   3.145   1.434   6.010
 6506TIP3    H219464   2.997   1.448   5.989
 6507TIP3   OH219465   3.127   1.702   6.195
 6507TIP3    H119466   3.103   1.641   6.123
 6507TIP3    H219467   3.046   1.757   6.203
 6508TIP3   OH219468   2.342   2.922   4.299
 6508TIP3    H119469   2.438   2.920   4.282
 6508TIP3    H219470   2.314   2.979   4.225
 6509TIP3   OH219471   1.818   2.308   4.512
 6509TIP3    H119472   1.911   2.334   4.497
 6509TIP3    H219473   1.816   2.219   4.471
 6510TIP3   OH219474   1.732   2.921   4.937
 6510TIP3    H119475   1.670   2.858   4.894
 6510TIP3    H219476   1.780   2.861   4.998
 6511TIP3   OH219477   1.871   2.766   5.118
 6511TIP3    H119478   1.862   2.698   5.187
 6511TIP3    H219479   1.924   2.832   5.167
 6512TIP3   OH219480   3.601   3.170   4.921
 6512TIP3    H119481   3.626   3.220   5.001
 6512TIP3    H219482   3.657   3.211   4.854
 6513TIP3   OH219483   3.620   3.199   5.208
 6513TIP3    H119484   3.594   3.106   5.195
 6513TIP3    H219485   3.706   3.188   5.252
 6514TIP3   OH219486   3.671   2.871   5.773
 6514TIP3    H119487   3.602   2.882   5.841
 6514TIP3    H219488   3.716   2.958   5.775
 6515TIP3   OH219489   3.493   2.384   4.391
 6515TIP3    H119490   3.556   2.453   4.362
 6515TIP3    H219491   3.539   2.348   4.470
 6516TIP3   OH219492   3.621   2.251   4.594
 6516TIP3    H119493   3.555   2.212   4.655
 6516TIP3    H219494   3.689   2.286   4.655
 6517TIP3   OH219495   3.668   2.643   5.019
 6517TIP3    H119496   3.725   2.577   4.975
 6517TIP3    H219497   3.678   2.721   4.961
 6518TIP3   OH219498   3.503   2.942   5.223
 6518TIP3    H119499   3.433   2.994   5.267
 6518TIP3    H219500   3.453   2.897   5.152
 6519TIP3   OH219501   3.557   2.157   4.247
 6519TIP3    H119502   3.471   2.133   4.212
 6519TIP3    H219503   3.536   2.240   4.295
 6520TIP3   OH219504   3.423   1.839   4.193
 6520TIP3    H119505   3.394   1.864   4.105
 6520TIP3    H219506   3.401   1.743   4.193
 6521TIP3   OH219507   3.430   2.112   4.740
 6521TIP3    H119508   3.443   2.016   4.730
 6521TIP3    H219509   3.422   2.123   4.837
 6522TIP3   OH219510   2.057   2.178   5.487
 6522TIP3    H119511   2.053   2.137   5.398
 6522TIP3    H219512   2.155   2.179   5.502
 6523TIP3   OH219513   3.725   2.535   5.598
 6523TIP3    H119514   3.796   2.467   5.587
 6523TIP3    H219515   3.756   2.606   5.539
 6524TIP3   OH219516   3.902   2.333   5.609
 6524TIP3    H119517   3.830   2.283   5.651
 6524TIP3    H219518   3.977   2.272   5.624
 6525TIP3   OH219519   3.367   1.573   4.187
 6525TIP3    H119520   3.442   1.534   4.237
 6525TIP3    H219521   3.295   1.509   4.200
 6526TIP3   OH219522   3.430   1.830   4.641
 6526TIP3    H119523   3.468   1.740   4.658
 6526TIP3    H219524   3.486   1.858   4.567
 6527TIP3   OH219525   3.592   2.001   5.132
 6527TIP3    H119526   3.679   2.023   5.091
 6527TIP3    H219527   3.609   2.036   5.222
 6528TIP3   OH219528   3.660   2.142   5.363
 6528TIP3    H119529   3.583   2.178   5.413
 6528TIP3    H219530   3.693   2.223   5.318
 6529TIP3   OH219531   2.300   1.869   6.175
 6529TIP3    H119532   2.389   1.847   6.207
 6529TIP3    H219533   2.255   1.786   6.202
 6530TIP3   OH219534   4.121   1.731   5.921
 6530TIP3    H119535   4.181   1.670   5.872
 6530TIP3    H219536   4.085   1.784   5.847
 6531TIP3   OH219537   3.534   1.576   4.677
 6531TIP3    H119538   3.585   1.559   4.758
 6531TIP3    H219539   3.475   1.498   4.675
 6532TIP3   OH219540   2.232   1.565   5.513
 6532TIP3    H119541   2.295   1.492   5.511
 6532TIP3    H219542   2.291   1.640   5.489
 6533TIP3   OH219543   2.043   1.829   5.544
 6533TIP3    H119544   2.093   1.800   5.465
 6533TIP3    H219545   2.086   1.912   5.565
 6534TIP3   OH219546   3.978   1.866   5.732
 6534TIP3    H119547   3.894   1.912   5.752
 6534TIP3    H219548   3.945   1.797   5.671
 6535TIP3   OH219549   3.615   1.506   4.309
 6535TIP3    H119550   3.654   1.437   4.251
 6535TIP3    H219551   3.682   1.577   4.305
 6536TIP3   OH219552   2.020   1.322   5.055
 6536TIP3    H119553   1.932   1.329   5.096
 6536TIP3    H219554   2.016   1.390   4.985
 6537TIP3   OH219555   3.184   3.035   4.576
 6537TIP3    H119556   3.234   3.028   4.492
 6537TIP3    H219557   3.226   3.112   4.618
 6538TIP3   OH219558   2.252   1.411   5.879
 6538TIP3    H119559   2.204   1.411   5.964
 6538TIP3    H219560   2.185   1.453   5.821
 6539TIP3   OH219561   2.284   2.847   5.956
 6539TIP3    H119562   2.191   2.822   5.941
 6539TIP3    H219563   2.295   2.828   6.050
 6540TIP3   OH219564   2.460   2.876   5.503
 6540TIP3    H119565   2.412   2.954   5.467
 6540TIP3    H219566   2.544   2.888   5.453
 6541TIP3   OH219567   2.917   3.099   5.624
 6541TIP3    H119568   2.938   3.107   5.719
 6541TIP3    H219569   2.970   3.174   5.587
 6542TIP3   OH219570   3.097   3.266   5.514
 6542TIP3    H119571   3.172   3.249   5.454
 6542TIP3    H219572   3.138   3.330   5.576
 6543TIP3   OH219573   3.879   1.633   5.602
 6543TIP3    H119574   3.789   1.624   5.567
 6543TIP3    H219575   3.913   1.541   5.593
 6544TIP3   OH219576   2.138   3.133   5.534
 6544TIP3    H119577   2.048   3.164   5.510
 6544TIP3    H219578   2.154   3.186   5.613
 6545TIP3   OH219579   2.373   3.112   5.389
 6545TIP3    H119580   2.286   3.125   5.432
 6545TIP3    H219581   2.355   3.145   5.299
 6546TIP3   OH219582   2.806   3.133   5.186
 6546TIP3    H119583   2.737   3.153   5.120
 6546TIP3    H219584   2.820   3.223   5.224
 6547TIP3   OH219585   3.072   3.073   5.249
 6547TIP3    H119586   2.977   3.084   5.230
 6547TIP3    H219587   3.110   3.142   5.192
 6548TIP3   OH219588   3.269   3.266   5.148
 6548TIP3    H119589   3.256   3.356   5.108
 6548TIP3    H219590   3.299   3.215   5.070
 6549TIP3   OH219591   2.045   2.927   5.275
 6549TIP3    H119592   2.074   2.899   5.365
 6549TIP3    H219593   2.117   2.886   5.222
 6550TIP3   OH219594   2.241   2.802   5.134
 6550TIP3    H119595   2.257   2.719   5.184
 6550TIP3    H219596   2.332   2.838   5.128
 6551TIP3   OH219597   2.507   2.890   5.138
 6551TIP3    H119598   2.538   2.798   5.128
 6551TIP3    H219599   2.554   2.916   5.219
 6552TIP3   OH219600   3.073   1.537   5.201
 6552TIP3    H119601   3.040   1.473   5.267
 6552TIP3    H219602   3.159   1.498   5.174
 6553TIP3   OH219603   3.604   1.435   5.129
 6553TIP3    H119604   3.642   1.482   5.052
 6553TIP3    H219605   3.508   1.450   5.118
 6554TIP3   OH219606   3.700   1.530   4.892
 6554TIP3    H119607   3.773   1.476   4.854
 6554TIP3    H219608   3.737   1.620   4.876
 6555TIP3   OH219609   2.332   1.260   5.241
 6555TIP3    H119610   2.238   1.231   5.243
 6555TIP3    H219611   2.377   1.172   5.236
 6556TIP3   OH219612   2.116   1.128   4.884
 6556TIP3    H119613   2.145   1.189   4.814
 6556TIP3    H219614   2.087   1.191   4.953
 6557TIP3   OH219615   2.790   1.279   5.109
 6557TIP3    H119616   2.842   1.338   5.054
 6557TIP3    H219617   2.778   1.331   5.190
 6558TIP3   OH219618   3.317   1.434   5.099
 6558TIP3    H119619   3.331   1.387   5.016
 6558TIP3    H219620   3.308   1.358   5.162
 6559TIP3   OH219621   3.355   1.360   4.668
 6559TIP3    H119622   3.262   1.381   4.657
 6559TIP3    H219623   3.349   1.274   4.715
 6560TIP3   OH219624   1.834   2.706   4.666
 6560TIP3    H119625   1.748   2.673   4.631
 6560TIP3    H219626   1.828   2.799   4.637
 6561TIP3   OH219627   2.238   1.290   4.643
 6561TIP3    H119628   2.286   1.224   4.590
 6561TIP3    H219629   2.312   1.340   4.683
 6562TIP3   OH219630   2.747   1.468   4.744
 6562TIP3    H119631   2.801   1.422   4.810
 6562TIP3    H219632   2.729   1.552   4.788
 6563TIP3   OH219633   2.611   2.885   4.250
 6563TIP3    H119634   2.698   2.910   4.212
 6563TIP3    H219635   2.588   2.812   4.189
 6564TIP3   OH219636   3.326   3.007   4.342
 6564TIP3    H119637   3.320   2.910   4.328
 6564TIP3    H219638   3.281   3.041   4.262
 6565TIP3   OH219639   1.913   2.719   4.302
 6565TIP3    H119640   1.920   2.751   4.393
 6565TIP3    H219641   2.002   2.679   4.287
 6566TIP3   OH219642   3.616   1.599   6.034
 6566TIP3    H119643   3.634   1.570   6.126
 6566TIP3    H219644   3.706   1.594   5.994
 6567TIP3   OH219645   3.554   3.150   5.527
 6567TIP3    H119646   3.476   3.122   5.476
 6567TIP3    H219647   3.540   3.247   5.531
 6568TIP3   OH219648   4.821   2.524   4.291
 6568TIP3    H119649   4.792   2.615   4.272
 6568TIP3    H219650   4.743   2.474   4.259
 6569TIP3   OH219651   4.822   2.523   4.677
 6569TIP3    H119652   4.856   2.502   4.766
 6569TIP3    H219653   4.779   2.441   4.652
 6570TIP3   OH219654   4.115   2.417   5.047
 6570TIP3    H119655   4.148   2.349   5.109
 6570TIP3    H219656   4.194   2.472   5.036
 6571TIP3   OH219657   5.067   2.827   4.360
 6571TIP3    H119658   5.049   2.763   4.430
 6571TIP3    H219659   5.095   2.905   4.409
 6572TIP3   OH219660   4.091   2.826   4.762
 6572TIP3    H119661   4.084   2.728   4.764
 6572TIP3    H219662   4.188   2.837   4.753
 6573TIP3   OH219663   3.797   2.025   4.546
 6573TIP3    H119664   3.753   2.110   4.564
 6573TIP3    H219665   3.724   1.976   4.504
 6574TIP3   OH219666   3.853   2.318   4.725
 6574TIP3    H119667   3.905   2.241   4.758
 6574TIP3    H219668   3.919   2.365   4.672
 6575TIP3   OH219669   4.711   3.288   4.370
 6575TIP3    H119670   4.756   3.214   4.324
 6575TIP3    H219671   4.703   3.254   4.460
 6576TIP3   OH219672   4.617   2.749   4.725
 6576TIP3    H119673   4.661   2.675   4.679
 6576TIP3    H219674   4.698   2.798   4.752
 6577TIP3   OH219675   5.635   2.069   4.723
 6577TIP3    H119676   5.663   2.153   4.765
 6577TIP3    H219677   5.655   2.088   4.630
 6578TIP3   OH219678   5.030   2.249   4.754
 6578TIP3    H119679   5.074   2.164   4.774
 6578TIP3    H219680   4.999   2.232   4.663
 6579TIP3   OH219681   4.372   1.910   4.720
 6579TIP3    H119682   4.353   1.983   4.657
 6579TIP3    H219683   4.322   1.838   4.676
 6580TIP3   OH219684   5.066   2.002   4.340
 6580TIP3    H119685   5.138   1.988   4.407
 6580TIP3    H219686   5.119   2.038   4.266
 6581TIP3   OH219687   4.003   2.112   4.827
 6581TIP3    H119688   4.086   2.095   4.875
 6581TIP3    H219689   4.018   2.057   4.747
 6582TIP3   OH219690   4.442   2.309   4.625
 6582TIP3    H119691   4.537   2.286   4.635
 6582TIP3    H219692   4.405   2.225   4.590
 6583TIP3   OH219693   5.706   2.278   4.894
 6583TIP3    H119694   5.623   2.325   4.874
 6583TIP3    H219695   5.729   2.317   4.980
 6584TIP3   OH219696   4.365   1.893   5.154
 6584TIP3    H119697   4.307   1.931   5.086
 6584TIP3    H219698   4.312   1.912   5.235
 6585TIP3   OH219699   4.709   2.745   4.161
 6585TIP3    H119700   4.669   2.735   4.073
 6585TIP3    H219701   4.666   2.828   4.191
 6586TIP3   OH219702   4.471   2.669   4.946
 6586TIP3    H119703   4.413   2.740   4.982
 6586TIP3    H219704   4.516   2.717   4.873
 6587TIP3   OH219705   5.271   2.007   4.520
 6587TIP3    H119706   5.250   1.969   4.607
 6587TIP3    H219707   5.322   2.086   4.545
 6588TIP3   OH219708   4.237   2.009   4.938
 6588TIP3    H119709   4.298   2.082   4.962
 6588TIP3    H219710   4.287   1.969   4.863
 6589TIP3   OH219711   4.302   2.867   5.046
 6589TIP3    H119712   4.278   2.955   5.009
 6589TIP3    H219713   4.222   2.851   5.101
 6590TIP3   OH219714   3.691   2.554   4.285
 6590TIP3    H119715   3.649   2.589   4.205
 6590TIP3    H219716   3.723   2.638   4.325
 6591TIP3   OH219717   5.133   3.070   4.519
 6591TIP3    H119718   5.044   3.063   4.561
 6591TIP3    H219719   5.126   3.157   4.476
 6592TIP3   OH219720   5.427   1.965   4.886
 6592TIP3    H119721   5.340   1.996   4.855
 6592TIP3    H219722   5.488   2.000   4.817
 6593TIP3   OH219723   4.718   1.610   4.870
 6593TIP3    H119724   4.702   1.516   4.889
 6593TIP3    H219725   4.642   1.650   4.917
 6594TIP3   OH219726   4.834   3.112   4.195
 6594TIP3    H119727   4.886   3.030   4.174
 6594TIP3    H219728   4.895   3.179   4.157
 6595TIP3   OH219729   4.980   2.896   4.107
 6595TIP3    H119730   4.936   2.817   4.073
 6595TIP3    H219731   5.018   2.864   4.192
 6596TIP3   OH219732   5.359   2.980   4.869
 6596TIP3    H119733   5.346   2.904   4.807
 6596TIP3    H219734   5.339   3.056   4.810
 6597TIP3   OH219735   4.650   2.374   4.126
 6597TIP3    H119736   4.571   2.429   4.107
 6597TIP3    H219737   4.697   2.375   4.041
 6598TIP3   OH219738   4.609   2.163   3.838
 6598TIP3    H119739   4.674   2.215   3.888
 6598TIP3    H219740   4.668   2.101   3.791
 6599TIP3   OH219741   5.554   2.619   4.714
 6599TIP3    H119742   5.470   2.671   4.717
 6599TIP3    H219743   5.585   2.645   4.624
 6600TIP3   OH219744   4.999   2.457   4.095
 6600TIP3    H119745   4.945   2.482   4.173
 6600TIP3    H219746   5.084   2.435   4.139
 6601TIP3   OH219747   5.233   2.496   5.013
 6601TIP3    H119748   5.231   2.579   5.064
 6601TIP3    H219749   5.147   2.502   4.966
 6602TIP3   OH219750   4.231   2.454   4.516
 6602TIP3    H119751   4.192   2.397   4.447
 6602TIP3    H219752   4.308   2.402   4.545
 6603TIP3   OH219753   4.357   2.859   4.664
 6603TIP3    H119754   4.342   2.833   4.572
 6603TIP3    H219755   4.448   2.827   4.681
 6604TIP3   OH219756   4.360   2.430   4.867
 6604TIP3    H119757   4.398   2.404   4.779
 6604TIP3    H219758   4.407   2.514   4.886
 6605TIP3   OH219759   4.895   3.065   4.646
 6605TIP3    H119760   4.878   3.148   4.693
 6605TIP3    H219761   4.875   2.996   4.712
 6606TIP3   OH219762   4.507   2.981   5.194
 6606TIP3    H119763   4.446   3.044   5.238
 6606TIP3    H219764   4.443   2.930   5.141
 6607TIP3   OH219765   4.837   2.316   3.923
 6607TIP3    H119766   4.896   2.378   3.972
 6607TIP3    H219767   4.864   2.337   3.830
 6608TIP3   OH219768   4.264   2.537   5.298
 6608TIP3    H119769   4.268   2.627   5.337
 6608TIP3    H219770   4.168   2.519   5.309
 6609TIP3   OH219771   4.585   2.993   4.197
 6609TIP3    H119772   4.667   3.046   4.207
 6609TIP3    H219773   4.524   3.058   4.160
 6610TIP3   OH219774   4.301   3.147   5.278
 6610TIP3    H119775   4.266   3.155   5.188
 6610TIP3    H219776   4.220   3.126   5.330
 6611TIP3   OH219777   5.354   1.555   3.972
 6611TIP3    H119778   5.273   1.578   4.021
 6611TIP3    H219779   5.370   1.638   3.922
 6612TIP3   OH219780   4.100   2.298   4.315
 6612TIP3    H119781   4.031   2.344   4.262
 6612TIP3    H219782   4.060   2.211   4.328
 6613TIP3   OH219783   5.154   2.923   3.519
 6613TIP3    H119784   5.162   3.020   3.506
 6613TIP3    H219785   5.247   2.895   3.507
 6614TIP3   OH219786   3.874   2.682   5.229
 6614TIP3    H119787   3.817   2.658   5.154
 6614TIP3    H219788   3.917   2.597   5.252
 6615TIP3   OH219789   3.735   2.872   4.868
 6615TIP3    H119790   3.829   2.870   4.849
 6615TIP3    H219791   3.728   2.956   4.917
 6616TIP3   OH219792   5.599   3.330   4.919
 6616TIP3    H119793   5.595   3.234   4.934
 6616TIP3    H219794   5.514   3.357   4.962
 6617TIP3   OH219795   4.704   3.110   5.051
 6617TIP3    H119796   4.700   3.204   5.081
 6617TIP3    H219797   4.632   3.071   5.104
 6618TIP3   OH219798   4.467   3.244   4.002
 6618TIP3    H119799   4.419   3.231   3.919
 6618TIP3    H219800   4.431   3.330   4.032
 6619TIP3   OH219801   3.902   3.085   4.387
 6619TIP3    H119802   3.954   3.080   4.470
 6619TIP3    H219803   3.837   3.016   4.402
 6620TIP3   OH219804   4.664   3.143   3.639
 6620TIP3    H119805   4.724   3.073   3.604
 6620TIP3    H219806   4.699   3.155   3.730
 6621TIP3   OH219807   4.716   3.191   3.907
 6621TIP3    H119808   4.628   3.204   3.949
 6621TIP3    H219809   4.769   3.161   3.983
 6622TIP3   OH219810   5.486   2.456   5.192
 6622TIP3    H119811   5.403   2.468   5.144
 6622TIP3    H219812   5.501   2.359   5.181
 6623TIP3   OH219813   4.083   2.863   5.209
 6623TIP3    H119814   4.132   2.851   5.293
 6623TIP3    H219815   4.007   2.802   5.221
 6624TIP3   OH219816   4.481   1.687   5.001
 6624TIP3    H119817   4.392   1.659   4.972
 6624TIP3    H219818   4.457   1.769   5.049
 6625TIP3   OH219819   5.019   1.802   5.194
 6625TIP3    H119820   5.087   1.777   5.260
 6625TIP3    H219821   4.935   1.786   5.241
 6626TIP3   OH219822   5.253   2.233   5.110
 6626TIP3    H119823   5.202   2.231   5.195
 6626TIP3    H219824   5.230   2.321   5.075
 6627TIP3   OH219825   4.915   2.355   3.666
 6627TIP3    H119826   4.880   2.336   3.577
 6627TIP3    H219827   4.996   2.404   3.645
 6628TIP3   OH219828   4.627   1.735   3.971
 6628TIP3    H119829   4.592   1.732   4.063
 6628TIP3    H219830   4.586   1.654   3.936
 6629TIP3   OH219831   4.412   2.207   5.015
 6629TIP3    H119832   4.367   2.229   5.099
 6629TIP3    H219833   4.396   2.288   4.962
 6630TIP3   OH219834   4.299   2.090   4.531
 6630TIP3    H119835   4.206   2.066   4.550
 6630TIP3    H219836   4.310   2.049   4.442
 6631TIP3   OH219837   4.787   2.174   4.260
 6631TIP3    H119838   4.737   2.246   4.217
 6631TIP3    H219839   4.843   2.142   4.186
 6632TIP3   OH219840   4.963   2.451   5.341
 6632TIP3    H119841   4.942   2.379   5.404
 6632TIP3    H219842   5.056   2.468   5.365
 6633TIP3   OH219843   4.943   2.201   4.498
 6633TIP3    H119844   4.882   2.233   4.428
 6633TIP3    H219845   4.978   2.122   4.451
 6634TIP3   OH219846   4.234   2.234   5.228
 6634TIP3    H119847   4.272   2.297   5.291
 6634TIP3    H219848   4.226   2.153   5.281
 6635TIP3   OH219849   4.283   1.711   3.935
 6635TIP3    H119850   4.273   1.711   4.033
 6635TIP3    H219851   4.206   1.765   3.909
 6636TIP3   OH219852   3.825   1.753   4.811
 6636TIP3    H119853   3.900   1.788   4.863
 6636TIP3    H219854   3.867   1.727   4.727
 6637TIP3   OH219855   3.792   1.733   4.326
 6637TIP3    H119856   3.836   1.771   4.247
 6637TIP3    H219857   3.731   1.807   4.346
 6638TIP3   OH219858   4.953   2.448   4.918
 6638TIP3    H119859   4.987   2.377   4.859
 6638TIP3    H219860   4.923   2.394   4.994
 6639TIP3   OH219861   4.629   1.908   4.591
 6639TIP3    H119862   4.548   1.910   4.646
 6639TIP3    H219863   4.699   1.908   4.658
 6640TIP3   OH219864   4.060   1.969   4.600
 6640TIP3    H119865   3.966   1.975   4.570
 6640TIP3    H219866   4.084   1.878   4.576
 6641TIP3   OH219867   4.324   1.962   4.290
 6641TIP3    H119868   4.418   1.979   4.269
 6641TIP3    H219869   4.278   1.985   4.206
 6642TIP3   OH219870   5.119   1.987   4.792
 6642TIP3    H119871   5.089   2.001   4.885
 6642TIP3    H219872   5.048   1.929   4.760
 6643TIP3   OH219873   4.175   1.998   4.064
 6643TIP3    H119874   4.106   1.953   4.012
 6643TIP3    H219875   4.228   2.039   3.992
 6644TIP3   OH219876   5.292   3.676   5.015
 6644TIP3    H119877   5.286   3.705   4.922
 6644TIP3    H219878   5.368   3.728   5.046
 6645TIP3   OH219879   4.245   2.785   5.435
 6645TIP3    H119880   4.325   2.817   5.481
 6645TIP3    H219881   4.180   2.790   5.508
 6646TIP3   OH219882   4.707   2.241   4.688
 6646TIP3    H119883   4.784   2.205   4.640
 6646TIP3    H219884   4.715   2.198   4.775
 6647TIP3   OH219885   4.225   1.729   4.572
 6647TIP3    H119886   4.191   1.651   4.620
 6647TIP3    H219887   4.273   1.688   4.498
 6648TIP3   OH219888   4.684   2.141   4.981
 6648TIP3    H119889   4.594   2.178   4.994
 6648TIP3    H219890   4.741   2.203   5.030
 6649TIP3   OH219891   4.421   2.526   4.074
 6649TIP3    H119892   4.346   2.464   4.061
 6649TIP3    H219893   4.400   2.561   4.164
 6650TIP3   OH219894   5.320   2.763   4.700
 6650TIP3    H119895   5.344   2.816   4.621
 6650TIP3    H219896   5.235   2.723   4.673
 6651TIP3   OH219897   4.879   1.837   3.942
 6651TIP3    H119898   4.782   1.820   3.949
 6651TIP3    H219899   4.887   1.932   3.965
 6652TIP3   OH219900   4.814   2.843   5.075
 6652TIP3    H119901   4.853   2.835   5.163
 6652TIP3    H219902   4.781   2.935   5.075
 6653TIP3   OH219903   4.947   2.089   4.042
 6653TIP3    H119904   5.043   2.096   4.058
 6653TIP3    H219905   4.927   2.170   3.991
 6654TIP3   OH219906   4.108   2.541   4.749
 6654TIP3    H119907   4.149   2.520   4.662
 6654TIP3    H219908   4.167   2.493   4.809
 6655TIP3   OH219909   4.566   2.678   3.897
 6655TIP3    H119910   4.517   2.763   3.899
 6655TIP3    H219911   4.512   2.624   3.959
 6656TIP3   OH219912   3.997   2.474   5.366
 6656TIP3    H119913   4.024   2.461   5.460
 6656TIP3    H219914   3.932   2.403   5.355
 6657TIP3   OH219915   4.723   2.586   5.383
 6657TIP3    H119916   4.663   2.528   5.334
 6657TIP3    H219917   4.811   2.553   5.353
 6658TIP3   OH219918   4.979   3.097   4.975
 6658TIP3    H119919   4.882   3.105   4.984
 6658TIP3    H219920   5.008   3.155   5.048
 6659TIP3   OH219921   5.387   2.182   3.876
 6659TIP3    H119922   5.326   2.138   3.813
 6659TIP3    H219923   5.384   2.273   3.837
 6660TIP3   OH219924   5.609   3.036   4.957
 6660TIP3    H119925   5.511   3.032   4.948
 6660TIP3    H219926   5.635   3.008   4.867
 6661TIP3   OH219927   5.093   2.999   3.785
 6661TIP3    H119928   5.063   2.932   3.848
 6661TIP3    H219929   5.104   2.949   3.702
 6662TIP3   OH219930   5.086   2.628   4.618
 6662TIP3    H119931   4.992   2.605   4.632
 6662TIP3    H219932   5.118   2.547   4.573
 6663TIP3   OH219933   4.218   2.857   4.374
 6663TIP3    H119934   4.219   2.938   4.320
 6663TIP3    H219935   4.123   2.846   4.389
 6664TIP3   OH219936   3.776   2.165   4.071
 6664TIP3    H119937   3.825   2.244   4.100
 6664TIP3    H219938   3.702   2.165   4.134
 6665TIP3   OH219939   4.345   2.617   4.316
 6665TIP3    H119940   4.313   2.708   4.333
 6665TIP3    H219941   4.311   2.570   4.394
 6666TIP3   OH219942   4.485   3.198   4.842
 6666TIP3    H119943   4.524   3.273   4.791
 6666TIP3    H219944   4.563   3.165   4.889
 6667TIP3   OH219945   4.137   3.092   4.227
 6667TIP3    H119946   4.051   3.105   4.271
 6667TIP3    H219947   4.173   3.184   4.231
 6668TIP3   OH219948   4.867   2.831   4.806
 6668TIP3    H119949   4.857   2.829   4.904
 6668TIP3    H219950   4.952   2.785   4.795
 6669TIP3   OH219951   4.850   2.725   3.687
 6669TIP3    H119952   4.903   2.699   3.765
 6669TIP3    H219953   4.761   2.702   3.717
 6670TIP3   OH219954   5.120   3.362   4.850
 6670TIP3    H119955   5.036   3.312   4.841
 6670TIP3    H219956   5.108   3.429   4.779
 6671TIP3   OH219957   5.186   3.199   3.505
 6671TIP3    H119958   5.223   3.274   3.456
 6671TIP3    H219959   5.105   3.242   3.541
 6672TIP3   OH219960   4.205   1.977   5.368
 6672TIP3    H119961   4.108   1.979   5.382
 6672TIP3    H219962   4.234   1.922   5.443
 6673TIP3   OH219963   5.010   2.654   3.899
 6673TIP3    H119964   5.000   2.591   3.973
 6673TIP3    H219965   5.107   2.654   3.888
 6674TIP3   OH219966   3.920   3.062   5.005
 6674TIP3    H119967   3.980   2.996   5.045
 6674TIP3    H219968   3.950   3.144   5.047
 6675TIP3   OH219969   4.213   2.705   3.686
 6675TIP3    H119970   4.226   2.611   3.662
 6675TIP3    H219971   4.193   2.698   3.782
 6676TIP3   OH219972   4.158   2.711   3.958
 6676TIP3    H119973   4.233   2.689   4.015
 6676TIP3    H219974   4.157   2.809   3.965
 6677TIP3   OH219975   3.889   2.404   4.163
 6677TIP3    H119976   3.825   2.452   4.220
 6677TIP3    H219977   3.909   2.474   4.098
 6678TIP3   OH219978   5.048   2.037   5.051
 6678TIP3    H119979   5.125   2.080   5.093
 6678TIP3    H219980   5.035   1.957   5.108
 6679TIP3   OH219981   4.927   1.787   4.223
 6679TIP3    H119982   4.912   1.810   4.129
 6679TIP3    H219983   4.966   1.870   4.258
 6680TIP3   OH219984   4.422   2.906   3.904
 6680TIP3    H119985   4.335   2.931   3.942
 6680TIP3    H219986   4.441   2.987   3.853
 6681TIP3   OH219987   4.607   1.973   4.322
 6681TIP3    H119988   4.671   2.045   4.304
 6681TIP3    H219989   4.615   1.964   4.419
 6682TIP3   OH219990   4.881   2.287   5.127
 6682TIP3    H119991   4.905   2.343   5.204
 6682TIP3    H219992   4.935   2.208   5.142
 6683TIP3   OH219993   4.753   1.692   4.421
 6683TIP3    H119994   4.745   1.769   4.479
 6683TIP3    H219995   4.816   1.727   4.353
 6684TIP3   OH219996   4.166   2.981   3.976
 6684TIP3    H119997   4.139   3.052   3.913
 6684TIP3    H219998   4.153   3.026   4.063
 6685TIP3   OH219999   4.267   1.698   4.212
 6685TIP3    H120000   4.265   1.789   4.249
 6685TIP3    H220001   4.364   1.681   4.220
 6686TIP3   OH220002   5.519   2.188   5.113
 6686TIP3    H120003   5.421   2.186   5.117
 6686TIP3    H220004   5.533   2.154   5.024
 6687TIP3   OH220005   5.172   2.382   4.497
 6687TIP3    H120006   5.095   2.324   4.511
 6687TIP3    H220007   5.243   2.336   4.546
 6688TIP3   OH220008   3.890   2.614   3.968
 6688TIP3    H120009   3.957   2.684   3.977
 6688TIP3    H220010   3.935   2.559   3.900
 6689TIP3   OH220011   3.822   1.892   4.104
 6689TIP3    H120012   3.826   1.989   4.095
 6689TIP3    H220013   3.754   1.870   4.039
 6690TIP3   OH220014   5.143   3.339   4.444
 6690TIP3    H120015   5.100   3.386   4.369
 6690TIP3    H220016   5.237   3.358   4.424
 6691TIP3   OH220017   4.215   1.609   4.972
 6691TIP3    H120018   4.186   1.575   4.885
 6691TIP3    H220019   4.205   1.531   5.029
 6692TIP3   OH220020   3.745   2.814   4.351
 6692TIP3    H120021   3.684   2.853   4.415
 6692TIP3    H220022   3.721   2.863   4.269
 6693TIP3   OH220023   3.916   3.374   5.428
 6693TIP3    H120024   4.002   3.380   5.475
 6693TIP3    H220025   3.903   3.278   5.425
 6694TIP3   OH220026   4.388   3.327   5.475
 6694TIP3    H120027   4.484   3.321   5.477
 6694TIP3    H220028   4.367   3.267   5.400
 6695TIP3   OH220029   4.373   2.908   3.592
 6695TIP3    H120030   4.319   2.837   3.633
 6695TIP3    H220031   4.450   2.857   3.562
 6696TIP3   OH220032   5.033   3.240   5.204
 6696TIP3    H120033   5.027   3.171   5.274
 6696TIP3    H220034   5.109   3.293   5.234
 6697TIP3   OH220035   4.810   2.946   3.509
 6697TIP3    H120036   4.855   2.884   3.570
 6697TIP3    H220037   4.868   2.944   3.431
 6698TIP3   OH220038   4.042   2.775   5.626
 6698TIP3    H120039   4.058   2.680   5.633
 6698TIP3    H220040   3.955   2.778   5.580
 6699TIP3   OH220041   4.021   2.421   3.823
 6699TIP3    H120042   4.079   2.395   3.896
 6699TIP3    H220043   4.087   2.428   3.751
 6700TIP3   OH220044   4.649   2.863   5.401
 6700TIP3    H120045   4.610   2.887   5.314
 6700TIP3    H220046   4.681   2.772   5.387
 6701TIP3   OH220047   4.536   2.625   3.628
 6701TIP3    H120048   4.537   2.638   3.725
 6701TIP3    H220049   4.535   2.527   3.623
 6702TIP3   OH220050   5.142   2.874   5.006
 6702TIP3    H120051   5.219   2.915   4.963
 6702TIP3    H220052   5.075   2.944   4.993
 6703TIP3   OH220053   4.169   2.502   5.608
 6703TIP3    H120054   4.253   2.466   5.578
 6703TIP3    H220055   4.194   2.540   5.695
 6704TIP3   OH220056   4.221   2.332   4.036
 6704TIP3    H120057   4.201   2.293   4.122
 6704TIP3    H220058   4.263   2.258   3.988
 6705TIP3   OH220059   4.496   2.388   5.265
 6705TIP3    H120060   4.421   2.452   5.269
 6705TIP3    H220061   4.549   2.424   5.190
 6706TIP3   OH220062   4.331   2.127   3.881
 6706TIP3    H120063   4.307   2.135   3.787
 6706TIP3    H220064   4.429   2.129   3.874
 6707TIP3   OH220065   5.013   2.795   5.402
 6707TIP3    H120066   5.093   2.769   5.356
 6707TIP3    H220067   5.010   2.731   5.476
 6708TIP3   OH220068   5.149   2.452   3.549
 6708TIP3    H120069   5.129   2.410   3.463
 6708TIP3    H220070   5.117   2.543   3.529
 6709TIP3   OH220071   4.623   2.186   5.402
 6709TIP3    H120072   4.625   2.108   5.343
 6709TIP3    H220073   4.578   2.252   5.345
 6710TIP3   OH220074   4.624   1.971   5.204
 6710TIP3    H120075   4.653   2.014   5.121
 6710TIP3    H220076   4.530   1.949   5.184
 6711TIP3   OH220077   4.647   2.503   5.075
 6711TIP3    H120078   4.734   2.522   5.037
 6711TIP3    H220079   4.591   2.570   5.031
 6712TIP3   OH220080   5.230   2.471   5.454
 6712TIP3    H120081   5.282   2.390   5.465
 6712TIP3    H220082   5.296   2.532   5.419
 6713TIP3   OH220083   5.272   2.724   5.190
 6713TIP3    H120084   5.214   2.780   5.133
 6713TIP3    H220085   5.359   2.747   5.151
 6714TIP3   OH220086   4.468   2.313   5.619
 6714TIP3    H120087   4.417   2.232   5.638
 6714TIP3    H220088   4.527   2.281   5.548
 6715TIP3   OH220089   4.755   1.730   5.264
 6715TIP3    H120090   4.706   1.813   5.246
 6715TIP3    H220091   4.684   1.663   5.257
 6716TIP3   OH220092   4.888   2.234   5.487
 6716TIP3    H120093   4.891   2.226   5.584
 6716TIP3    H220094   4.795   2.211   5.467
 6717TIP3   OH220095   5.120   2.182   5.339
 6717TIP3    H120096   5.045   2.187   5.401
 6717TIP3    H220097   5.194   2.156   5.397
 6718TIP3   OH220098   5.349   2.129   5.492
 6718TIP3    H120099   5.363   2.034   5.507
 6718TIP3    H220100   5.345   2.166   5.583
 6719TIP3   OH220101   4.329   2.074   5.669
 6719TIP3    H120102   4.342   1.983   5.637
 6719TIP3    H220103   4.372   2.065   5.757
 6720TIP3   OH220104   4.861   1.734   5.517
 6720TIP3    H120105   4.925   1.661   5.510
 6720TIP3    H220106   4.817   1.731   5.430
 6721TIP3   OH220107   4.136   3.176   3.783
 6721TIP3    H120108   4.233   3.175   3.769
 6721TIP3    H220109   4.110   3.236   3.710
 6722TIP3   OH220110   3.624   2.578   4.004
 6722TIP3    H120111   3.716   2.612   3.993
 6722TIP3    H220112   3.635   2.486   3.978
 6723TIP3   OH220113   3.534   3.173   4.417
 6723TIP3    H120114   3.466   3.115   4.377
 6723TIP3    H220115   3.578   3.113   4.480
 6724TIP3   OH220116   3.674   3.020   4.599
 6724TIP3    H120117   3.657   2.956   4.671
 6724TIP3    H220118   3.725   3.088   4.648
 6725TIP3   OH220119   5.400   3.423   4.407
 6725TIP3    H120120   5.420   3.461   4.494
 6725TIP3    H220121   5.456   3.476   4.348
 6726TIP3   OH220122   5.421   3.450   4.687
 6726TIP3    H120123   5.379   3.361   4.684
 6726TIP3    H220124   5.498   3.431   4.743
 6727TIP3   OH220125   5.472   3.126   5.261
 6727TIP3    H120126   5.399   3.137   5.326
 6727TIP3    H220127   5.513   3.215   5.264
 6728TIP3   OH220128   5.288   2.639   3.878
 6728TIP3    H120129   5.353   2.706   3.848
 6728TIP3    H220130   5.334   2.603   3.957
 6729TIP3   OH220131   5.416   2.506   4.082
 6729TIP3    H120132   5.349   2.467   4.142
 6729TIP3    H220133   5.481   2.544   4.145
 6730TIP3   OH220134   5.473   2.903   4.516
 6730TIP3    H120135   5.523   2.836   4.465
 6730TIP3    H220136   5.468   2.978   4.453
 6731TIP3   OH220137   5.298   3.198   4.710
 6731TIP3    H120138   5.227   3.245   4.759
 6731TIP3    H220139   5.248   3.156   4.637
 6732TIP3   OH220140   5.352   2.415   3.728
 6732TIP3    H120141   5.280   2.418   3.661
 6732TIP3    H220142   5.325   2.492   3.783
 6733TIP3   OH220143   5.225   2.087   3.681
 6733TIP3    H120144   5.177   2.127   3.608
 6733TIP3    H220145   5.201   1.992   3.670
 6734TIP3   OH220146   5.227   2.368   4.228
 6734TIP3    H120147   5.235   2.271   4.222
 6734TIP3    H220148   5.212   2.381   4.325
 6735TIP3   OH220149   3.852   2.440   4.978
 6735TIP3    H120150   3.851   2.408   4.885
 6735TIP3    H220151   3.950   2.441   4.994
 6736TIP3   OH220152   5.518   2.791   5.087
 6736TIP3    H120153   5.590   2.725   5.074
 6736TIP3    H220154   5.542   2.861   5.024
 6737TIP3   OH220155   5.700   2.590   5.092
 6737TIP3    H120156   5.626   2.542   5.136
 6737TIP3    H220157   5.773   2.528   5.110
 6738TIP3   OH220158   5.168   1.820   3.662
 6738TIP3    H120159   5.239   1.791   3.722
 6738TIP3    H220160   5.092   1.764   3.686
 6739TIP3   OH220161   5.225   2.082   4.121
 6739TIP3    H120162   5.266   1.994   4.135
 6739TIP3    H220163   5.282   2.117   4.050
 6740TIP3   OH220164   5.385   2.250   4.619
 6740TIP3    H120165   5.470   2.275   4.577
 6740TIP3    H220166   5.398   2.290   4.707
 6741TIP3   OH220167   5.456   2.399   4.848
 6741TIP3    H120168   5.379   2.434   4.897
 6741TIP3    H220169   5.488   2.480   4.803
 6742TIP3   OH220170   4.063   2.116   5.641
 6742TIP3    H120171   4.161   2.117   5.645
 6742TIP3    H220172   4.045   2.033   5.689
 6743TIP3   OH220173   5.907   1.992   5.405
 6743TIP3    H120174   5.968   1.929   5.361
 6743TIP3    H220175   5.875   2.045   5.328
 6744TIP3   OH220176   5.335   1.832   4.159
 6744TIP3    H120177   5.382   1.816   4.244
 6744TIP3    H220178   5.273   1.756   4.159
 6745TIP3   OH220179   4.031   1.818   4.985
 6745TIP3    H120180   4.094   1.743   4.992
 6745TIP3    H220181   4.094   1.892   4.974
 6746TIP3   OH220182   3.834   2.091   5.050
 6746TIP3    H120183   3.885   2.089   4.966
 6746TIP3    H220184   3.865   2.174   5.089
 6747TIP3   OH220185   5.774   2.127   5.211
 6747TIP3    H120186   5.691   2.173   5.233
 6747TIP3    H220187   5.740   2.057   5.152
 6748TIP3   OH220188   5.411   1.763   3.796
 6748TIP3    H120189   5.452   1.695   3.740
 6748TIP3    H220190   5.477   1.835   3.793
 6749TIP3   OH220191   3.820   1.593   4.555
 6749TIP3    H120192   3.727   1.588   4.581
 6749TIP3    H220193   3.816   1.652   4.477
 6750TIP3   OH220194   4.981   3.294   4.061
 6750TIP3    H120195   5.034   3.290   3.979
 6750TIP3    H220196   5.023   3.367   4.109
 6751TIP3   OH220197   4.039   1.673   5.368
 6751TIP3    H120198   3.988   1.670   5.450
 6751TIP3    H220199   3.973   1.711   5.306
 6752TIP3   OH220200   4.081   3.098   5.442
 6752TIP3    H120201   3.986   3.078   5.430
 6752TIP3    H220202   4.091   3.093   5.537
 6753TIP3   OH220203   4.260   3.137   4.991
 6753TIP3    H120204   4.212   3.214   4.952
 6753TIP3    H220205   4.345   3.150   4.946
 6754TIP3   OH220206   4.699   3.377   5.129
 6754TIP3    H120207   4.740   3.379   5.218
 6754TIP3    H220208   4.763   3.430   5.077
 6755TIP3   OH220209   4.879   3.531   4.994
 6755TIP3    H120210   4.951   3.486   4.948
 6755TIP3    H220211   4.931   3.590   5.054
 6756TIP3   OH220212   5.675   1.892   5.089
 6756TIP3    H120213   5.586   1.887   5.052
 6756TIP3    H220214   5.707   1.800   5.079
 6757TIP3   OH220215   3.932   3.383   5.027
 6757TIP3    H120216   3.843   3.413   5.001
 6757TIP3    H220217   3.953   3.447   5.096
 6758TIP3   OH220218   4.167   3.367   4.875
 6758TIP3    H120219   4.080   3.382   4.918
 6758TIP3    H220220   4.151   3.404   4.785
 6759TIP3   OH220221   4.595   3.395   4.674
 6759TIP3    H120222   4.527   3.414   4.607
 6759TIP3    H220223   4.608   3.485   4.713
 6760TIP3   OH220224   4.864   3.333   4.725
 6760TIP3    H120225   4.770   3.354   4.708
 6760TIP3    H220226   4.909   3.408   4.682
 6761TIP3   OH220227   5.069   3.524   4.639
 6761TIP3    H120228   5.054   3.611   4.595
 6761TIP3    H220229   5.095   3.468   4.563
 6762TIP3   OH220230   3.840   3.181   4.758
 6762TIP3    H120231   3.868   3.159   4.849
 6762TIP3    H220232   3.916   3.142   4.708
 6763TIP3   OH220233   4.039   3.057   4.621
 6763TIP3    H120234   4.057   2.974   4.671
 6763TIP3    H220235   4.129   3.096   4.617
 6764TIP3   OH220236   4.302   3.146   4.628
 6764TIP3    H120237   4.339   3.057   4.618
 6764TIP3    H220238   4.351   3.176   4.707
 6765TIP3   OH220239   4.881   1.807   4.710
 6765TIP3    H120240   4.839   1.736   4.760
 6765TIP3    H220241   4.956   1.761   4.667
 6766TIP3   OH220242   5.400   1.684   4.612
 6766TIP3    H120243   5.437   1.738   4.538
 6766TIP3    H220244   5.306   1.709   4.609
 6767TIP3   OH220245   5.498   1.784   4.377
 6767TIP3    H120246   5.572   1.734   4.338
 6767TIP3    H220247   5.531   1.876   4.363
 6768TIP3   OH220248   4.128   1.514   4.724
 6768TIP3    H120249   4.036   1.483   4.727
 6768TIP3    H220250   4.176   1.428   4.720
 6769TIP3   OH220251   3.920   1.387   4.375
 6769TIP3    H120252   3.949   1.443   4.300
 6769TIP3    H220253   3.892   1.453   4.441
 6770TIP3   OH220254   4.576   1.546   4.608
 6770TIP3    H120255   4.630   1.595   4.543
 6770TIP3    H220256   4.603   1.587   4.691
 6771TIP3   OH220257   5.115   1.696   4.590
 6771TIP3    H120258   5.118   1.657   4.501
 6771TIP3    H220259   5.104   1.616   4.646
 6772TIP3   OH220260   5.150   1.621   4.153
 6772TIP3    H120261   5.065   1.666   4.170
 6772TIP3    H220262   5.134   1.534   4.197
 6773TIP3   OH220263   3.633   2.960   4.153
 6773TIP3    H120264   3.545   2.932   4.120
 6773TIP3    H220265   3.629   3.054   4.130
 6774TIP3   OH220266   4.035   1.543   4.136
 6774TIP3    H120267   4.083   1.481   4.078
 6774TIP3    H220268   4.109   1.597   4.171
 6775TIP3   OH220269   4.544   1.722   4.235
 6775TIP3    H120270   4.606   1.677   4.295
 6775TIP3    H220271   4.564   1.815   4.259
 6776TIP3   OH220272   4.406   3.140   3.737
 6776TIP3    H120273   4.493   3.166   3.700
 6776TIP3    H220274   4.384   3.067   3.675
 6777TIP3   OH220275   5.127   3.266   3.827
 6777TIP3    H120276   5.117   3.169   3.817
 6777TIP3    H220277   5.078   3.298   3.749
 6778TIP3   OH220278   4.351   1.792   5.613
 6778TIP3    H120279   4.323   1.729   5.681
 6778TIP3    H220280   4.448   1.786   5.621
 6779TIP3   OH220281   3.701   2.966   3.790
 6779TIP3    H120282   3.707   3.010   3.876
 6779TIP3    H220283   3.793   2.932   3.777
 6780TIP3   OH220284   5.414   1.859   5.521
 6780TIP3    H120285   5.432   1.829   5.613
 6780TIP3    H220286   5.504   1.853   5.482
 6781TIP3   OH220287   5.348   3.407   5.014
 6781TIP3    H120288   5.270   3.378   4.963
 6781TIP3    H220289   5.331   3.503   5.019
 6782TIP3   OH220290   6.618   2.782   3.777
 6782TIP3    H120291   6.587   2.873   3.756
 6782TIP3    H220292   6.541   2.731   3.746
 6783TIP3   OH220293   6.620   2.780   4.164
 6783TIP3    H120294   6.653   2.757   4.253
 6783TIP3    H220295   6.575   2.699   4.137
 6784TIP3   OH220296   5.915   2.673   4.527
 6784TIP3    H120297   5.945   2.604   4.589
 6784TIP3    H220298   5.991   2.732   4.526
 6785TIP3   OH220299   6.864   3.084   3.846
 6785TIP3    H120300   6.843   3.018   3.914
 6785TIP3    H220301   6.891   3.160   3.899
 6786TIP3   OH220302   5.889   3.086   4.248
 6786TIP3    H120303   5.880   2.988   4.250
 6786TIP3    H220304   5.986   3.095   4.243
 6787TIP3   OH220305   5.594   2.284   4.032
 6787TIP3    H120306   5.548   2.368   4.053
 6787TIP3    H220307   5.522   2.236   3.988
 6788TIP3   OH220308   5.651   2.575   4.212
 6788TIP3    H120309   5.702   2.498   4.245
 6788TIP3    H220310   5.713   2.615   4.150
 6789TIP3   OH220311   6.512   3.546   3.861
 6789TIP3    H120312   6.555   3.472   3.813
 6789TIP3    H220313   6.496   3.507   3.948
 6790TIP3   OH220314   6.414   3.007   4.211
 6790TIP3    H120315   6.455   2.932   4.165
 6790TIP3    H220316   6.495   3.054   4.237
 6791TIP3   OH220317   7.430   2.326   4.209
 6791TIP3    H120318   7.459   2.410   4.250
 6791TIP3    H220319   7.452   2.343   4.115
 6792TIP3   OH220320   6.828   2.506   4.240
 6792TIP3    H120321   6.870   2.420   4.260
 6792TIP3    H220322   6.795   2.489   4.150
 6793TIP3   OH220323   6.169   2.167   4.206
 6793TIP3    H120324   6.148   2.240   4.144
 6793TIP3    H220325   6.119   2.094   4.163
 6794TIP3   OH220326   6.862   2.259   3.827
 6794TIP3    H120327   6.933   2.244   3.894
 6794TIP3    H220328   6.915   2.294   3.753
 6795TIP3   OH220329   5.799   2.368   4.315
 6795TIP3    H120330   5.882   2.351   4.363
 6795TIP3    H220331   5.814   2.313   4.235
 6796TIP3   OH220332   6.239   2.566   4.109
 6796TIP3    H120333   6.333   2.541   4.121
 6796TIP3    H220334   6.201   2.482   4.076
 6797TIP3   OH220335   7.503   2.536   4.379
 6797TIP3    H120336   7.418   2.581   4.359
 6797TIP3    H220337   7.521   2.569   4.468
 6798TIP3   OH220338   6.161   2.150   4.642
 6798TIP3    H120339   6.103   2.188   4.574
 6798TIP3    H220340   6.108   2.169   4.723
 6799TIP3   OH220341   6.508   3.003   3.646
 6799TIP3    H120342   6.464   2.988   3.561
 6799TIP3    H220343   6.463   3.085   3.676
 6800TIP3   OH220344   6.268   2.927   4.433
 6800TIP3    H120345   6.208   2.996   4.470
 6800TIP3    H220346   6.311   2.975   4.359
 6801TIP3   OH220347   7.067   2.264   4.006
 6801TIP3    H120348   7.048   2.222   4.091
 6801TIP3    H220349   7.118   2.343   4.033
 6802TIP3   OH220350   6.034   2.265   4.425
 6802TIP3    H120351   6.095   2.339   4.449
 6802TIP3    H220352   6.084   2.226   4.350
 6803TIP3   OH220353   6.099   3.123   4.533
 6803TIP3    H120354   6.074   3.211   4.497
 6803TIP3    H220355   6.019   3.106   4.588
 6804TIP3   OH220356   5.488   2.811   3.769
 6804TIP3    H120357   5.447   2.840   3.686
 6804TIP3    H220358   5.519   2.897   3.806
 6805TIP3   OH220359   6.930   3.328   4.008
 6805TIP3    H120360   6.841   3.319   4.049
 6805TIP3    H220361   6.921   3.415   3.964
 6806TIP3   OH220362   7.223   2.224   4.374
 6806TIP3    H120363   7.136   2.252   4.342
 6806TIP3    H220364   7.283   2.258   4.304
 6807TIP3   OH220365   6.515   1.867   4.358
 6807TIP3    H120366   6.498   1.772   4.375
 6807TIP3    H220367   6.438   1.907   4.405
 6808TIP3   OH220368   6.631   3.370   3.682
 6808TIP3    H120369   6.681   3.288   3.663
 6808TIP3    H220370   6.692   3.436   3.643
 6809TIP3   OH220371   6.776   3.155   3.594
 6809TIP3    H120372   6.727   3.077   3.563
 6809TIP3    H220373   6.814   3.122   3.678
 6810TIP3   OH220374   7.156   3.237   4.354
 6810TIP3    H120375   7.142   3.160   4.295
 6810TIP3    H220376   7.135   3.312   4.294
 6811TIP3   OH220377   6.447   2.631   3.614
 6811TIP3    H120378   6.367   2.685   3.595
 6811TIP3    H220379   6.492   2.631   3.527
 6812TIP3   OH220380   6.405   2.420   3.324
 6812TIP3    H120381   6.471   2.471   3.374
 6812TIP3    H220382   6.464   2.357   3.277
 6813TIP3   OH220383   7.351   2.879   4.202
 6813TIP3    H120384   7.266   2.929   4.205
 6813TIP3    H220385   7.380   2.902   4.111
 6814TIP3   OH220386   6.796   2.715   3.581
 6814TIP3    H120387   6.741   2.740   3.659
 6814TIP3    H220388   6.880   2.692   3.626
 6815TIP3   OH220389   7.029   2.752   4.500
 6815TIP3    H120390   7.026   2.836   4.550
 6815TIP3    H220391   6.942   2.757   4.454
 6816TIP3   OH220392   6.027   2.711   4.001
 6816TIP3    H120393   5.987   2.653   3.932
 6816TIP3    H220394   6.104   2.657   4.030
 6817TIP3   OH220395   6.157   3.123   4.148
 6817TIP3    H120396   6.137   3.090   4.059
 6817TIP3    H220397   6.247   3.087   4.165
 6818TIP3   OH220398   6.165   2.683   4.355
 6818TIP3    H120399   6.197   2.661   4.265
 6818TIP3    H220400   6.207   2.770   4.372
 6819TIP3   OH220401   6.692   3.321   4.132
 6819TIP3    H120402   6.675   3.403   4.183
 6819TIP3    H220403   6.672   3.250   4.197
 6820TIP3   OH220404   6.303   3.238   4.680
 6820TIP3    H120405   6.241   3.300   4.725
 6820TIP3    H220406   6.238   3.186   4.628
 6821TIP3   OH220407   6.634   2.573   3.409
 6821TIP3    H120408   6.693   2.634   3.459
 6821TIP3    H220409   6.661   2.594   3.316
 6822TIP3   OH220410   6.058   2.792   4.785
 6822TIP3    H120411   6.063   2.882   4.824
 6822TIP3    H220412   5.962   2.774   4.797
 6823TIP3   OH220413   6.383   3.248   3.684
 6823TIP3    H120414   6.462   3.303   3.694
 6823TIP3    H220415   6.319   3.309   3.645
 6824TIP3   OH220416   6.097   3.404   4.767
 6824TIP3    H120417   6.061   3.410   4.676
 6824TIP3    H220418   6.016   3.382   4.819
 6825TIP3   OH220419   7.150   1.812   3.459
 6825TIP3    H120420   7.068   1.833   3.509
 6825TIP3    H220421   7.164   1.896   3.410
 6826TIP3   OH220422   5.896   2.555   3.800
 6826TIP3    H120423   5.826   2.601   3.748
 6826TIP3    H220424   5.854   2.470   3.817
 6827TIP3   OH220425   6.950   3.179   3.006
 6827TIP3    H120426   6.958   3.276   2.992
 6827TIP3    H220427   7.043   3.151   2.995
 6828TIP3   OH220428   5.673   2.939   4.714
 6828TIP3    H120429   5.606   2.921   4.645
 6828TIP3    H220430   5.711   2.851   4.732
 6829TIP3   OH220431   5.528   3.132   4.348
 6829TIP3    H120432   5.625   3.134   4.340
 6829TIP3    H220433   5.511   3.213   4.398
 6830TIP3   OH220434   7.393   3.587   4.404
 6830TIP3    H120435   7.391   3.490   4.417
 6830TIP3    H220436   7.309   3.612   4.448
 6831TIP3   OH220437   6.500   3.366   4.538
 6831TIP3    H120438   6.496   3.459   4.568
 6831TIP3    H220439   6.427   3.327   4.591
 6832TIP3   OH220440   6.264   3.500   3.486
 6832TIP3    H120441   6.215   3.481   3.404
 6832TIP3    H220442   6.225   3.585   3.515
 6833TIP3   OH220443   5.700   3.344   3.873
 6833TIP3    H120444   5.747   3.338   3.959
 6833TIP3    H220445   5.640   3.268   3.880
 6834TIP3   OH220446   6.461   3.401   3.125
 6834TIP3    H120447   6.520   3.330   3.090
 6834TIP3    H220448   6.495   3.411   3.216
 6835TIP3   OH220449   6.514   3.448   3.394
 6835TIP3    H120450   6.425   3.460   3.435
 6835TIP3    H220451   6.563   3.411   3.469
 6836TIP3   OH220452   7.283   2.714   4.676
 6836TIP3    H120453   7.199   2.725   4.630
 6836TIP3    H220454   7.298   2.618   4.667
 6837TIP3   OH220455   5.880   3.120   4.695
 6837TIP3    H120456   5.927   3.107   4.780
 6837TIP3    H220457   5.804   3.059   4.705
 6838TIP3   OH220458   6.278   1.945   4.489
 6838TIP3    H120459   6.190   1.915   4.459
 6838TIP3    H220460   6.252   2.026   4.536
 6839TIP3   OH220461   6.814   2.059   4.681
 6839TIP3    H120462   6.882   2.032   4.745
 6839TIP3    H220463   6.730   2.040   4.729
 6840TIP3   OH220464   7.050   2.490   4.599
 6840TIP3    H120465   6.998   2.487   4.683
 6840TIP3    H220466   7.026   2.578   4.563
 6841TIP3   OH220467   6.712   2.613   3.153
 6841TIP3    H120468   6.676   2.593   3.065
 6841TIP3    H220469   6.793   2.661   3.130
 6842TIP3   OH220470   6.423   1.992   3.458
 6842TIP3    H120471   6.388   1.989   3.549
 6842TIP3    H220472   6.383   1.910   3.422
 6843TIP3   OH220473   6.211   2.461   4.504
 6843TIP3    H120474   6.160   2.482   4.585
 6843TIP3    H220475   6.195   2.543   4.451
 6844TIP3   OH220476   6.095   2.347   4.018
 6844TIP3    H120477   6.002   2.322   4.037
 6844TIP3    H220478   6.105   2.306   3.929
 6845TIP3   OH220479   6.584   2.432   3.748
 6845TIP3    H120480   6.534   2.504   3.704
 6845TIP3    H220481   6.639   2.399   3.674
 6846TIP3   OH220482   6.759   2.707   4.829
 6846TIP3    H120483   6.737   2.636   4.893
 6846TIP3    H220484   6.852   2.723   4.853
 6847TIP3   OH220485   6.740   2.459   3.984
 6847TIP3    H120486   6.677   2.488   3.914
 6847TIP3    H220487   6.775   2.379   3.939
 6848TIP3   OH220488   6.031   2.489   4.712
 6848TIP3    H120489   6.054   2.556   4.778
 6848TIP3    H220490   6.019   2.409   4.766
 6849TIP3   OH220491   6.079   1.968   3.422
 6849TIP3    H120492   6.069   1.967   3.520
 6849TIP3    H220493   6.002   2.022   3.396
 6850TIP3   OH220494   5.623   2.007   4.295
 6850TIP3    H120495   5.696   2.043   4.350
 6850TIP3    H220496   5.667   1.984   4.212
 6851TIP3   OH220497   5.587   1.991   3.812
 6851TIP3    H120498   5.633   2.029   3.733
 6851TIP3    H220499   5.527   2.066   3.832
 6852TIP3   OH220500   6.752   2.705   4.405
 6852TIP3    H120501   6.785   2.633   4.346
 6852TIP3    H220502   6.721   2.651   4.481
 6853TIP3   OH220503   6.426   2.165   4.078
 6853TIP3    H120504   6.344   2.167   4.131
 6853TIP3    H220505   6.495   2.165   4.146
 6854TIP3   OH220506   5.856   2.227   4.086
 6854TIP3    H120507   5.761   2.235   4.057
 6854TIP3    H220508   5.878   2.135   4.062
 6855TIP3   OH220509   6.121   2.219   3.778
 6855TIP3    H120510   6.214   2.236   3.755
 6855TIP3    H220511   6.073   2.242   3.694
 6856TIP3   OH220512   6.914   2.244   4.280
 6856TIP3    H120513   6.884   2.258   4.373
 6856TIP3    H220514   6.844   2.185   4.247
 6857TIP3   OH220515   5.972   2.253   3.553
 6857TIP3    H120516   5.900   2.210   3.504
 6857TIP3    H220517   6.023   2.293   3.479
 6858TIP3   OH220518   7.086   3.932   4.500
 6858TIP3    H120519   7.078   3.957   4.406
 6858TIP3    H220520   7.161   3.987   4.528
 6859TIP3   OH220521   6.042   3.041   4.921
 6859TIP3    H120522   6.121   3.074   4.969
 6859TIP3    H220523   5.976   3.044   4.993
 6860TIP3   OH220524   6.503   2.498   4.177
 6860TIP3    H120525   6.578   2.460   4.129
 6860TIP3    H220526   6.509   2.455   4.264
 6861TIP3   OH220527   6.023   1.985   4.059
 6861TIP3    H120528   5.987   1.907   4.108
 6861TIP3    H220529   6.068   1.942   3.985
 6862TIP3   OH220530   6.480   2.398   4.466
 6862TIP3    H120531   6.390   2.433   4.480
 6862TIP3    H220532   6.536   2.460   4.516
 6863TIP3   OH220533   6.219   2.783   3.562
 6863TIP3    H120534   6.145   2.719   3.549
 6863TIP3    H220535   6.197   2.818   3.652
 6864TIP3   OH220536   7.116   3.020   4.188
 6864TIP3    H120537   7.138   3.072   4.108
 6864TIP3    H220538   7.031   2.978   4.162
 6865TIP3   OH220539   6.674   2.095   3.428
 6865TIP3    H120540   6.578   2.076   3.436
 6865TIP3    H220541   6.681   2.189   3.453
 6866TIP3   OH220542   6.616   3.104   4.559
 6866TIP3    H120543   6.644   3.089   4.650
 6866TIP3    H220544   6.577   3.193   4.563
 6867TIP3   OH220545   6.742   2.345   3.530
 6867TIP3    H120546   6.838   2.353   3.545
 6867TIP3    H220547   6.722   2.426   3.479
 6868TIP3   OH220548   5.910   2.806   4.236
 6868TIP3    H120549   5.949   2.778   4.150
 6868TIP3    H220550   5.955   2.748   4.299
 6869TIP3   OH220551   6.362   2.934   3.384
 6869TIP3    H120552   6.313   3.020   3.387
 6869TIP3    H220553   6.307   2.880   3.445
 6870TIP3   OH220554   5.795   2.723   4.849
 6870TIP3    H120555   5.810   2.712   4.945
 6870TIP3    H220556   5.722   2.661   4.833
 6871TIP3   OH220557   6.518   2.844   4.870
 6871TIP3    H120558   6.456   2.784   4.825
 6871TIP3    H220559   6.605   2.808   4.840
 6872TIP3   OH220560   6.776   3.361   4.456
 6872TIP3    H120561   6.680   3.361   4.469
 6872TIP3    H220562   6.804   3.414   4.533
 6873TIP3   OH220563   7.186   2.438   3.362
 6873TIP3    H120564   7.124   2.394   3.299
 6873TIP3    H220565   7.181   2.528   3.324
 6874TIP3   OH220566   7.406   3.297   4.442
 6874TIP3    H120567   7.308   3.290   4.434
 6874TIP3    H220568   7.432   3.265   4.352
 6875TIP3   OH220569   6.891   3.255   3.274
 6875TIP3    H120570   6.858   3.188   3.335
 6875TIP3    H220571   6.900   3.206   3.190
 6876TIP3   OH220572   6.883   2.884   4.104
 6876TIP3    H120573   6.789   2.860   4.119
 6876TIP3    H220574   6.915   2.803   4.060
 6877TIP3   OH220575   6.012   3.112   3.860
 6877TIP3    H120576   6.008   3.194   3.806
 6877TIP3    H220577   5.919   3.098   3.878
 6878TIP3   OH220578   5.578   2.415   3.569
 6878TIP3    H120579   5.621   2.501   3.589
 6878TIP3    H220580   5.500   2.419   3.629
 6879TIP3   OH220581   6.144   2.875   3.804
 6879TIP3    H120582   6.109   2.965   3.821
 6879TIP3    H220583   6.108   2.826   3.880
 6880TIP3   OH220584   6.282   3.455   4.329
 6880TIP3    H120585   6.322   3.529   4.280
 6880TIP3    H220586   6.359   3.420   4.377
 6881TIP3   OH220587   5.930   3.349   3.713
 6881TIP3    H120588   5.845   3.359   3.760
 6881TIP3    H220589   5.964   3.441   3.717
 6882TIP3   OH220590   6.665   3.088   4.291
 6882TIP3    H120591   6.654   3.088   4.389
 6882TIP3    H220592   6.746   3.037   4.281
 6883TIP3   OH220593   6.645   2.984   3.172
 6883TIP3    H120594   6.698   2.957   3.252
 6883TIP3    H220595   6.556   2.957   3.200
 6884TIP3   OH220596   6.917   3.619   4.338
 6884TIP3    H120597   6.835   3.565   4.333
 6884TIP3    H220598   6.900   3.684   4.267
 6885TIP3   OH220599   6.982   3.455   2.991
 6885TIP3    H120600   7.017   3.529   2.939
 6885TIP3    H220601   6.902   3.499   3.027
 6886TIP3   OH220602   6.000   2.232   4.856
 6886TIP3    H120603   5.903   2.236   4.869
 6886TIP3    H220604   6.028   2.177   4.931
 6887TIP3   OH220605   6.806   2.911   3.384
 6887TIP3    H120606   6.795   2.849   3.459
 6887TIP3    H220607   6.903   2.911   3.375
 6888TIP3   OH220608   5.720   3.316   4.487
 6888TIP3    H120609   5.776   3.249   4.531
 6888TIP3    H220610   5.741   3.396   4.538
 6889TIP3   OH220611   6.010   2.961   3.172
 6889TIP3    H120612   6.021   2.868   3.148
 6889TIP3    H220613   5.989   2.954   3.268
 6890TIP3   OH220614   5.953   2.968   3.443
 6890TIP3    H120615   6.024   2.943   3.504
 6890TIP3    H220616   5.954   3.066   3.451
 6891TIP3   OH220617   5.686   2.660   3.650
 6891TIP3    H120618   5.619   2.706   3.706
 6891TIP3    H220619   5.698   2.728   3.581
 6892TIP3   OH220620   6.844   2.294   4.540
 6892TIP3    H120621   6.922   2.335   4.581
 6892TIP3    H220622   6.830   2.215   4.595
 6893TIP3   OH220623   6.722   2.044   3.710
 6893TIP3    H120624   6.708   2.067   3.616
 6893TIP3    H220625   6.761   2.127   3.745
 6894TIP3   OH220626   6.221   3.165   3.392
 6894TIP3    H120627   6.133   3.187   3.429
 6894TIP3    H220628   6.235   3.242   3.336
 6895TIP3   OH220629   6.405   2.229   3.808
 6895TIP3    H120630   6.469   2.302   3.792
 6895TIP3    H220631   6.412   2.221   3.906
 6896TIP3   OH220632   6.678   2.545   4.613
 6896TIP3    H120633   6.701   2.599   4.691
 6896TIP3    H220634   6.731   2.464   4.628
 6897TIP3   OH220635   6.549   1.949   3.908
 6897TIP3    H120636   6.539   2.027   3.965
 6897TIP3    H220637   6.612   1.983   3.841
 6898TIP3   OH220638   5.966   3.239   3.463
 6898TIP3    H120639   5.936   3.308   3.401
 6898TIP3    H220640   5.949   3.282   3.550
 6899TIP3   OH220641   6.064   1.955   3.699
 6899TIP3    H120642   6.061   2.045   3.736
 6899TIP3    H220643   6.160   1.938   3.706
 6900TIP3   OH220644   7.316   2.446   4.598
 6900TIP3    H120645   7.218   2.445   4.605
 6900TIP3    H220646   7.327   2.404   4.511
 6901TIP3   OH220647   6.968   2.639   3.983
 6901TIP3    H120648   6.891   2.581   3.996
 6901TIP3    H220649   7.039   2.592   4.032
 6902TIP3   OH220650   5.681   2.864   3.454
 6902TIP3    H120651   5.747   2.935   3.463
 6902TIP3    H220652   5.727   2.809   3.386
 6903TIP3   OH220653   5.623   2.144   3.587
 6903TIP3    H120654   5.627   2.242   3.586
 6903TIP3    H220655   5.539   2.129   3.541
 6904TIP3   OH220656   6.938   3.598   3.932
 6904TIP3    H120657   6.895   3.645   3.857
 6904TIP3    H220658   7.032   3.616   3.910
 6905TIP3   OH220659   6.014   1.865   4.458
 6905TIP3    H120660   5.983   1.831   4.371
 6905TIP3    H220661   6.002   1.787   4.515
 6906TIP3   OH220662   5.544   3.075   3.836
 6906TIP3    H120663   5.486   3.110   3.905
 6906TIP3    H220664   5.511   3.122   3.756
 6907TIP3   OH220665   5.712   3.631   4.912
 6907TIP3    H120666   5.798   3.633   4.960
 6907TIP3    H220667   5.692   3.536   4.912
 6908TIP3   OH220668   6.187   3.584   4.961
 6908TIP3    H120669   6.283   3.572   4.962
 6908TIP3    H220670   6.161   3.524   4.888
 6909TIP3   OH220671   6.170   3.165   3.080
 6909TIP3    H120672   6.115   3.094   3.120
 6909TIP3    H220673   6.246   3.113   3.050
 6910TIP3   OH220674   6.832   3.496   4.689
 6910TIP3    H120675   6.823   3.427   4.759
 6910TIP3    H220676   6.906   3.550   4.722
 6911TIP3   OH220677   6.607   3.203   2.997
 6911TIP3    H120678   6.648   3.138   3.057
 6911TIP3    H220679   6.664   3.200   2.919
 6912TIP3   OH220680   5.839   3.033   5.112
 6912TIP3    H120681   5.853   2.937   5.118
 6912TIP3    H220682   5.752   3.037   5.067
 6913TIP3   OH220683   5.818   2.679   3.308
 6913TIP3    H120684   5.876   2.652   3.382
 6913TIP3    H220685   5.885   2.685   3.236
 6914TIP3   OH220686   6.447   3.121   4.886
 6914TIP3    H120687   6.404   3.142   4.801
 6914TIP3    H220688   6.476   3.028   4.874
 6915TIP3   OH220689   6.335   2.882   3.115
 6915TIP3    H120690   6.334   2.894   3.212
 6915TIP3    H220691   6.332   2.784   3.109
 6916TIP3   OH220692   6.939   3.130   4.494
 6916TIP3    H120693   7.014   3.174   4.450
 6916TIP3    H220694   6.869   3.196   4.480
 6917TIP3   OH220695   5.959   2.767   5.098
 6917TIP3    H120696   6.039   2.721   5.070
 6917TIP3    H220697   5.987   2.802   5.185
 6918TIP3   OH220698   6.022   2.589   3.526
 6918TIP3    H120699   5.995   2.550   3.611
 6918TIP3    H220700   6.060   2.512   3.479
 6919TIP3   OH220701   6.296   2.652   4.757
 6919TIP3    H120702   6.217   2.710   4.758
 6919TIP3    H220703   6.345   2.686   4.680
 6920TIP3   OH220704   6.127   2.382   3.367
 6920TIP3    H120705   6.101   2.391   3.273
 6920TIP3    H220706   6.225   2.386   3.360
 6921TIP3   OH220707   6.811   3.053   4.890
 6921TIP3    H120708   6.889   3.023   4.842
 6921TIP3    H220709   6.805   2.989   4.963
 6922TIP3   OH220710   6.947   2.709   3.035
 6922TIP3    H120711   6.925   2.666   2.950
 6922TIP3    H220712   6.913   2.800   3.015
 6923TIP3   OH220713   6.419   2.441   4.879
 6923TIP3    H120714   6.418   2.363   4.821
 6923TIP3    H220715   6.375   2.509   4.824
 6924TIP3   OH220716   6.421   2.226   4.689
 6924TIP3    H120717   6.448   2.269   4.606
 6924TIP3    H220718   6.327   2.205   4.671
 6925TIP3   OH220719   6.444   2.761   4.563
 6925TIP3    H120720   6.529   2.778   4.521
 6925TIP3    H220721   6.386   2.826   4.517
 6926TIP3   OH220722   7.026   2.727   4.941
 6926TIP3    H120723   7.076   2.645   4.954
 6926TIP3    H220724   7.093   2.787   4.906
 6927TIP3   OH220725   7.069   2.981   4.678
 6927TIP3    H120726   7.010   3.036   4.621
 6927TIP3    H220727   7.156   3.003   4.639
 6928TIP3   OH220728   6.298   2.546   5.115
 6928TIP3    H120729   6.228   2.479   5.130
 6928TIP3    H220730   6.329   2.522   5.026
 6929TIP3   OH220731   6.551   1.989   4.760
 6929TIP3    H120732   6.502   2.070   4.736
 6929TIP3    H220733   6.483   1.920   4.748
 6930TIP3   OH220734   6.679   2.490   4.974
 6930TIP3    H120735   6.663   2.477   5.069
 6930TIP3    H220736   6.589   2.468   4.940
 6931TIP3   OH220737   6.915   2.440   4.828
 6931TIP3    H120738   6.841   2.444   4.891
 6931TIP3    H220739   6.990   2.412   4.885
 6932TIP3   OH220740   7.147   2.385   4.977
 6932TIP3    H120741   7.159   2.289   4.994
 6932TIP3    H220742   7.141   2.422   5.068
 6933TIP3   OH220743   6.133   2.327   5.169
 6933TIP3    H120744   6.139   2.236   5.136
 6933TIP3    H220745   6.170   2.317   5.259
 6934TIP3   OH220746   6.644   1.998   5.018
 6934TIP3    H120747   6.711   1.927   5.011
 6934TIP3    H220748   6.604   1.995   4.929
 6935TIP3   OH220749   6.712   2.213   5.176
 6935TIP3    H120750   6.690   2.143   5.111
 6935TIP3    H220751   6.634   2.272   5.169
 6936TIP3   OH220752   5.934   3.437   3.272
 6936TIP3    H120753   6.030   3.434   3.255
 6936TIP3    H220754   5.905   3.494   3.198
 6937TIP3   OH220755   5.412   2.825   3.488
 6937TIP3    H120756   5.507   2.846   3.475
 6937TIP3    H220757   5.407   2.736   3.447
 6938TIP3   OH220758   5.334   3.433   3.903
 6938TIP3    H120759   5.265   3.375   3.865
 6938TIP3    H220760   5.375   3.373   3.969
 6939TIP3   OH220761   5.468   3.279   4.089
 6939TIP3    H120762   5.450   3.214   4.158
 6939TIP3    H220763   5.518   3.345   4.140
 6940TIP3   OH220764   7.195   3.681   3.893
 6940TIP3    H120765   7.218   3.717   3.981
 6940TIP3    H220766   7.254   3.732   3.834
 6941TIP3   OH220767   7.219   3.706   4.174
 6941TIP3    H120768   7.173   3.620   4.169
 6941TIP3    H220769   7.293   3.681   4.232
 6942TIP3   OH220770   7.268   3.385   4.747
 6942TIP3    H120771   7.196   3.394   4.813
 6942TIP3    H220772   7.309   3.473   4.751
 6943TIP3   OH220773   7.085   2.895   3.365
 6943TIP3    H120774   7.150   2.962   3.336
 6943TIP3    H220775   7.130   2.859   3.445
 6944TIP3   OH220776   7.213   2.763   3.571
 6944TIP3    H120777   7.144   2.722   3.628
 6944TIP3    H220778   7.274   2.802   3.636
 6945TIP3   OH220779   7.269   3.160   4.004
 6945TIP3    H120780   7.320   3.092   3.955
 6945TIP3    H220781   7.263   3.233   3.938
 6946TIP3   OH220782   7.094   3.457   4.196
 6946TIP3    H120783   7.022   3.500   4.246
 6946TIP3    H220784   7.045   3.412   4.124
 6947TIP3   OH220785   7.149   2.672   3.214
 6947TIP3    H120786   7.077   2.674   3.147
 6947TIP3    H220787   7.121   2.748   3.270
 6948TIP3   OH220788   7.022   2.344   3.166
 6948TIP3    H120789   6.972   2.381   3.093
 6948TIP3    H220790   6.998   2.249   3.159
 6949TIP3   OH220791   7.024   2.623   3.714
 6949TIP3    H120792   7.030   2.527   3.708
 6949TIP3    H220793   7.009   2.636   3.811
 6950TIP3   OH220794   5.649   2.690   4.465
 6950TIP3    H120795   5.646   2.660   4.372
 6950TIP3    H220796   5.747   2.694   4.479
 6951TIP3   OH220797   7.315   3.048   4.573
 6951TIP3    H120798   7.386   2.981   4.561
 6951TIP3    H220799   7.338   3.115   4.508
 6952TIP3   OH220800   7.498   2.848   4.579
 6952TIP3    H120801   7.423   2.800   4.621
 6952TIP3    H220802   7.570   2.784   4.598
 6953TIP3   OH220803   6.962   2.078   3.151
 6953TIP3    H120804   7.032   2.046   3.211
 6953TIP3    H220805   6.887   2.020   3.172
 6954TIP3   OH220806   7.021   2.339   3.608
 6954TIP3    H120807   7.062   2.250   3.623
 6954TIP3    H220808   7.079   2.372   3.537
 6955TIP3   OH220809   7.180   2.507   4.106
 6955TIP3    H120810   7.266   2.533   4.064
 6955TIP3    H220811   7.194   2.546   4.194
 6956TIP3   OH220812   7.252   2.656   4.335
 6956TIP3    H120813   7.175   2.690   4.384
 6956TIP3    H220814   7.285   2.738   4.291
 6957TIP3   OH220815   5.866   2.377   5.132
 6957TIP3    H120816   5.964   2.375   5.139
 6957TIP3    H220817   5.844   2.292   5.174
 6958TIP3   OH220818   7.705   2.250   4.890
 6958TIP3    H120819   7.763   2.185   4.846
 6958TIP3    H220820   7.672   2.302   4.814
 6959TIP3   OH220821   7.131   2.089   3.646
 6959TIP3    H120822   7.178   2.073   3.731
 6959TIP3    H220823   7.069   2.013   3.645
 6960TIP3   OH220824   5.829   2.074   4.467
 6960TIP3    H120825   5.892   1.999   4.475
 6960TIP3    H220826   5.891   2.149   4.459
 6961TIP3   OH220827   5.630   2.345   4.540
 6961TIP3    H120828   5.680   2.345   4.456
 6961TIP3    H220829   5.652   2.432   4.575
 6962TIP3   OH220830   7.571   2.384   4.696
 6962TIP3    H120831   7.486   2.429   4.718
 6962TIP3    H220832   7.537   2.313   4.639
 6963TIP3   OH220833   7.207   2.021   3.283
 6963TIP3    H120834   7.244   1.952   3.225
 6963TIP3    H220835   7.274   2.092   3.278
 6964TIP3   OH220836   5.616   1.846   4.038
 6964TIP3    H120837   5.524   1.844   4.069
 6964TIP3    H220838   5.610   1.907   3.962
 6965TIP3   OH220839   6.776   3.554   3.548
 6965TIP3    H120840   6.827   3.545   3.465
 6965TIP3    H220841   6.826   3.623   3.595
 6966TIP3   OH220842   5.835   1.925   4.853
 6966TIP3    H120843   5.785   1.927   4.936
 6966TIP3    H220844   5.771   1.968   4.793
 6967TIP3   OH220845   5.877   3.354   4.930
 6967TIP3    H120846   5.782   3.335   4.915
 6967TIP3    H220847   5.884   3.346   5.026
 6968TIP3   OH220848   6.056   3.393   4.479
 6968TIP3    H120849   6.006   3.468   4.441
 6968TIP3    H220850   6.141   3.409   4.433
 6969TIP3   OH220851   6.495   3.632   4.615
 6969TIP3    H120852   6.536   3.635   4.704
 6969TIP3    H220853   6.559   3.686   4.564
 6970TIP3   OH220854   6.674   3.788   4.479
 6970TIP3    H120855   6.745   3.739   4.436
 6970TIP3    H220856   6.726   3.846   4.540
 6971TIP3   OH220857   7.470   2.148   4.577
 6971TIP3    H120858   7.381   2.140   4.541
 6971TIP3    H220859   7.504   2.056   4.567
 6972TIP3   OH220860   5.730   3.644   4.510
 6972TIP3    H120861   5.640   3.673   4.484
 6972TIP3    H220862   5.745   3.701   4.587
 6973TIP3   OH220863   5.964   3.625   4.362
 6973TIP3    H120864   5.878   3.639   4.407
 6973TIP3    H220865   5.946   3.661   4.273
 6974TIP3   OH220866   6.392   3.653   4.159
 6974TIP3    H120867   6.319   3.670   4.097
 6974TIP3    H220868   6.401   3.741   4.202
 6975TIP3   OH220869   6.661   3.592   4.212
 6975TIP3    H120870   6.566   3.610   4.194
 6975TIP3    H220871   6.703   3.668   4.170
 6976TIP3   OH220872   6.869   3.784   4.125
 6976TIP3    H120873   6.854   3.868   4.078
 6976TIP3    H220874   6.893   3.724   4.052
 6977TIP3   OH220875   5.640   3.440   4.245
 6977TIP3    H120876   5.665   3.414   4.336
 6977TIP3    H220877   5.714   3.398   4.195
 6978TIP3   OH220878   5.837   3.313   4.106
 6978TIP3    H120879   5.852   3.231   4.158
 6978TIP3    H220880   5.928   3.351   4.103
 6979TIP3   OH220881   6.103   3.404   4.112
 6979TIP3    H120882   6.134   3.312   4.105
 6979TIP3    H220883   6.148   3.431   4.194
 6980TIP3   OH220884   6.679   2.064   4.199
 6980TIP3    H120885   6.635   1.992   4.248
 6980TIP3    H220886   6.752   2.017   4.154
 6981TIP3   OH220887   7.197   1.944   4.100
 6981TIP3    H120888   7.234   1.996   4.025
 6981TIP3    H220889   7.102   1.964   4.094
 6982TIP3   OH220890   7.294   2.043   3.864
 6982TIP3    H120891   7.369   1.992   3.826
 6982TIP3    H220892   7.327   2.135   3.850
 6983TIP3   OH220893   5.925   1.771   4.210
 6983TIP3    H120894   5.832   1.739   4.214
 6983TIP3    H220895   5.973   1.686   4.206
 6984TIP3   OH220896   5.715   1.643   3.861
 6984TIP3    H120897   5.743   1.701   3.788
 6984TIP3    H220898   5.686   1.709   3.928
 6985TIP3   OH220899   6.372   1.802   4.093
 6985TIP3    H120900   6.427   1.850   4.030
 6985TIP3    H220901   6.397   1.844   4.177
 6986TIP3   OH220902   6.913   1.952   4.075
 6986TIP3    H120903   6.915   1.911   3.987
 6986TIP3    H220904   6.902   1.873   4.133
 6987TIP3   OH220905   6.946   1.878   3.639
 6987TIP3    H120906   6.860   1.921   3.656
 6987TIP3    H220907   6.931   1.791   3.683
 6988TIP3   OH220908   5.430   3.217   3.637
 6988TIP3    H120909   5.343   3.187   3.605
 6988TIP3    H220910   5.422   3.312   3.616
 6989TIP3   OH220911   5.832   1.800   3.623
 6989TIP3    H120912   5.881   1.738   3.564
 6989TIP3    H220913   5.905   1.855   3.658
 6990TIP3   OH220914   6.341   1.979   3.721
 6990TIP3    H120915   6.401   1.933   3.782
 6990TIP3    H220916   6.361   2.072   3.746
 6991TIP3   OH220917   6.203   3.397   3.223
 6991TIP3    H120918   6.290   3.422   3.186
 6991TIP3    H220919   6.179   3.324   3.162
 6992TIP3   OH220920   6.923   3.523   3.315
 6992TIP3    H120921   6.915   3.425   3.304
 6992TIP3    H220922   6.875   3.554   3.236
 6993TIP3   OH220923   6.133   2.051   5.101
 6993TIP3    H120924   6.096   1.982   5.159
 6993TIP3    H220925   6.227   2.051   5.130
 6994TIP3   OH220926   6.382   2.049   5.221
 6994TIP3    H120927   6.468   2.027   5.182
 6994TIP3    H220928   6.372   1.978   5.287
 6995TIP3   OH220929   5.502   3.235   3.275
 6995TIP3    H120930   5.504   3.261   3.368
 6995TIP3    H220931   5.591   3.194   3.263
 6996TIP3   OH220932   7.210   2.114   5.008
 6996TIP3    H120933   7.227   2.083   5.100
 6996TIP3    H220934   7.299   2.108   4.969
 6997TIP3   OH220935   7.145   3.663   4.501
 6997TIP3    H120936   7.066   3.632   4.451
 6997TIP3    H220937   7.124   3.758   4.507
 6998TIP3   OH220938   7.711   2.928   4.011
 6998TIP3    H120939   7.735   2.858   4.074
 6998TIP3    H220940   7.783   2.992   4.027
 6999TIP3   OH220941   7.681   3.345   3.738
 6999TIP3    H120942   7.674   3.247   3.739
 6999TIP3    H220943   7.778   3.355   3.731
 7000TIP3   OH220944   7.390   2.546   3.517
 7000TIP3    H120945   7.340   2.627   3.539
 7000TIP3    H220946   7.319   2.492   3.478
 7001TIP3   OH220947   7.448   2.833   3.701
 7001TIP3    H120948   7.497   2.755   3.734
 7001TIP3    H220949   7.505   2.865   3.630
 7002TIP3   OH220950   8.314   3.763   3.328
 7002TIP3    H120951   8.410   3.739   3.331
 7002TIP3    H220952   8.297   3.779   3.422
 7003TIP3   OH220953   8.223   3.246   3.699
 7003TIP3    H120954   8.230   3.228   3.605
 7003TIP3    H220955   8.299   3.306   3.715
 7004TIP3   OH220956   7.935   2.423   3.706
 7004TIP3    H120957   7.953   2.487   3.634
 7004TIP3    H220958   7.904   2.346   3.655
 7005TIP3   OH220959   7.596   2.626   3.800
 7005TIP3    H120960   7.676   2.606   3.852
 7005TIP3    H220961   7.611   2.568   3.722
 7006TIP3   OH220962   8.022   2.825   3.589
 7006TIP3    H120963   8.115   2.792   3.599
 7006TIP3    H220964   7.978   2.742   3.563
 7007TIP3   OH220965   7.962   2.414   4.139
 7007TIP3    H120966   7.904   2.447   4.068
 7007TIP3    H220967   7.906   2.433   4.217
 7008TIP3   OH220968   8.067   3.182   3.932
 7008TIP3    H120969   8.003   3.248   3.966
 7008TIP3    H220970   8.111   3.231   3.860
 7009TIP3   OH220971   7.823   2.525   3.926
 7009TIP3    H120972   7.888   2.596   3.945
 7009TIP3    H220973   7.867   2.483   3.848
 7010TIP3   OH220974   7.895   3.378   4.020
 7010TIP3    H120975   7.869   3.466   3.984
 7010TIP3    H220976   7.815   3.360   4.075
 7011TIP3   OH220977   7.286   3.068   3.256
 7011TIP3    H120978   7.243   3.095   3.173
 7011TIP3    H220979   7.315   3.154   3.292
 7012TIP3   OH220980   7.812   2.968   3.485
 7012TIP3    H120981   7.775   2.909   3.416
 7012TIP3    H220982   7.891   2.917   3.515
 7013TIP3   OH220983   7.944   3.384   3.631
 7013TIP3    H120984   7.919   3.352   3.543
 7013TIP3    H220985   8.027   3.339   3.649
 7014TIP3   OH220986   7.966   2.940   3.839
 7014TIP3    H120987   7.991   2.919   3.747
 7014TIP3    H220988   8.002   3.029   3.855
 7015TIP3   OH220989   8.095   3.490   4.175
 7015TIP3    H120990   8.034   3.556   4.217
 7015TIP3    H220991   8.030   3.440   4.121
 7016TIP3   OH220992   7.846   3.061   4.264
 7016TIP3    H120993   7.850   3.147   4.311
 7016TIP3    H220994   7.754   3.034   4.285
 7017TIP3   OH220995   8.191   3.545   3.202
 7017TIP3    H120996   8.214   3.634   3.235
 7017TIP3    H220997   8.127   3.565   3.132
 7018TIP3   OH220998   7.891   3.660   4.252
 7018TIP3    H120999   7.856   3.665   4.161
 7018TIP3    H221000   7.810   3.641   4.305
 7019TIP3   OH221001   7.690   2.805   3.284
 7019TIP3    H121002   7.626   2.856   3.231
 7019TIP3    H221003   7.637   2.729   3.310
 7020TIP3   OH221004   7.471   3.197   4.199
 7020TIP3    H121005   7.402   3.178   4.133
 7020TIP3    H221006   7.506   3.108   4.220
 7021TIP3   OH221007   7.324   3.389   3.831
 7021TIP3    H121008   7.421   3.390   3.826
 7021TIP3    H221009   7.307   3.469   3.884
 7022TIP3   OH221010   8.283   3.606   4.015
 7022TIP3    H121011   8.290   3.699   4.047
 7022TIP3    H221012   8.213   3.572   4.074
 7023TIP3   OH221013   8.060   3.750   2.975
 7023TIP3    H121014   8.015   3.736   2.890
 7023TIP3    H221015   8.026   3.838   3.002
 7024TIP3   OH221016   7.494   3.603   3.359
 7024TIP3    H121017   7.541   3.595   3.446
 7024TIP3    H221018   7.438   3.524   3.362
 7025TIP3   OH221019   8.325   3.716   2.910
 7025TIP3    H121020   8.232   3.732   2.936
 7025TIP3    H221021   8.334   3.621   2.930
 7026TIP3   OH221022   7.677   3.378   4.183
 7026TIP3    H121023   7.724   3.362   4.268
 7026TIP3    H221024   7.601   3.316   4.191
 7027TIP3   OH221025   8.060   2.192   3.998
 7027TIP3    H121026   7.975   2.169   3.957
 7027TIP3    H221027   8.040   2.279   4.036
 7028TIP3   OH221028   8.001   2.723   3.995
 7028TIP3    H121029   7.947   2.742   4.074
 7028TIP3    H221030   7.984   2.803   3.940
 7029TIP3   OH221031   7.884   2.606   3.500
 7029TIP3    H121032   7.799   2.572   3.536
 7029TIP3    H221033   7.871   2.590   3.405
 7030TIP3   OH221034   7.814   2.743   4.200
 7030TIP3    H121035   7.863   2.798   4.263
 7030TIP3    H221036   7.804   2.660   4.250
 7031TIP3   OH221037   7.890   2.211   2.915
 7031TIP3    H121038   7.823   2.186   2.980
 7031TIP3    H221039   7.835   2.265   2.855
 7032TIP3   OH221040   7.418   2.266   3.778
 7032TIP3    H121041   7.491   2.300   3.834
 7032TIP3    H221042   7.463   2.231   3.700
 7033TIP3   OH221043   7.386   2.250   3.298
 7033TIP3    H121044   7.429   2.289   3.220
 7033TIP3    H221045   7.323   2.322   3.320
 7034TIP3   OH221046   7.650   2.485   3.569
 7034TIP3    H121047   7.555   2.494   3.543
 7034TIP3    H221048   7.668   2.390   3.555
 7035TIP3   OH221049   7.780   2.476   3.057
 7035TIP3    H121050   7.703   2.449   3.004
 7035TIP3    H221051   7.832   2.524   2.990
 7036TIP3   OH221052   7.839   3.302   4.408
 7036TIP3    H121053   7.918   3.330   4.458
 7036TIP3    H221054   7.773   3.299   4.481
 7037TIP3   OH221055   7.817   2.234   3.542
 7037TIP3    H121056   7.778   2.168   3.603
 7037TIP3    H221057   7.861   2.176   3.479
 7038TIP3   OH221058   8.269   2.649   3.994
 7038TIP3    H121059   8.175   2.674   3.978
 7038TIP3    H221060   8.313   2.735   4.001
 7039TIP3   OH221061   7.992   3.060   3.051
 7039TIP3    H121062   7.937   2.981   3.046
 7039TIP3    H221063   7.992   3.080   3.147
 7040TIP3   OH221064   8.378   3.333   4.077
 7040TIP3    H121065   8.407   3.326   4.168
 7040TIP3    H221066   8.350   3.426   4.071
 7041TIP3   OH221067   7.710   3.070   3.726
 7041TIP3    H121068   7.742   3.034   3.641
 7041TIP3    H221069   7.742   3.004   3.790
 7042TIP3   OH221070   8.117   3.185   2.841
 7042TIP3    H121071   8.093   3.277   2.867
 7042TIP3    H221072   8.091   3.136   2.922
 7043TIP3   OH221073   7.589   2.982   4.336
 7043TIP3    H121074   7.604   2.967   4.432
 7043TIP3    H221075   7.519   2.918   4.317
 7044TIP3   OH221076   8.315   3.100   4.355
 7044TIP3    H121077   8.261   3.051   4.291
 7044TIP3    H221078   8.402   3.060   4.341
 7045TIP3   OH221079   7.810   3.369   3.351
 7045TIP3    H121080   7.808   3.449   3.295
 7045TIP3    H221081   7.716   3.352   3.361
 7046TIP3   OH221082   7.375   2.672   3.057
 7046TIP3    H121083   7.416   2.758   3.077
 7046TIP3    H221084   7.295   2.676   3.116
 7047TIP3   OH221085   7.955   3.134   3.312
 7047TIP3    H121086   7.914   3.223   3.316
 7047TIP3    H221087   7.901   3.085   3.376
 7048TIP3   OH221088   8.076   3.707   3.817
 7048TIP3    H121089   8.110   3.785   3.769
 7048TIP3    H221090   8.154   3.679   3.867
 7049TIP3   OH221091   7.728   3.606   3.202
 7049TIP3    H121092   7.642   3.617   3.247
 7049TIP3    H221093   7.761   3.698   3.204
 7050TIP3   OH221094   7.793   2.492   4.346
 7050TIP3    H121095   7.696   2.493   4.356
 7050TIP3    H221096   7.820   2.432   4.418
 7051TIP3   OH221097   7.517   3.572   3.973
 7051TIP3    H121098   7.570   3.502   4.015
 7051TIP3    H221099   7.539   3.648   4.029
 7052TIP3   OH221100   7.802   3.216   2.661
 7052TIP3    H121101   7.806   3.122   2.637
 7052TIP3    H221102   7.783   3.211   2.757
 7053TIP3   OH221103   7.754   3.222   2.931
 7053TIP3    H121104   7.836   3.196   2.977
 7053TIP3    H221105   7.755   3.320   2.943
 7054TIP3   OH221106   7.485   2.919   3.138
 7054TIP3    H121107   7.418   2.963   3.194
 7054TIP3    H221108   7.496   2.987   3.068
 7055TIP3   OH221109   8.017   3.433   2.889
 7055TIP3    H121110   7.927   3.455   2.918
 7055TIP3    H221111   8.039   3.512   2.838
 7056TIP3   OH221112   7.756   3.496   2.949
 7056TIP3    H121113   7.724   3.566   2.887
 7056TIP3    H221114   7.742   3.540   3.036
 7057TIP3   OH221115   7.844   2.207   3.192
 7057TIP3    H121116   7.811   2.298   3.198
 7057TIP3    H221117   7.923   2.220   3.138
 7058TIP3   OH221118   7.479   3.120   2.941
 7058TIP3    H121119   7.545   3.191   2.952
 7058TIP3    H221120   7.524   3.068   2.871
 7059TIP3   OH221121   7.424   2.402   3.073
 7059TIP3    H121122   7.421   2.500   3.073
 7059TIP3    H221123   7.342   2.380   3.027
 7060TIP3   OH221124   7.795   2.123   3.945
 7060TIP3    H121125   7.778   2.085   3.857
 7060TIP3    H221126   7.791   2.044   4.003
 7061TIP3   OH221127   7.342   3.334   3.323
 7061TIP3    H121128   7.282   3.367   3.391
 7061TIP3    H221129   7.308   3.381   3.243
 7062TIP3   OH221130   7.509   3.885   4.400
 7062TIP3    H121131   7.595   3.879   4.447
 7062TIP3    H221132   7.485   3.791   4.396
 7063TIP3   OH221133   7.979   3.842   4.443
 7063TIP3    H121134   8.074   3.831   4.454
 7063TIP3    H221135   7.960   3.779   4.370
 7064TIP3   OH221136   7.959   3.421   2.571
 7064TIP3    H121137   7.900   3.349   2.606
 7064TIP3    H221138   8.046   3.385   2.593
 7065TIP3   OH221139   7.636   3.291   4.598
 7065TIP3    H121140   7.650   3.195   4.608
 7065TIP3    H221141   7.548   3.294   4.554
 7066TIP3   OH221142   7.620   2.939   2.790
 7066TIP3    H121143   7.674   2.914   2.867
 7066TIP3    H221144   7.689   2.944   2.721
 7067TIP3   OH221145   8.259   3.379   4.368
 7067TIP3    H121146   8.203   3.398   4.290
 7067TIP3    H221147   8.271   3.282   4.364
 7068TIP3   OH221148   8.111   3.118   2.584
 7068TIP3    H121149   8.128   3.154   2.675
 7068TIP3    H221150   8.033   3.064   2.605
 7069TIP3   OH221151   7.758   3.027   4.582
 7069TIP3    H121152   7.832   2.970   4.560
 7069TIP3    H221153   7.785   3.060   4.671
 7070TIP3   OH221154   7.818   2.838   3.013
 7070TIP3    H121155   7.787   2.801   3.097
 7070TIP3    H221156   7.863   2.762   2.971
 7071TIP3   OH221157   8.053   2.889   4.263
 7071TIP3    H121158   7.984   2.959   4.264
 7071TIP3    H221159   8.114   2.927   4.196
 7072TIP3   OH221160   7.930   2.625   2.858
 7072TIP3    H121161   7.885   2.637   2.772
 7072TIP3    H221162   8.021   2.609   2.828
 7073TIP3   OH221163   8.227   2.703   4.361
 7073TIP3    H121164   8.223   2.616   4.316
 7073TIP3    H221165   8.159   2.755   4.314
 7074TIP3   OH221166   8.228   2.471   4.195
 7074TIP3    H121167   8.234   2.524   4.112
 7074TIP3    H221168   8.139   2.432   4.185
 7075TIP3   OH221169   8.215   3.013   4.090
 7075TIP3    H121170   8.282   3.003   4.021
 7075TIP3    H221171   8.156   3.079   4.047
 7076TIP3   OH221172   8.097   2.805   4.599
 7076TIP3    H121173   8.029   2.737   4.613
 7076TIP3    H221174   8.128   2.784   4.509
 7077TIP3   OH221175   7.931   2.587   4.654
 7077TIP3    H121176   7.934   2.496   4.620
 7077TIP3    H221177   7.965   2.576   4.745
 7078TIP3   OH221178   7.720   3.697   2.761
 7078TIP3    H121179   7.817   3.695   2.750
 7078TIP3    H221180   7.697   3.752   2.683
 7079TIP3   OH221181   7.209   3.081   2.975
 7079TIP3    H121182   7.304   3.102   2.962
 7079TIP3    H221183   7.202   2.993   2.934
 7080TIP3   OH221184   7.127   3.692   3.393
 7080TIP3    H121185   7.060   3.633   3.353
 7080TIP3    H221186   7.170   3.632   3.456
 7081TIP3   OH221187   7.263   3.537   3.577
 7081TIP3    H121188   7.246   3.470   3.645
 7081TIP3    H221189   7.313   3.602   3.629
 7082TIP3   OH221190   7.445   2.950   3.952
 7082TIP3    H121191   7.441   2.917   3.860
 7082TIP3    H221192   7.543   2.951   3.966
 7083TIP3   OH221193   7.663   2.636   4.623
 7083TIP3    H121194   7.761   2.632   4.626
 7083TIP3    H221195   7.640   2.550   4.663
 7084TIP3   OH221196   7.620   2.334   3.953
 7084TIP3    H121197   7.680   2.256   3.959
 7084TIP3    H221198   7.685   2.406   3.952
 7085TIP3   OH221199   7.425   2.603   4.026
 7085TIP3    H121200   7.476   2.600   3.943
 7085TIP3    H221201   7.454   2.687   4.063
 7086TIP3   OH221202   7.412   2.104   3.525
 7086TIP3    H121203   7.320   2.100   3.557
 7086TIP3    H221204   7.405   2.166   3.449
 7087TIP3   OH221205   7.631   2.189   4.344
 7087TIP3    H121206   7.579   2.186   4.425
 7087TIP3    H221207   7.566   2.227   4.281
 7088TIP3   OH221208   7.671   3.619   4.418
 7088TIP3    H121209   7.578   3.593   4.403
 7088TIP3    H221210   7.683   3.595   4.511
 7089TIP3   OH221211   7.852   3.648   3.966
 7089TIP3    H121212   7.802   3.723   3.927
 7089TIP3    H221213   7.937   3.663   3.920
 7090TIP3   OH221214   8.281   3.874   4.103
 7090TIP3    H121215   8.326   3.881   4.190
 7090TIP3    H221216   8.331   3.937   4.048
 7091TIP3   OH221217   8.424   4.046   3.930
 7091TIP3    H121218   8.473   4.041   3.845
 7091TIP3    H221219   8.460   4.127   3.968
 7092TIP3   OH221220   7.525   3.903   3.993
 7092TIP3    H121221   7.435   3.933   3.968
 7092TIP3    H221222   7.537   3.955   4.074
 7093TIP3   OH221223   7.759   3.880   3.849
 7093TIP3    H121224   7.672   3.893   3.892
 7093TIP3    H221225   7.741   3.914   3.759
 7094TIP3   OH221226   8.159   3.917   3.651
 7094TIP3    H121227   8.085   3.930   3.588
 7094TIP3    H221228   8.172   4.008   3.685
 7095TIP3   OH221229   8.411   3.817   3.627
 7095TIP3    H121230   8.320   3.852   3.636
 7095TIP3    H221231   8.464   3.894   3.654
 7096TIP3   OH221232   7.437   3.698   3.733
 7096TIP3    H121233   7.462   3.669   3.823
 7096TIP3    H221234   7.509   3.655   3.682
 7097TIP3   OH221235   7.631   3.571   3.593
 7097TIP3    H121236   7.646   3.488   3.645
 7097TIP3    H221237   7.722   3.608   3.590
 7098TIP3   OH221238   7.897   3.664   3.599
 7098TIP3    H121239   7.925   3.572   3.589
 7098TIP3    H221240   7.945   3.688   3.680
 7099TIP3   OH221241   7.719   2.031   3.692
 7099TIP3    H121242   7.629   1.995   3.699
 7099TIP3    H221243   7.770   1.946   3.687
 7100TIP3   OH221244   7.514   1.904   3.339
 7100TIP3    H121245   7.532   1.968   3.268
 7100TIP3    H221246   7.485   1.962   3.412
 7101TIP3   OH221247   7.225   3.475   3.124
 7101TIP3    H121248   7.139   3.443   3.092
 7101TIP3    H221249   7.218   3.568   3.099
 7102TIP3   OH221250   7.617   2.060   3.109
 7102TIP3    H121251   7.662   1.995   3.050
 7102TIP3    H221252   7.692   2.102   3.156
 7103TIP3   OH221253   7.989   3.656   2.718
 7103TIP3    H121254   8.081   3.666   2.685
 7103TIP3    H221255   7.959   3.586   2.655
 7104TIP3   OH221256   7.921   2.311   4.582
 7104TIP3    H121257   7.885   2.241   4.639
 7104TIP3    H221258   8.015   2.312   4.613
 7105TIP3   OH221259   8.161   2.305   4.715
 7105TIP3    H121260   8.240   2.266   4.672
 7105TIP3    H221261   8.143   2.237   4.783
 7106TIP3   OH221262   7.299   3.491   2.762
 7106TIP3    H121263   7.302   3.518   2.855
 7106TIP3    H221264   7.387   3.450   2.749
 7107TIP3   OH221265   0.866   3.823   4.956
 7107TIP3    H121266   0.835   3.914   4.938
 7107TIP3    H221267   0.790   3.772   4.924
 7108TIP3   OH221268   0.863   3.828   5.337
 7108TIP3    H121269   0.893   3.805   5.427
 7108TIP3    H221270   0.819   3.746   5.309
 7109TIP3   OH221271   0.200   3.703   5.663
 7109TIP3    H121272   0.161   3.649   5.734
 7109TIP3    H221273   0.222   3.784   5.710
 7110TIP3   OH221274   1.108   4.131   5.022
 7110TIP3    H121275   1.097   4.062   5.089
 7110TIP3    H221276   1.142   4.205   5.076
 7111TIP3   OH221277   0.147   4.109   5.355
 7111TIP3    H121278   0.127   4.015   5.376
 7111TIP3    H221279   0.216   4.126   5.421
 7112TIP3   OH221280  -0.082   3.617   5.335
 7112TIP3    H121281  -0.055   3.569   5.415
 7112TIP3    H221282  -0.021   3.692   5.335
 7113TIP3   OH221283   0.759   4.588   5.041
 7113TIP3    H121284   0.800   4.520   4.983
 7113TIP3    H221285   0.760   4.543   5.126
 7114TIP3   OH221286   0.663   4.051   5.390
 7114TIP3    H121287   0.703   3.974   5.346
 7114TIP3    H221288   0.746   4.098   5.414
 7115TIP3   OH221289   1.677   3.367   5.384
 7115TIP3    H121290   1.706   3.450   5.427
 7115TIP3    H221291   1.712   3.380   5.293
 7116TIP3   OH221292   1.070   3.546   5.434
 7116TIP3    H121293   1.112   3.459   5.451
 7116TIP3    H221294   1.045   3.537   5.340
 7117TIP3   OH221295   0.424   3.213   5.380
 7117TIP3    H121296   0.398   3.285   5.319
 7117TIP3    H221297   0.374   3.138   5.341
 7118TIP3   OH221298   1.110   3.308   5.005
 7118TIP3    H121299   1.179   3.294   5.073
 7118TIP3    H221300   1.164   3.339   4.930
 7119TIP3   OH221301   0.052   3.417   5.493
 7119TIP3    H121302   0.132   3.404   5.547
 7119TIP3    H221303   0.077   3.371   5.411
 7120TIP3   OH221304   0.491   3.610   5.265
 7120TIP3    H121305   0.583   3.585   5.289
 7120TIP3    H221306   0.451   3.523   5.244
 7121TIP3   OH221307   1.743   3.570   5.571
 7121TIP3    H121308   1.667   3.626   5.546
 7121TIP3    H221309   1.788   3.625   5.638
 7122TIP3   OH221310   0.411   3.194   5.823
 7122TIP3    H121311   0.354   3.236   5.756
 7122TIP3    H221312   0.358   3.210   5.904
 7123TIP3   OH221313   0.743   4.040   4.831
 7123TIP3    H121314   0.721   4.035   4.737
 7123TIP3    H221315   0.704   4.126   4.856
 7124TIP3   OH221316   0.521   3.973   5.623
 7124TIP3    H121317   0.460   4.038   5.663
 7124TIP3    H221318   0.560   4.023   5.549
 7125TIP3   OH221319   1.307   3.311   5.193
 7125TIP3    H121320   1.356   3.241   5.238
 7125TIP3    H221321   1.364   3.389   5.209
 7126TIP3   OH221322   0.288   3.306   5.601
 7126TIP3    H121323   0.344   3.383   5.627
 7126TIP3    H221324   0.342   3.271   5.526
 7127TIP3   OH221325   0.329   4.154   5.733
 7127TIP3    H121326   0.274   4.213   5.679
 7127TIP3    H221327   0.260   4.112   5.788
 7128TIP3   OH221328   1.173   4.371   5.183
 7128TIP3    H121329   1.084   4.364   5.223
 7128TIP3    H221330   1.168   4.459   5.140
 7129TIP3   OH221331   1.467   3.275   5.549
 7129TIP3    H121332   1.385   3.301   5.506
 7129TIP3    H221333   1.535   3.304   5.485
 7130TIP3   OH221334   0.764   2.908   5.538
 7130TIP3    H121335   0.747   2.813   5.555
 7130TIP3    H221336   0.687   2.949   5.583
 7131TIP3   OH221337   0.872   4.417   4.855
 7131TIP3    H121338   0.922   4.334   4.837
 7131TIP3    H221339   0.937   4.482   4.818
 7132TIP3   OH221340   1.014   4.199   4.773
 7132TIP3    H121341   1.006   4.118   4.721
 7132TIP3    H221342   1.054   4.167   4.856
 7133TIP3   OH221343   1.402   4.279   5.537
 7133TIP3    H121344   1.395   4.204   5.474
 7133TIP3    H221345   1.387   4.356   5.478
 7134TIP3   OH221346   0.694   3.677   4.789
 7134TIP3    H121347   0.618   3.733   4.763
 7134TIP3    H221348   0.745   3.673   4.706
 7135TIP3   OH221349   0.654   3.465   4.500
 7135TIP3    H121350   0.721   3.516   4.549
 7135TIP3    H221351   0.712   3.401   4.454
 7136TIP3   OH221352   1.596   3.915   5.373
 7136TIP3    H121353   1.516   3.972   5.377
 7136TIP3    H221354   1.632   3.942   5.285
 7137TIP3   OH221355   1.043   3.759   4.757
 7137TIP3    H121356   0.991   3.783   4.837
 7137TIP3    H221357   1.129   3.735   4.799
 7138TIP3   OH221358   1.279   3.795   5.678
 7138TIP3    H121359   1.280   3.870   5.740
 7138TIP3    H221360   1.213   3.827   5.613
 7139TIP3   OH221361   0.278   3.752   5.174
 7139TIP3    H121362   0.236   3.693   5.109
 7139TIP3    H221363   0.357   3.700   5.201
 7140TIP3   OH221364   0.433   4.190   5.311
 7140TIP3    H121365   0.389   4.120   5.259
 7140TIP3    H221366   0.518   4.147   5.334
 7141TIP3   OH221367   0.476   3.716   5.527
 7141TIP3    H121368   0.469   3.711   5.430
 7141TIP3    H221369   0.476   3.811   5.546
 7142TIP3   OH221370   0.932   4.368   5.308
 7142TIP3    H121371   0.928   4.447   5.366
 7142TIP3    H221372   0.919   4.294   5.371
 7143TIP3   OH221373   0.546   4.287   5.853
 7143TIP3    H121374   0.490   4.347   5.907
 7143TIP3    H221375   0.477   4.232   5.812
 7144TIP3   OH221376   0.878   3.622   4.586
 7144TIP3    H121377   0.941   3.679   4.635
 7144TIP3    H221378   0.906   3.641   4.493
 7145TIP3   OH221379   0.291   3.839   5.964
 7145TIP3    H121380   0.301   3.922   6.015
 7145TIP3    H221381   0.196   3.840   5.948
 7146TIP3   OH221382   0.624   4.300   4.851
 7146TIP3    H121383   0.711   4.343   4.868
 7146TIP3    H221384   0.571   4.375   4.822
 7147TIP3   OH221385   0.329   4.455   5.940
 7147TIP3    H121386   0.308   4.461   5.845
 7147TIP3    H221387   0.250   4.410   5.976
 7148TIP3   OH221388   1.400   2.856   4.635
 7148TIP3    H121389   1.319   2.881   4.684
 7148TIP3    H221390   1.417   2.938   4.583
 7149TIP3   OH221391   0.151   3.589   4.976
 7149TIP3    H121392   0.080   3.619   4.916
 7149TIP3    H221393   0.116   3.506   5.010
 7150TIP3   OH221394   1.201   4.223   4.187
 7150TIP3    H121395   1.210   4.319   4.168
 7150TIP3    H221396   1.294   4.193   4.172
 7151TIP3   OH221397   0.746   4.412   5.710
 7151TIP3    H121398   0.744   4.504   5.744
 7151TIP3    H221399   0.674   4.371   5.765
 7152TIP3   OH221400   0.504   4.534   4.668
 7152TIP3    H121401   0.469   4.531   4.577
 7152TIP3    H221402   0.480   4.625   4.695
 7153TIP3   OH221403   0.711   4.443   4.302
 7153TIP3    H121404   0.770   4.374   4.265
 7153TIP3    H221405   0.749   4.456   4.391
 7154TIP3   OH221406   0.759   4.494   4.574
 7154TIP3    H121407   0.672   4.500   4.619
 7154TIP3    H221408   0.815   4.459   4.645
 7155TIP3   OH221409   1.529   3.754   5.860
 7155TIP3    H121410   1.457   3.773   5.798
 7155TIP3    H221411   1.542   3.658   5.847
 7156TIP3   OH221412   0.528   2.991   5.664
 7156TIP3    H121413   0.440   2.957   5.635
 7156TIP3    H221414   0.498   3.069   5.715
 7157TIP3   OH221415   1.080   3.171   5.868
 7157TIP3    H121416   1.137   3.106   5.915
 7157TIP3    H221417   0.991   3.140   5.895
 7158TIP3   OH221418   1.247   3.509   5.777
 7158TIP3    H121419   1.268   3.556   5.860
 7158TIP3    H221420   1.253   3.584   5.714
 7159TIP3   OH221421   0.957   3.662   4.330
 7159TIP3    H121422   0.925   3.638   4.241
 7159TIP3    H221423   1.043   3.702   4.308
 7160TIP3   OH221424   0.670   3.039   4.634
 7160TIP3    H121425   0.636   3.034   4.725
 7160TIP3    H221426   0.632   2.956   4.598
 7161TIP3   OH221427   0.459   3.498   5.682
 7161TIP3    H121428   0.404   3.523   5.760
 7161TIP3    H221429   0.455   3.582   5.629
 7162TIP3   OH221430   0.338   3.389   5.194
 7162TIP3    H121431   0.244   3.365   5.210
 7162TIP3    H221432   0.351   3.349   5.105
 7163TIP3   OH221433   0.833   3.476   4.924
 7163TIP3    H121434   0.783   3.548   4.880
 7163TIP3    H221435   0.890   3.443   4.852
 7164TIP3   OH221436   1.015   3.760   6.003
 7164TIP3    H121437   0.985   3.685   6.058
 7164TIP3    H221438   1.106   3.771   6.036
 7165TIP3   OH221439   0.989   3.504   5.166
 7165TIP3    H121440   0.929   3.536   5.096
 7165TIP3    H221441   1.024   3.426   5.118
 7166TIP3   OH221442   0.295   3.520   5.901
 7166TIP3    H121443   0.283   3.597   5.957
 7166TIP3    H221444   0.278   3.445   5.961
 7167TIP3   OH221445   0.328   3.010   4.598
 7167TIP3    H121446   0.319   3.011   4.695
 7167TIP3    H221447   0.246   3.055   4.571
 7168TIP3   OH221448  -0.108   3.098   5.460
 7168TIP3    H121449  -0.029   3.086   5.516
 7168TIP3    H221450  -0.104   3.023   5.398
 7169TIP3   OH221451  -0.134   3.086   5.021
 7169TIP3    H121452  -0.106   3.102   4.928
 7169TIP3    H221453  -0.143   3.178   5.051
 7170TIP3   OH221454   0.973   3.755   5.583
 7170TIP3    H121455   1.012   3.678   5.535
 7170TIP3    H221456   0.998   3.737   5.674
 7171TIP3   OH221457   0.678   3.210   5.254
 7171TIP3    H121458   0.595   3.211   5.306
 7171TIP3    H221459   0.745   3.205   5.323
 7172TIP3   OH221460   0.101   3.256   5.260
 7172TIP3    H121461   0.011   3.224   5.276
 7172TIP3    H221462   0.150   3.173   5.246
 7173TIP3   OH221463   0.369   3.265   4.952
 7173TIP3    H121464   0.463   3.279   4.933
 7173TIP3    H221465   0.324   3.288   4.867
 7174TIP3   OH221466   1.156   3.280   5.475
 7174TIP3    H121467   1.099   3.222   5.528
 7174TIP3    H221468   1.139   3.244   5.386
 7175TIP3   OH221469   0.217   3.307   4.726
 7175TIP3    H121470   0.152   3.259   4.673
 7175TIP3    H221471   0.273   3.344   4.655
 7176TIP3   OH221472   0.288   4.074   6.122
 7176TIP3    H121473   0.364   4.108   6.172
 7176TIP3    H221474   0.217   4.129   6.159
 7177TIP3   OH221475   0.752   3.544   5.345
 7177TIP3    H121476   0.827   3.507   5.295
 7177TIP3    H221477   0.764   3.505   5.433
 7178TIP3   OH221478   0.270   3.032   5.239
 7178TIP3    H121479   0.232   2.955   5.287
 7178TIP3    H221480   0.316   2.987   5.167
 7179TIP3   OH221481   0.725   3.456   5.656
 7179TIP3    H121482   0.627   3.462   5.648
 7179TIP3    H221483   0.744   3.545   5.688
 7180TIP3   OH221484   0.453   3.837   4.729
 7180TIP3    H121485   0.390   3.762   4.726
 7180TIP3    H221486   0.444   3.865   4.824
 7181TIP3   OH221487   1.365   4.066   5.364
 7181TIP3    H121488   1.392   4.117   5.285
 7181TIP3    H221489   1.281   4.025   5.335
 7182TIP3   OH221490   0.924   3.138   4.609
 7182TIP3    H121491   0.827   3.121   4.614
 7182TIP3    H221492   0.932   3.233   4.629
 7183TIP3   OH221493   0.864   4.147   5.736
 7183TIP3    H121494   0.897   4.131   5.825
 7183TIP3    H221495   0.826   4.236   5.742
 7184TIP3   OH221496   0.992   3.392   4.707
 7184TIP3    H121497   1.089   3.395   4.721
 7184TIP3    H221498   0.976   3.471   4.652
 7185TIP3   OH221499   0.168   3.843   5.419
 7185TIP3    H121500   0.212   3.796   5.346
 7185TIP3    H221501   0.176   3.781   5.495
 7186TIP3   OH221502   0.609   3.983   4.559
 7186TIP3    H121503   0.556   4.065   4.564
 7186TIP3    H221504   0.559   3.925   4.620
 7187TIP3   OH221505   0.767   3.886   6.048
 7187TIP3    H121506   0.703   3.824   6.009
 7187TIP3    H221507   0.852   3.851   6.014
 7188TIP3   OH221508   1.024   4.413   5.630
 7188TIP3    H121509   0.927   4.409   5.643
 7188TIP3    H221510   1.051   4.461   5.710
 7189TIP3   OH221511   1.426   3.484   4.543
 7189TIP3    H121512   1.366   3.440   4.479
 7189TIP3    H221513   1.426   3.573   4.500
 7190TIP3   OH221514   1.659   4.319   5.627
 7190TIP3    H121515   1.563   4.334   5.617
 7190TIP3    H221516   1.683   4.302   5.533
 7191TIP3   OH221517   1.130   4.299   4.447
 7191TIP3    H121518   1.115   4.225   4.506
 7191TIP3    H221519   1.151   4.256   4.362
 7192TIP3   OH221520   1.129   3.927   5.286
 7192TIP3    H121521   1.035   3.904   5.294
 7192TIP3    H221522   1.163   3.848   5.240
 7193TIP3   OH221523   0.245   4.149   5.023
 7193TIP3    H121524   0.244   4.237   4.982
 7193TIP3    H221525   0.188   4.161   5.100
 7194TIP3   OH221526  -0.173   3.463   4.750
 7194TIP3    H121527  -0.122   3.544   4.769
 7194TIP3    H221528  -0.261   3.488   4.779
 7195TIP3   OH221529   0.391   3.917   4.977
 7195TIP3    H121530   0.348   4.003   4.994
 7195TIP3    H221531   0.361   3.866   5.055
 7196TIP3   OH221532   0.537   4.503   5.508
 7196TIP3    H121533   0.581   4.572   5.454
 7196TIP3    H221534   0.613   4.462   5.553
 7197TIP3   OH221535   0.173   4.407   4.896
 7197TIP3    H121536   0.102   4.428   4.958
 7197TIP3    H221537   0.218   4.495   4.892
 7198TIP3   OH221538   0.914   4.135   5.467
 7198TIP3    H121539   0.905   4.132   5.565
 7198TIP3    H221540   0.996   4.085   5.454
 7199TIP3   OH221541   0.895   4.027   4.354
 7199TIP3    H121542   0.951   4.004   4.431
 7199TIP3    H221543   0.808   3.999   4.386
 7200TIP3   OH221544   1.164   4.691   5.526
 7200TIP3    H121545   1.101   4.616   5.526
 7200TIP3    H221546   1.143   4.736   5.442
 7201TIP3   OH221547   1.229   4.499   4.168
 7201TIP3    H121548   1.267   4.570   4.114
 7201TIP3    H221549   1.150   4.545   4.201
 7202TIP3   OH221550   0.259   3.263   6.049
 7202TIP3    H121551   0.165   3.250   6.069
 7202TIP3    H221552   0.300   3.209   6.120
 7203TIP3   OH221553   1.055   3.966   4.572
 7203TIP3    H121554   1.045   3.895   4.639
 7203TIP3    H221555   1.151   3.960   4.555
 7204TIP3   OH221556   0.257   4.003   4.350
 7204TIP3    H121557   0.274   3.915   4.313
 7204TIP3    H221558   0.245   3.983   4.444
 7205TIP3   OH221559   0.250   4.022   4.628
 7205TIP3    H121560   0.312   3.961   4.675
 7205TIP3    H221561   0.311   4.098   4.612
 7206TIP3   OH221562  -0.051   3.699   4.822
 7206TIP3    H121563  -0.084   3.753   4.896
 7206TIP3    H221564  -0.011   3.766   4.764
 7207TIP3   OH221565   0.968   3.091   4.888
 7207TIP3    H121566   0.956   3.111   4.792
 7207TIP3    H221567   1.008   3.174   4.920
 7208TIP3   OH221568   0.440   4.206   4.570
 7208TIP3    H121569   0.401   4.275   4.626
 7208TIP3    H221570   0.486   4.262   4.505
 7209TIP3   OH221571   0.651   3.276   4.985
 7209TIP3    H121572   0.716   3.347   4.967
 7209TIP3    H221573   0.660   3.267   5.083
 7210TIP3   OH221574   0.797   2.995   5.085
 7210TIP3    H121575   0.784   3.075   5.139
 7210TIP3    H221576   0.860   3.029   5.017
 7211TIP3   OH221577   0.159   4.294   4.648
 7211TIP3    H121578   0.161   4.366   4.578
 7211TIP3    H221579   0.169   4.349   4.730
 7212TIP3   OH221580   0.312   3.000   4.875
 7212TIP3    H121581   0.311   3.089   4.914
 7212TIP3    H221582   0.408   2.981   4.883
 7213TIP3   OH221583   1.542   3.494   5.773
 7213TIP3    H121584   1.458   3.454   5.746
 7213TIP3    H221585   1.597   3.479   5.695
 7214TIP3   OH221586   1.215   3.685   5.164
 7214TIP3    H121587   1.142   3.622   5.173
 7214TIP3    H221588   1.289   3.639   5.210
 7215TIP3   OH221589  -0.036   3.963   4.639
 7215TIP3    H121590   0.025   3.895   4.602
 7215TIP3    H221591  -0.121   3.932   4.600
 7216TIP3   OH221592  -0.139   3.189   4.769
 7216TIP3    H121593  -0.140   3.286   4.765
 7216TIP3    H221594  -0.178   3.164   4.684
 7217TIP3   OH221595   1.186   4.642   5.106
 7217TIP3    H121596   1.145   4.690   5.030
 7217TIP3    H221597   1.281   4.663   5.090
 7218TIP3   OH221598   0.267   2.906   5.633
 7218TIP3    H121599   0.235   2.869   5.548
 7218TIP3    H221600   0.256   2.828   5.693
 7219TIP3   OH221601   0.425   4.634   6.136
 7219TIP3    H121602   0.521   4.634   6.144
 7219TIP3    H221603   0.411   4.567   6.067
 7220TIP3   OH221604   0.421   4.209   4.259
 7220TIP3    H121605   0.370   4.133   4.295
 7220TIP3    H221606   0.497   4.163   4.218
 7221TIP3   OH221607   1.077   4.542   5.866
 7221TIP3    H121608   1.069   4.472   5.936
 7221TIP3    H221609   1.157   4.589   5.893
 7222TIP3   OH221610   0.853   4.246   4.172
 7222TIP3    H121611   0.902   4.187   4.232
 7222TIP3    H221612   0.909   4.246   4.091
 7223TIP3   OH221613   0.076   3.743   4.504
 7223TIP3    H121614   0.129   3.688   4.564
 7223TIP3    H221615   0.129   3.736   4.422
 7224TIP3   OH221616   0.693   4.164   6.063
 7224TIP3    H121617   0.654   4.181   5.975
 7224TIP3    H221618   0.726   4.072   6.054
 7225TIP3   OH221619   0.572   3.923   4.292
 7225TIP3    H121620   0.582   3.935   4.388
 7225TIP3    H221621   0.579   3.825   4.285
 7226TIP3   OH221622   1.185   4.174   5.668
 7226TIP3    H121623   1.264   4.213   5.626
 7226TIP3    H221624   1.119   4.244   5.652
 7227TIP3   OH221625   0.211   3.793   6.294
 7227TIP3    H121626   0.277   3.767   6.229
 7227TIP3    H221627   0.262   3.845   6.358
 7228TIP3   OH221628   0.267   3.632   4.702
 7228TIP3    H121629   0.253   3.587   4.788
 7228TIP3    H221630   0.308   3.560   4.650
 7229TIP3   OH221631   0.552   3.710   5.938
 7229TIP3    H121632   0.465   3.754   5.935
 7229TIP3    H221633   0.591   3.734   5.852
 7230TIP3   OH221634   0.378   3.434   4.545
 7230TIP3    H121635   0.354   3.437   4.450
 7230TIP3    H221636   0.476   3.432   4.538
 7231TIP3   OH221637   1.060   4.099   6.066
 7231TIP3    H121638   1.140   4.070   6.021
 7231TIP3    H221639   1.052   4.033   6.138
 7232TIP3   OH221640   1.189   3.754   4.214
 7232TIP3    H121641   1.175   3.710   4.128
 7232TIP3    H221642   1.158   3.844   4.191
 7233TIP3   OH221643   0.670   3.493   6.057
 7233TIP3    H121644   0.662   3.411   6.005
 7233TIP3    H221645   0.623   3.558   6.002
 7234TIP3   OH221646   0.670   3.270   5.869
 7234TIP3    H121647   0.692   3.322   5.790
 7234TIP3    H221648   0.576   3.246   5.852
 7235TIP3   OH221649   0.708   3.791   5.723
 7235TIP3    H121650   0.787   3.816   5.674
 7235TIP3    H221651   0.642   3.854   5.686
 7236TIP3   OH221652   1.276   3.764   6.116
 7236TIP3    H121653   1.333   3.696   6.155
 7236TIP3    H221654   1.341   3.826   6.080
 7237TIP3   OH221655   1.316   4.021   5.850
 7237TIP3    H121656   1.259   4.079   5.794
 7237TIP3    H221657   1.405   4.046   5.813
 7238TIP3   OH221658   0.547   3.606   6.292
 7238TIP3    H121659   0.488   3.527   6.300
 7238TIP3    H221660   0.580   3.594   6.201
 7239TIP3   OH221661   0.814   3.036   5.919
 7239TIP3    H121662   0.755   3.115   5.907
 7239TIP3    H221663   0.748   2.964   5.917
 7240TIP3   OH221664   0.927   3.544   6.151
 7240TIP3    H121665   0.915   3.527   6.246
 7240TIP3    H221666   0.837   3.521   6.119
 7241TIP3   OH221667   1.136   3.429   6.018
 7241TIP3    H121668   1.065   3.472   6.077
 7241TIP3    H221669   1.215   3.436   6.082
 7242TIP3   OH221670   1.374   3.423   6.146
 7242TIP3    H121671   1.400   3.331   6.167
 7242TIP3    H221672   1.378   3.467   6.233
 7243TIP3   OH221673   0.412   3.375   6.343
 7243TIP3    H121674   0.400   3.285   6.306
 7243TIP3    H221675   0.436   3.354   6.434
 7244TIP3   OH221676   0.894   3.046   6.188
 7244TIP3    H121677   0.961   2.975   6.187
 7244TIP3    H221678   0.858   3.037   6.098
 7245TIP3   OH221679   0.963   3.259   6.349
 7245TIP3    H121680   0.940   3.187   6.286
 7245TIP3    H221681   0.883   3.316   6.344
 7246TIP3   OH221682   0.187   4.467   4.448
 7246TIP3    H121683   0.282   4.475   4.428
 7246TIP3    H221684   0.151   4.532   4.385
 7247TIP3   OH221685   1.439   4.746   5.072
 7247TIP3    H121686   1.501   4.793   5.129
 7247TIP3    H221687   1.486   4.750   4.987
 7248TIP3   OH221688   1.512   4.431   5.926
 7248TIP3    H121689   1.442   4.443   5.993
 7248TIP3    H221690   1.559   4.517   5.928
 7249TIP3   OH221691   1.330   3.943   4.542
 7249TIP3    H121692   1.396   4.007   4.509
 7249TIP3    H221693   1.377   3.906   4.620
 7250TIP3   OH221694   1.460   3.813   4.746
 7250TIP3    H121695   1.397   3.772   4.809
 7250TIP3    H221696   1.532   3.846   4.805
 7251TIP3   OH221697   1.514   4.199   5.175
 7251TIP3    H121698   1.570   4.132   5.130
 7251TIP3    H221699   1.512   4.272   5.110
 7252TIP3   OH221700   1.342   4.491   5.379
 7252TIP3    H121701   1.277   4.550   5.417
 7252TIP3    H221702   1.295   4.452   5.302
 7253TIP3   OH221703   1.394   3.717   4.394
 7253TIP3    H121704   1.324   3.720   4.326
 7253TIP3    H221705   1.368   3.794   4.448
 7254TIP3   OH221706   1.260   3.393   4.349
 7254TIP3    H121707   1.228   3.425   4.264
 7254TIP3    H221708   1.240   3.297   4.341
 7255TIP3   OH221709   1.269   3.670   4.892
 7255TIP3    H121710   1.282   3.574   4.883
 7255TIP3    H221711   1.257   3.681   4.989
 7256TIP3   OH221712   1.561   4.087   5.749
 7256TIP3    H121713   1.635   4.023   5.740
 7256TIP3    H221714   1.590   4.160   5.690
 7257TIP3   OH221715   1.744   3.892   5.769
 7257TIP3    H121716   1.672   3.840   5.811
 7257TIP3    H221717   1.819   3.829   5.779
 7258TIP3   OH221718   1.210   3.126   4.332
 7258TIP3    H121719   1.288   3.095   4.383
 7258TIP3    H221720   1.141   3.061   4.352
 7259TIP3   OH221721   1.270   3.385   4.783
 7259TIP3    H121722   1.311   3.296   4.797
 7259TIP3    H221723   1.327   3.418   4.712
 7260TIP3   OH221724   1.429   3.556   5.283
 7260TIP3    H121725   1.514   3.580   5.239
 7260TIP3    H221726   1.447   3.594   5.371
 7261TIP3   OH221727   1.500   3.702   5.514
 7261TIP3    H121728   1.425   3.743   5.559
 7261TIP3    H221729   1.537   3.779   5.464
 7262TIP3   OH221730   0.133   3.343   6.431
 7262TIP3    H121731   0.191   3.382   6.363
 7262TIP3    H221732   0.046   3.378   6.401
 7263TIP3   OH221733   1.947   3.291   6.067
 7263TIP3    H121734   2.010   3.227   6.028
 7263TIP3    H221735   1.922   3.345   5.989
 7264TIP3   OH221736   1.374   3.135   4.828
 7264TIP3    H121737   1.428   3.116   4.907
 7264TIP3    H221738   1.316   3.057   4.824
 7265TIP3   OH221739   0.093   3.116   5.651
 7265TIP3    H121740   0.156   3.041   5.655
 7265TIP3    H221741   0.155   3.190   5.633
 7266TIP3   OH221742   1.815   3.430   5.870
 7266TIP3    H121743   1.733   3.469   5.903
 7266TIP3    H221744   1.782   3.356   5.815
 7267TIP3   OH221745   1.454   3.065   4.458
 7267TIP3    H121746   1.496   2.996   4.404
 7267TIP3    H221747   1.521   3.136   4.458
 7268TIP3   OH221748  -0.113   2.923   5.241
 7268TIP3    H121749  -0.202   2.887   5.245
 7268TIP3    H221750  -0.115   2.977   5.159
 7269TIP3   OH221751   1.022   4.600   4.725
 7269TIP3    H121752   1.072   4.587   4.641
 7269TIP3    H221753   1.078   4.667   4.769
 7270TIP3   OH221754   0.082   2.986   6.046
 7270TIP3    H121755   0.038   2.982   6.132
 7270TIP3    H221756   0.017   3.033   5.992
 7271TIP3   OH221757   0.302   4.472   5.656
 7271TIP3    H121758   0.283   4.549   5.599
 7271TIP3    H221759   0.393   4.452   5.625
 7272TIP3   OH221760   0.744   4.676   5.792
 7272TIP3    H121761   0.785   4.676   5.881
 7272TIP3    H221762   0.809   4.730   5.741
 7273TIP3   OH221763   0.922   4.833   5.654
 7273TIP3    H121764   0.994   4.782   5.612
 7273TIP3    H221765   0.973   4.887   5.718
 7274TIP3   OH221766   1.719   3.190   5.755
 7274TIP3    H121767   1.631   3.174   5.719
 7274TIP3    H221768   1.760   3.101   5.746
 7275TIP3   OH221769   0.215   4.701   5.514
 7275TIP3    H121770   0.192   4.790   5.546
 7275TIP3    H221771   0.161   4.695   5.434
 7276TIP3   OH221772   0.642   4.698   5.341
 7276TIP3    H121773   0.593   4.719   5.259
 7276TIP3    H221774   0.655   4.786   5.381
 7277TIP3   OH221775   0.911   4.640   5.389
 7277TIP3    H121776   0.816   4.654   5.372
 7277TIP3    H221777   0.950   4.714   5.340
 7278TIP3   OH221778   1.134   4.832   5.295
 7278TIP3    H121779   1.113   4.916   5.246
 7278TIP3    H221780   1.147   4.769   5.220
 7279TIP3   OH221781   0.093   4.357   5.257
 7279TIP3    H121782   0.097   4.268   5.300
 7279TIP3    H221783   0.182   4.391   5.274
 7280TIP3   OH221784   0.363   4.455   5.292
 7280TIP3    H121785   0.390   4.362   5.279
 7280TIP3    H221786   0.415   4.474   5.373
 7281TIP3   OH221787   0.922   3.104   5.383
 7281TIP3    H121788   0.879   3.029   5.427
 7281TIP3    H221789   0.994   3.061   5.333
 7282TIP3   OH221790   1.444   3.001   5.284
 7282TIP3    H121791   1.483   3.040   5.202
 7282TIP3    H221792   1.348   3.005   5.266
 7283TIP3   OH221793   1.541   3.087   5.044
 7283TIP3    H121794   1.612   3.031   5.005
 7283TIP3    H221795   1.581   3.175   5.026
 7284TIP3   OH221796   0.172   2.817   5.388
 7284TIP3    H121797   0.078   2.791   5.386
 7284TIP3    H221798   0.216   2.729   5.383
 7285TIP3   OH221799  -0.011   2.678   5.045
 7285TIP3    H121800   0.006   2.737   4.969
 7285TIP3    H221801  -0.072   2.731   5.098
 7286TIP3   OH221802   0.620   2.849   5.269
 7286TIP3    H121803   0.677   2.896   5.206
 7286TIP3    H221804   0.647   2.887   5.354
 7287TIP3   OH221805   1.160   2.998   5.254
 7287TIP3    H121806   1.163   2.957   5.167
 7287TIP3    H221807   1.150   2.919   5.312
 7288TIP3   OH221808   1.195   2.920   4.817
 7288TIP3    H121809   1.108   2.962   4.830
 7288TIP3    H221810   1.181   2.834   4.861
 7289TIP3   OH221811   0.082   2.842   4.809
 7289TIP3    H121812   0.126   2.778   4.749
 7289TIP3    H221813   0.158   2.895   4.841
 7290TIP3   OH221814   0.589   3.024   4.898
 7290TIP3    H121815   0.648   2.975   4.957
 7290TIP3    H221816   0.612   3.116   4.923
 7291TIP3   OH221817   0.456   4.443   4.401
 7291TIP3    H121818   0.544   4.466   4.363
 7291TIP3    H221819   0.432   4.370   4.338
 7292TIP3   OH221820   1.167   4.565   4.493
 7292TIP3    H121821   1.158   4.468   4.480
 7292TIP3    H221822   1.124   4.598   4.411
 7293TIP3   OH221823   0.379   3.103   6.276
 7293TIP3    H121824   0.341   3.030   6.330
 7293TIP3    H221825   0.472   3.099   6.307
 7294TIP3   OH221826   0.629   3.098   6.402
 7294TIP3    H121827   0.714   3.073   6.362
 7294TIP3    H221828   0.617   3.025   6.466
 7295TIP3   OH221829   1.457   3.160   6.184
 7295TIP3    H121830   1.474   3.129   6.276
 7295TIP3    H221831   1.547   3.155   6.145
 7296TIP3   OH221832   1.967   3.978   5.186
 7296TIP3    H121833   1.987   3.913   5.256
 7296TIP3    H221834   2.047   4.033   5.189
 7297TIP3   OH221835   1.928   4.376   4.913
 7297TIP3    H121836   1.930   4.278   4.909
 7297TIP3    H221837   2.024   4.394   4.908
 7298TIP3   OH221838   1.635   3.587   4.691
 7298TIP3    H121839   1.593   3.673   4.708
 7298TIP3    H221840   1.563   3.539   4.647
 7299TIP3   OH221841   1.700   3.877   4.874
 7299TIP3    H121842   1.747   3.796   4.907
 7299TIP3    H221843   1.770   3.917   4.820
 7300TIP3   OH221844   2.556   4.848   4.527
 7300TIP3    H121845   2.600   4.775   4.479
 7300TIP3    H221846   2.544   4.809   4.615
 7301TIP3   OH221847   3.483   3.620   4.872
 7301TIP3    H121848   3.508   3.704   4.915
 7301TIP3    H221849   3.530   3.627   4.786
 7302TIP3   OH221850   2.921   3.821   4.910
 7302TIP3    H121851   2.920   3.725   4.897
 7302TIP3    H221852   2.868   3.855   4.837
 7303TIP3   OH221853   2.204   3.498   4.856
 7303TIP3    H121854   2.178   3.582   4.811
 7303TIP3    H221855   2.154   3.431   4.804
 7304TIP3   OH221856   2.909   3.528   4.485
 7304TIP3    H121857   2.975   3.517   4.557
 7304TIP3    H221858   2.947   3.601   4.434
 7305TIP3   OH221859   1.836   3.669   4.985
 7305TIP3    H121860   1.926   3.666   5.021
 7305TIP3    H221861   1.848   3.605   4.910
 7306TIP3   OH221862   3.547   3.830   5.048
 7306TIP3    H121863   3.463   3.880   5.033
 7306TIP3    H221864   3.582   3.877   5.126
 7307TIP3   OH221865   2.209   3.457   5.301
 7307TIP3    H121866   2.153   3.500   5.233
 7307TIP3    H221867   2.155   3.472   5.381
 7308TIP3   OH221868   2.585   4.330   4.295
 7308TIP3    H121869   2.524   4.257   4.277
 7308TIP3    H221870   2.521   4.401   4.320
 7309TIP3   OH221871   2.318   4.233   5.147
 7309TIP3    H121872   2.245   4.296   5.163
 7309TIP3    H221873   2.352   4.264   5.063
 7310TIP3   OH221874   3.100   3.512   4.681
 7310TIP3    H121875   3.059   3.505   4.770
 7310TIP3    H221876   3.164   3.584   4.692
 7311TIP3   OH221877   2.083   3.581   5.088
 7311TIP3    H121878   2.121   3.670   5.082
 7311TIP3    H221879   2.126   3.540   5.009
 7312TIP3   OH221880   2.130   4.428   5.200
 7312TIP3    H121881   2.113   4.517   5.162
 7312TIP3    H221882   2.052   4.417   5.257
 7313TIP3   OH221883   1.525   4.117   4.435
 7313TIP3    H121884   1.494   4.144   4.347
 7313TIP3    H221885   1.564   4.200   4.469
 7314TIP3   OH221886   2.976   4.635   4.694
 7314TIP3    H121887   2.894   4.600   4.732
 7314TIP3    H221888   2.948   4.717   4.651
 7315TIP3   OH221889   3.271   3.518   5.040
 7315TIP3    H121890   3.183   3.550   5.011
 7315TIP3    H221891   3.330   3.554   4.971
 7316TIP3   OH221892   2.566   3.167   5.032
 7316TIP3    H121893   2.541   3.072   5.036
 7316TIP3    H221894   2.487   3.208   5.073
 7317TIP3   OH221895   2.676   4.675   4.344
 7317TIP3    H121896   2.727   4.595   4.319
 7317TIP3    H221897   2.734   4.744   4.306
 7318TIP3   OH221898   2.816   4.457   4.248
 7318TIP3    H121899   2.731   4.407   4.245
 7318TIP3    H221900   2.860   4.417   4.324
 7319TIP3   OH221901   3.204   4.543   5.019
 7319TIP3    H121902   3.179   4.467   4.962
 7319TIP3    H221903   3.180   4.619   4.963
 7320TIP3   OH221904   2.500   3.937   4.262
 7320TIP3    H121905   2.415   3.985   4.262
 7320TIP3    H221906   2.524   3.937   4.169
 7321TIP3   OH221907   2.448   3.721   3.984
 7321TIP3    H121908   2.509   3.760   4.049
 7321TIP3    H221909   2.508   3.661   3.937
 7322TIP3   OH221910   3.384   4.207   4.916
 7322TIP3    H121911   3.299   4.257   4.914
 7322TIP3    H221912   3.401   4.200   4.822
 7323TIP3   OH221913   3.073   4.051   5.161
 7323TIP3    H121914   3.059   4.134   5.209
 7323TIP3    H221915   3.003   4.056   5.093
 7324TIP3   OH221916   2.192   4.435   4.814
 7324TIP3    H121917   2.176   4.376   4.738
 7324TIP3    H221918   2.285   4.418   4.834
 7325TIP3   OH221919   2.343   4.550   5.347
 7325TIP3    H121920   2.275   4.606   5.390
 7325TIP3    H221921   2.288   4.487   5.296
 7326TIP3   OH221922   2.696   3.871   4.065
 7326TIP3    H121923   2.736   3.950   4.101
 7326TIP3    H221924   2.711   3.886   3.968
 7327TIP3   OH221925   2.100   4.103   5.450
 7327TIP3    H121926   2.103   4.192   5.491
 7327TIP3    H221927   2.006   4.079   5.461
 7328TIP3   OH221928   2.427   4.551   4.349
 7328TIP3    H121929   2.504   4.609   4.362
 7328TIP3    H221930   2.363   4.610   4.307
 7329TIP3   OH221931   2.130   4.713   5.428
 7329TIP3    H121932   2.106   4.714   5.334
 7329TIP3    H221933   2.045   4.696   5.473
 7330TIP3   OH221934   3.195   3.113   4.122
 7330TIP3    H121935   3.114   3.139   4.172
 7330TIP3    H221936   3.213   3.196   4.072
 7331TIP3   OH221937   1.945   3.833   4.413
 7331TIP3    H121938   1.860   3.877   4.391
 7331TIP3    H221939   1.925   3.784   4.493
 7332TIP3   OH221940   2.998   4.480   3.672
 7332TIP3    H121941   3.007   4.576   3.656
 7332TIP3    H221942   3.091   4.450   3.659
 7333TIP3   OH221943   1.721   4.246   5.372
 7333TIP3    H121944   1.655   4.219   5.305
 7333TIP3    H221945   1.757   4.160   5.404
 7334TIP3   OH221946   1.577   4.432   5.007
 7334TIP3    H121947   1.671   4.415   4.990
 7334TIP3    H221948   1.582   4.505   5.071
 7335TIP3   OH221949   3.434   4.887   5.066
 7335TIP3    H121950   3.434   4.791   5.080
 7335TIP3    H221951   3.351   4.912   5.111
 7336TIP3   OH221952   2.532   4.679   5.195
 7336TIP3    H121953   2.530   4.767   5.236
 7336TIP3    H221954   2.477   4.626   5.256
 7337TIP3   OH221955   2.306   4.798   4.151
 7337TIP3    H121956   2.259   4.780   4.068
 7337TIP3    H221957   2.272   4.886   4.177
 7338TIP3   OH221958   1.742   4.646   4.540
 7338TIP3    H121959   1.792   4.637   4.624
 7338TIP3    H221960   1.697   4.560   4.535
 7339TIP3   OH221961   2.505   4.701   3.789
 7339TIP3    H121962   2.564   4.631   3.753
 7339TIP3    H221963   2.540   4.711   3.880
 7340TIP3   OH221964   2.557   4.750   4.059
 7340TIP3    H121965   2.468   4.759   4.100
 7340TIP3    H221966   2.608   4.711   4.131
 7341TIP3   OH221967   3.325   4.013   5.346
 7341TIP3    H121968   3.247   4.026   5.291
 7341TIP3    H221969   3.341   3.917   5.334
 7342TIP3   OH221970   1.917   4.435   5.377
 7342TIP3    H121971   1.977   4.402   5.447
 7342TIP3    H221972   1.848   4.366   5.374
 7343TIP3   OH221973   2.322   3.245   5.153
 7343TIP3    H121974   2.234   3.217   5.121
 7343TIP3    H221975   2.296   3.328   5.199
 7344TIP3   OH221976   2.858   3.355   5.344
 7344TIP3    H121977   2.922   3.340   5.415
 7344TIP3    H221978   2.771   3.344   5.388
 7345TIP3   OH221979   3.092   3.786   5.259
 7345TIP3    H121980   3.044   3.786   5.345
 7345TIP3    H221981   3.069   3.873   5.221
 7346TIP3   OH221982   2.756   3.922   3.811
 7346TIP3    H121983   2.721   3.897   3.724
 7346TIP3    H221984   2.842   3.962   3.787
 7347TIP3   OH221985   2.465   3.294   4.120
 7347TIP3    H121986   2.434   3.292   4.213
 7347TIP3    H221987   2.426   3.211   4.088
 7348TIP3   OH221988   2.613   3.719   4.394
 7348TIP3    H121989   2.574   3.804   4.365
 7348TIP3    H221990   2.676   3.698   4.323
 7349TIP3   OH221991   2.813   4.017   5.499
 7349TIP3    H121992   2.787   3.942   5.557
 7349TIP3    H221993   2.907   4.025   5.524
 7350TIP3   OH221994   2.047   3.800   5.391
 7350TIP3    H121995   2.133   3.844   5.409
 7350TIP3    H221996   2.061   3.714   5.434
 7351TIP3   OH221997   2.121   3.268   4.085
 7351TIP3    H121998   2.115   3.268   4.183
 7351TIP3    H221999   2.046   3.326   4.063
 7352TIP3   OH222000   1.672   3.307   4.964
 7352TIP3    H122001   1.742   3.351   5.016
 7352TIP3    H222002   1.713   3.304   4.876
 7353TIP3   OH222003   1.630   3.291   4.476
 7353TIP3    H122004   1.678   3.325   4.398
 7353TIP3    H222005   1.574   3.368   4.495
 7354TIP3   OH222006   2.468   3.447   4.743
 7354TIP3    H122007   2.382   3.466   4.786
 7354TIP3    H222008   2.531   3.483   4.806
 7355TIP3   OH222009   1.878   3.493   4.786
 7355TIP3    H122010   1.803   3.521   4.729
 7355TIP3    H222011   1.934   3.441   4.726
 7356TIP3   OH222012   2.167   3.496   4.432
 7356TIP3    H122013   2.253   3.540   4.436
 7356TIP3    H222014   2.117   3.548   4.366
 7357TIP3   OH222015   2.962   3.533   4.934
 7357TIP3    H122016   2.936   3.559   5.025
 7357TIP3    H222017   2.886   3.476   4.911
 7358TIP3   OH222018   2.003   3.557   4.210
 7358TIP3    H122019   1.938   3.513   4.151
 7358TIP3    H222020   2.062   3.598   4.144
 7359TIP3   OH222021   3.132   5.237   5.166
 7359TIP3    H122022   3.129   5.256   5.071
 7359TIP3    H222023   3.214   5.282   5.193
 7360TIP3   OH222024   2.082   4.350   5.586
 7360TIP3    H122025   2.166   4.376   5.628
 7360TIP3    H222026   2.024   4.343   5.664
 7361TIP3   OH222027   2.076   3.294   4.717
 7361TIP3    H122028   2.042   3.215   4.763
 7361TIP3    H222029   2.114   3.258   4.636
 7362TIP3   OH222030   2.262   4.085   4.221
 7362TIP3    H122031   2.192   4.017   4.207
 7362TIP3    H222032   2.238   4.116   4.313
 7363TIP3   OH222033   3.151   4.332   4.851
 7363TIP3    H122034   3.173   4.357   4.760
 7363TIP3    H222035   3.065   4.288   4.838
 7364TIP3   OH222036   2.716   3.396   4.082
 7364TIP3    H122037   2.620   3.379   4.097
 7364TIP3    H222038   2.728   3.488   4.114
 7365TIP3   OH222039   2.615   4.388   5.282
 7365TIP3    H122040   2.693   4.412   5.333
 7365TIP3    H222041   2.624   4.444   5.203
 7366TIP3   OH222042   2.790   3.640   4.186
 7366TIP3    H122043   2.886   3.644   4.205
 7366TIP3    H222044   2.775   3.722   4.134
 7367TIP3   OH222045   1.987   4.094   4.892
 7367TIP3    H122046   2.073   4.065   4.850
 7367TIP3    H222047   1.988   4.033   4.967
 7368TIP3   OH222048   2.402   4.230   4.037
 7368TIP3    H122049   2.360   4.318   4.049
 7368TIP3    H222050   2.352   4.177   4.103
 7369TIP3   OH222051   1.832   4.040   5.518
 7369TIP3    H122052   1.861   4.025   5.610
 7369TIP3    H222053   1.779   3.960   5.500
 7370TIP3   OH222054   2.570   4.142   5.541
 7370TIP3    H122055   2.525   4.123   5.456
 7370TIP3    H222056   2.659   4.108   5.519
 7371TIP3   OH222057   2.839   4.704   5.093
 7371TIP3    H122058   2.758   4.657   5.067
 7371TIP3    H222059   2.823   4.723   5.187
 7372TIP3   OH222060   3.224   3.747   4.027
 7372TIP3    H122061   3.164   3.697   3.967
 7372TIP3    H222062   3.221   3.833   3.979
 7373TIP3   OH222063   3.454   4.600   5.106
 7373TIP3    H122064   3.356   4.591   5.098
 7373TIP3    H222065   3.480   4.569   5.017
 7374TIP3   OH222066   2.930   4.558   3.936
 7374TIP3    H122067   2.902   4.487   3.996
 7374TIP3    H222068   2.945   4.511   3.852
 7375TIP3   OH222069   2.054   4.414   4.532
 7375TIP3    H122070   2.055   4.493   4.474
 7375TIP3    H222071   1.961   4.390   4.530
 7376TIP3   OH222072   1.617   3.715   4.228
 7376TIP3    H122073   1.666   3.797   4.251
 7376TIP3    H222074   1.544   3.719   4.293
 7377TIP3   OH222075   2.194   4.172   4.466
 7377TIP3    H122076   2.152   4.251   4.505
 7377TIP3    H222077   2.230   4.125   4.543
 7378TIP3   OH222078   2.329   4.747   4.991
 7378TIP3    H122079   2.377   4.818   4.944
 7378TIP3    H222080   2.405   4.702   5.034
 7379TIP3   OH222081   1.971   4.656   4.374
 7379TIP3    H122082   1.887   4.664   4.423
 7379TIP3    H222083   2.005   4.748   4.379
 7380TIP3   OH222084   2.686   4.289   3.834
 7380TIP3    H122085   2.743   4.257   3.907
 7380TIP3    H222086   2.599   4.258   3.864
 7381TIP3   OH222087   2.968   4.928   5.008
 7381TIP3    H122088   2.902   4.856   5.021
 7381TIP3    H222089   2.929   4.976   4.932
 7382TIP3   OH222090   3.027   4.757   3.654
 7382TIP3    H122091   3.067   4.832   3.608
 7382TIP3    H222092   2.946   4.800   3.688
 7383TIP3   OH222093   2.052   3.526   5.521
 7383TIP3    H122094   1.956   3.529   5.534
 7383TIP3    H222095   2.080   3.471   5.596
 7384TIP3   OH222096   2.854   4.203   4.035
 7384TIP3    H122097   2.839   4.197   4.130
 7384TIP3    H222098   2.953   4.203   4.031
 7385TIP3   OH222099   1.762   4.621   5.152
 7385TIP3    H122100   1.809   4.542   5.183
 7385TIP3    H222101   1.809   4.690   5.201
 7386TIP3   OH222102   2.050   4.264   3.838
 7386TIP3    H122103   2.066   4.171   3.812
 7386TIP3    H222104   2.031   4.254   3.933
 7387TIP3   OH222105   1.994   4.269   4.110
 7387TIP3    H122106   2.068   4.236   4.164
 7387TIP3    H222107   2.003   4.366   4.120
 7388TIP3   OH222108   1.718   3.959   4.311
 7388TIP3    H122109   1.656   4.008   4.368
 7388TIP3    H222110   1.743   4.028   4.247
 7389TIP3   OH222111   2.890   3.591   5.193
 7389TIP3    H122112   2.962   3.642   5.235
 7389TIP3    H222113   2.877   3.517   5.255
 7390TIP3   OH222114   2.766   3.332   4.368
 7390TIP3    H122115   2.750   3.365   4.278
 7390TIP3    H222116   2.811   3.411   4.408
 7391TIP3   OH222117   2.267   4.466   4.057
 7391TIP3    H122118   2.179   4.489   4.094
 7391TIP3    H222119   2.280   4.540   3.996
 7392TIP3   OH222120   2.448   3.522   4.474
 7392TIP3    H122121   2.509   3.595   4.449
 7392TIP3    H222122   2.458   3.521   4.571
 7393TIP3   OH222123   2.699   3.827   5.326
 7393TIP3    H122124   2.745   3.901   5.369
 7393TIP3    H222125   2.771   3.779   5.283
 7394TIP3   OH222126   2.593   3.249   4.572
 7394TIP3    H122127   2.568   3.330   4.623
 7394TIP3    H222128   2.656   3.287   4.507
 7395TIP3   OH222129   2.011   4.542   4.126
 7395TIP3    H122130   1.981   4.612   4.064
 7395TIP3    H222131   1.995   4.584   4.213
 7396TIP3   OH222132   2.111   3.243   4.361
 7396TIP3    H122133   2.112   3.337   4.390
 7396TIP3    H222134   2.206   3.224   4.369
 7397TIP3   OH222135   3.360   3.744   5.267
 7397TIP3    H122136   3.261   3.741   5.268
 7397TIP3    H222137   3.378   3.730   5.174
 7398TIP3   OH222138   1.728   4.169   4.114
 7398TIP3    H122139   1.803   4.231   4.124
 7398TIP3    H222140   1.770   4.107   4.050
 7399TIP3   OH222141   1.663   3.443   4.254
 7399TIP3    H122142   1.678   3.540   4.250
 7399TIP3    H222143   1.586   3.433   4.197
 7400TIP3   OH222144   2.978   4.904   4.595
 7400TIP3    H122145   2.938   4.952   4.519
 7400TIP3    H222146   3.073   4.920   4.576
 7401TIP3   OH222147   2.056   3.169   5.122
 7401TIP3    H122148   2.027   3.137   5.034
 7401TIP3    H222149   2.044   3.089   5.178
 7402TIP3   OH222150   1.596   4.390   4.500
 7402TIP3    H122151   1.526   4.417   4.561
 7402TIP3    H222152   1.565   4.431   4.416
 7403TIP3   OH222153   2.227   4.887   5.621
 7403TIP3    H122154   2.322   4.873   5.629
 7403TIP3    H222155   2.205   4.827   5.547
 7404TIP3   OH222156   2.215   4.465   3.746
 7404TIP3    H122157   2.159   4.394   3.785
 7404TIP3    H222158   2.291   4.414   3.715
 7405TIP3   OH222159   2.857   4.808   5.366
 7405TIP3    H122160   2.856   4.731   5.429
 7405TIP3    H222161   2.943   4.849   5.385
 7406TIP3   OH222162   2.651   4.507   3.661
 7406TIP3    H122163   2.689   4.440   3.722
 7406TIP3    H222164   2.710   4.501   3.583
 7407TIP3   OH222165   1.884   4.333   5.780
 7407TIP3    H122166   1.903   4.238   5.787
 7407TIP3    H222167   1.799   4.332   5.732
 7408TIP3   OH222168   1.863   3.979   3.975
 7408TIP3    H122169   1.922   3.950   4.048
 7408TIP3    H222170   1.930   3.986   3.903
 7409TIP3   OH222171   2.484   4.416   5.551
 7409TIP3    H122172   2.469   4.439   5.457
 7409TIP3    H222173   2.524   4.327   5.541
 7410TIP3   OH222174   2.373   4.181   3.772
 7410TIP3    H122175   2.375   4.194   3.870
 7410TIP3    H222176   2.376   4.083   3.768
 7411TIP3   OH222177   2.973   4.411   5.157
 7411TIP3    H122178   3.025   4.485   5.122
 7411TIP3    H222179   2.901   4.405   5.092
 7412TIP3   OH222180   2.002   4.070   5.758
 7412TIP3    H122181   2.082   4.029   5.721
 7412TIP3    H222182   2.034   4.099   5.846
 7413TIP3   OH222183   2.064   3.897   4.180
 7413TIP3    H122184   2.031   3.870   4.269
 7413TIP3    H222185   2.100   3.812   4.147
 7414TIP3   OH222186   2.303   3.923   5.415
 7414TIP3    H122187   2.242   4.000   5.426
 7414TIP3    H222188   2.376   3.967   5.366
 7415TIP3   OH222189   2.170   3.680   4.031
 7415TIP3    H122190   2.146   3.691   3.937
 7415TIP3    H222191   2.268   3.684   4.026
 7416TIP3   OH222192   2.859   4.355   5.555
 7416TIP3    H122193   2.927   4.319   5.497
 7416TIP3    H222194   2.852   4.286   5.624
 7417TIP3   OH222195   2.990   4.013   3.698
 7417TIP3    H122196   2.972   3.967   3.613
 7417TIP3    H222197   2.955   4.102   3.676
 7418TIP3   OH222198   2.462   3.743   5.549
 7418TIP3    H122199   2.473   3.667   5.489
 7418TIP3    H222200   2.416   3.807   5.491
 7419TIP3   OH222201   2.469   3.526   5.355
 7419TIP3    H122202   2.495   3.583   5.282
 7419TIP3    H222203   2.375   3.507   5.334
 7420TIP3   OH222204   2.486   4.081   5.292
 7420TIP3    H122205   2.568   4.092   5.242
 7420TIP3    H222206   2.425   4.139   5.239
 7421TIP3   OH222207   3.073   4.030   5.605
 7421TIP3    H122208   3.126   3.949   5.617
 7421TIP3    H222209   3.137   4.090   5.565
 7422TIP3   OH222210   3.115   4.284   5.350
 7422TIP3    H122211   3.057   4.336   5.289
 7422TIP3    H222212   3.202   4.302   5.309
 7423TIP3   OH222213   2.341   3.848   5.782
 7423TIP3    H122214   2.272   3.780   5.793
 7423TIP3    H222215   2.374   3.829   5.692
 7424TIP3   OH222216   2.595   3.288   5.424
 7424TIP3    H122217   2.549   3.371   5.398
 7424TIP3    H222218   2.524   3.222   5.410
 7425TIP3   OH222219   2.729   3.795   5.639
 7425TIP3    H122220   2.704   3.781   5.732
 7425TIP3    H222221   2.643   3.777   5.595
 7426TIP3   OH222222   2.962   3.741   5.490
 7426TIP3    H122223   2.885   3.749   5.550
 7426TIP3    H222224   3.035   3.716   5.551
 7427TIP3   OH222225   3.189   3.685   5.644
 7427TIP3    H122226   3.203   3.590   5.664
 7427TIP3    H222227   3.186   3.726   5.733
 7428TIP3   OH222228   2.174   3.630   5.835
 7428TIP3    H122229   2.185   3.540   5.799
 7428TIP3    H222230   2.215   3.619   5.923
 7429TIP3   OH222231   2.694   3.296   5.679
 7429TIP3    H122232   2.753   3.220   5.669
 7429TIP3    H222233   2.649   3.297   5.592
 7430TIP3   OH222234   2.755   3.513   5.841
 7430TIP3    H122235   2.734   3.445   5.774
 7430TIP3    H222236   2.679   3.575   5.833
 7431TIP3   OH222237   1.980   4.747   3.939
 7431TIP3    H122238   2.075   4.736   3.920
 7431TIP3    H222239   1.953   4.797   3.860
 7432TIP3   OH222240   1.459   4.127   4.153
 7432TIP3    H122241   1.554   4.149   4.137
 7432TIP3    H222242   1.454   4.038   4.113
 7433TIP3   OH222243   1.372   4.738   4.570
 7433TIP3    H122244   1.308   4.675   4.530
 7433TIP3    H222245   1.417   4.679   4.635
 7434TIP3   OH222246   1.504   4.586   4.759
 7434TIP3    H122247   1.499   4.512   4.822
 7434TIP3    H222248   1.568   4.643   4.804
 7435TIP3   OH222249   3.237   4.989   4.556
 7435TIP3    H122250   3.264   5.017   4.646
 7435TIP3    H222251   3.307   5.026   4.500
 7436TIP3   OH222252   3.268   5.010   4.837
 7436TIP3    H122253   3.217   4.926   4.838
 7436TIP3    H222254   3.344   4.983   4.891
 7437TIP3   OH222255   3.313   4.686   5.412
 7437TIP3    H122256   3.240   4.696   5.476
 7437TIP3    H222257   3.355   4.775   5.416
 7438TIP3   OH222258   3.133   4.197   4.050
 7438TIP3    H122259   3.187   4.263   4.000
 7438TIP3    H222260   3.184   4.189   4.131
 7439TIP3   OH222261   3.331   4.440   4.650
 7439TIP3    H122262   3.327   4.405   4.560
 7439TIP3    H222263   3.302   4.531   4.634
 7440TIP3   OH222264   3.142   4.765   4.865
 7440TIP3    H122265   3.071   4.806   4.919
 7440TIP3    H222266   3.089   4.719   4.797
 7441TIP3   OH222267   3.187   3.977   3.884
 7441TIP3    H122268   3.118   3.979   3.814
 7441TIP3    H222269   3.160   4.053   3.938
 7442TIP3   OH222270   3.060   3.648   3.832
 7442TIP3    H122271   3.019   3.679   3.750
 7442TIP3    H222272   3.040   3.552   3.826
 7443TIP3   OH222273   1.698   3.996   5.127
 7443TIP3    H122274   1.695   3.960   5.036
 7443TIP3    H222275   1.795   3.998   5.143
 7444TIP3   OH222276   3.359   4.348   5.239
 7444TIP3    H122277   3.430   4.281   5.226
 7444TIP3    H222278   3.380   4.415   5.171
 7445TIP3   OH222279   3.540   4.148   5.247
 7445TIP3    H122280   3.466   4.098   5.288
 7445TIP3    H222281   3.613   4.085   5.261
 7446TIP3   OH222282   3.009   3.380   3.813
 7446TIP3    H122283   3.083   3.351   3.870
 7446TIP3    H222284   2.935   3.323   3.839
 7447TIP3   OH222285   3.062   3.640   4.256
 7447TIP3    H122286   3.100   3.552   4.278
 7447TIP3    H222287   3.130   3.674   4.195
 7448TIP3   OH222288   3.312   3.966   5.029
 7448TIP3    H122289   3.220   3.981   5.058
 7448TIP3    H222290   3.335   4.055   4.996
 7449TIP3   OH222291   1.908   3.677   5.788
 7449TIP3    H122292   2.006   3.676   5.797
 7449TIP3    H222293   1.887   3.592   5.832
 7450TIP3   OH222294   3.743   3.545   5.556
 7450TIP3    H122295   3.807   3.484   5.513
 7450TIP3    H222296   3.714   3.601   5.481
 7451TIP3   OH222297   3.175   3.394   4.312
 7451TIP3    H122298   3.223   3.377   4.396
 7451TIP3    H222299   3.112   3.319   4.311
 7452TIP3   OH222300   1.874   3.382   5.148
 7452TIP3    H122301   1.936   3.307   5.144
 7452TIP3    H222302   1.934   3.456   5.125
 7453TIP3   OH222303   1.672   3.648   5.205
 7453TIP3    H122304   1.723   3.641   5.121
 7453TIP3    H222305   1.709   3.729   5.241
 7454TIP3   OH222306   3.615   3.686   5.364
 7454TIP3    H122307   3.532   3.732   5.386
 7454TIP3    H222308   3.580   3.617   5.304
 7455TIP3   OH222309   3.250   3.323   3.944
 7455TIP3    H122310   3.296   3.256   3.891
 7455TIP3    H222311   3.316   3.395   3.949
 7456TIP3   OH222312   1.658   3.141   4.698
 7456TIP3    H122313   1.567   3.147   4.729
 7456TIP3    H222314   1.659   3.206   4.625
 7457TIP3   OH222315   2.818   4.859   4.211
 7457TIP3    H122316   2.871   4.849   4.128
 7457TIP3    H222317   2.872   4.922   4.260
 7458TIP3   OH222318   1.882   3.229   5.519
 7458TIP3    H122319   1.829   3.230   5.600
 7458TIP3    H222320   1.818   3.267   5.455
 7459TIP3   OH222321   1.903   4.664   5.589
 7459TIP3    H122322   1.869   4.577   5.565
 7459TIP3    H222323   1.934   4.652   5.679
 7460TIP3   OH222324   2.100   4.700   5.144
 7460TIP3    H122325   2.060   4.779   5.101
 7460TIP3    H222326   2.189   4.706   5.104
 7461TIP3   OH222327   2.536   4.948   5.289
 7461TIP3    H122328   2.585   4.941   5.373
 7461TIP3    H222329   2.603   4.990   5.231
 7462TIP3   OH222330   2.716   5.092   5.139
 7462TIP3    H122331   2.779   5.035   5.092
 7462TIP3    H222332   2.776   5.143   5.197
 7463TIP3   OH222333   3.514   3.455   5.241
 7463TIP3    H122334   3.428   3.457   5.195
 7463TIP3    H222335   3.544   3.362   5.227
 7464TIP3   OH222336   1.774   4.954   5.169
 7464TIP3    H122337   1.682   4.982   5.149
 7464TIP3    H222338   1.797   5.016   5.240
 7465TIP3   OH222339   2.011   4.930   5.026
 7465TIP3    H122340   1.922   4.941   5.066
 7465TIP3    H222341   1.995   4.960   4.934
 7466TIP3   OH222342   2.436   4.954   4.821
 7466TIP3    H122343   2.366   4.978   4.759
 7466TIP3    H222344   2.453   5.039   4.867
 7467TIP3   OH222345   2.714   4.918   4.875
 7467TIP3    H122346   2.619   4.905   4.854
 7467TIP3    H222347   2.738   4.994   4.821
 7468TIP3   OH222348   2.923   5.098   4.786
 7468TIP3    H122349   2.906   5.178   4.732
 7468TIP3    H222350   2.943   5.030   4.718
 7469TIP3   OH222351   1.683   4.738   4.911
 7469TIP3    H122352   1.712   4.713   5.002
 7469TIP3    H222353   1.758   4.698   4.861
 7470TIP3   OH222354   1.882   4.614   4.774
 7470TIP3    H122355   1.899   4.527   4.818
 7470TIP3    H222356   1.973   4.650   4.769
 7471TIP3   OH222357   2.148   4.711   4.777
 7471TIP3    H122358   2.173   4.617   4.764
 7471TIP3    H222359   2.202   4.729   4.856
 7472TIP3   OH222360   2.735   3.368   4.880
 7472TIP3    H122361   2.681   3.296   4.916
 7472TIP3    H222362   2.795   3.322   4.819
 7473TIP3   OH222363   3.243   3.240   4.764
 7473TIP3    H122364   3.281   3.295   4.692
 7473TIP3    H222365   3.149   3.268   4.761
 7474TIP3   OH222366   3.344   3.339   4.527
 7474TIP3    H122367   3.415   3.286   4.485
 7474TIP3    H222368   3.381   3.429   4.512
 7475TIP3   OH222369   1.970   3.072   4.877
 7475TIP3    H122370   1.876   3.043   4.877
 7475TIP3    H222371   2.016   2.986   4.870
 7476TIP3   OH222372   1.760   2.943   4.525
 7476TIP3    H122373   1.790   2.999   4.451
 7476TIP3    H222374   1.732   3.010   4.590
 7477TIP3   OH222375   2.421   3.099   4.758
 7477TIP3    H122376   2.471   3.149   4.691
 7477TIP3    H222377   2.429   3.157   4.834
 7478TIP3   OH222378   2.957   3.253   4.741
 7478TIP3    H122379   2.954   3.231   4.647
 7478TIP3    H222380   2.938   3.167   4.784
 7479TIP3   OH222381   2.991   3.180   4.302
 7479TIP3    H122382   2.907   3.227   4.319
 7479TIP3    H222383   2.972   3.094   4.345
 7480TIP3   OH222384   1.471   4.520   4.301
 7480TIP3    H122385   1.386   4.487   4.267
 7480TIP3    H222386   1.464   4.613   4.273
 7481TIP3   OH222387   1.876   3.100   4.290
 7481TIP3    H122388   1.923   3.040   4.228
 7481TIP3    H222389   1.951   3.154   4.323
 7482TIP3   OH222390   2.388   3.271   4.384
 7482TIP3    H122391   2.456   3.237   4.445
 7482TIP3    H222392   2.395   3.367   4.407
 7483TIP3   OH222393   2.246   4.700   3.885
 7483TIP3    H122394   2.334   4.722   3.849
 7483TIP3    H222395   2.224   4.625   3.825
 7484TIP3   OH222396   2.965   4.824   3.979
 7484TIP3    H122397   2.958   4.726   3.968
 7484TIP3    H222398   2.921   4.855   3.898
 7485TIP3   OH222399   2.176   3.349   5.764
 7485TIP3    H122400   2.142   3.279   5.823
 7485TIP3    H222401   2.270   3.352   5.793
 7486TIP3   OH222402   2.425   3.352   5.884
 7486TIP3    H122403   2.513   3.331   5.848
 7486TIP3    H222404   2.414   3.281   5.952
 7487TIP3   OH222405   1.550   4.537   3.939
 7487TIP3    H122406   1.557   4.558   4.033
 7487TIP3    H222407   1.637   4.494   3.921
 7488TIP3   OH222408   3.256   3.415   5.675
 7488TIP3    H122409   3.276   3.387   5.767
 7488TIP3    H222410   3.345   3.415   5.635
 7489TIP3   OH222411   3.188   4.966   5.169
 7489TIP3    H122412   3.111   4.936   5.116
 7489TIP3    H222413   3.168   5.061   5.173
 7490TIP3   OH222414   3.723   4.644   4.403
 7490TIP3    H122415   3.730   4.553   4.429
 7490TIP3    H222416   3.817   4.660   4.378
 7491TIP3   OH222417   3.434   3.824   4.204
 7491TIP3    H122418   3.432   3.918   4.227
 7491TIP3    H222419   3.356   3.812   4.148
 7492TIP3   OH222420   4.355   5.109   4.016
 7492TIP3    H122421   4.398   5.035   3.969
 7492TIP3    H222422   4.326   5.066   4.098
 7493TIP3   OH222423   5.271   3.876   4.363
 7493TIP3    H122424   5.298   3.959   4.407
 7493TIP3    H222425   5.309   3.887   4.274
 7494TIP3   OH222426   4.668   4.073   4.393
 7494TIP3    H122427   4.699   3.982   4.405
 7494TIP3    H222428   4.641   4.069   4.299
 7495TIP3   OH222429   3.996   3.737   4.347
 7495TIP3    H122430   3.935   3.801   4.307
 7495TIP3    H222431   3.960   3.656   4.304
 7496TIP3   OH222432   4.704   3.801   3.974
 7496TIP3    H122433   4.774   3.789   4.042
 7496TIP3    H222434   4.748   3.862   3.913
 7497TIP3   OH222435   5.340   4.084   4.550
 7497TIP3    H122436   5.258   4.139   4.544
 7497TIP3    H222437   5.383   4.125   4.627
 7498TIP3   OH222438   4.003   3.704   4.800
 7498TIP3    H122439   3.950   3.740   4.725
 7498TIP3    H222440   3.946   3.731   4.875
 7499TIP3   OH222441   4.119   4.496   4.606
 7499TIP3    H122442   4.044   4.546   4.642
 7499TIP3    H222443   4.135   4.544   4.524
 7500TIP3   OH222444   4.906   3.794   4.158
 7500TIP3    H122445   4.864   3.774   4.243
 7500TIP3    H222446   4.963   3.869   4.180
 7501TIP3   OH222447   3.876   3.810   4.586
 7501TIP3    H122448   3.922   3.895   4.594
 7501TIP3    H222449   3.910   3.780   4.499
 7502TIP3   OH222450   3.931   4.685   4.683
 7502TIP3    H122451   3.916   4.774   4.644
 7502TIP3    H222452   3.851   4.676   4.739
 7503TIP3   OH222453   3.306   4.372   3.921
 7503TIP3    H122454   3.284   4.393   3.828
 7503TIP3    H222455   3.348   4.455   3.951
 7504TIP3   OH222456   4.780   4.900   4.165
 7504TIP3    H122457   4.694   4.884   4.211
 7504TIP3    H222458   4.762   4.986   4.123
 7505TIP3   OH222459   5.060   3.776   4.527
 7505TIP3    H122460   4.972   3.802   4.497
 7505TIP3    H222461   5.119   3.812   4.458
 7506TIP3   OH222462   4.360   3.426   4.515
 7506TIP3    H122463   4.336   3.332   4.521
 7506TIP3    H222464   4.282   3.468   4.556
 7507TIP3   OH222465   4.471   4.937   3.829
 7507TIP3    H122466   4.529   4.861   3.842
 7507TIP3    H222467   4.534   5.001   3.787
 7508TIP3   OH222468   5.005   4.789   4.485
 7508TIP3    H122469   4.993   4.727   4.412
 7508TIP3    H222470   4.982   4.874   4.442
 7509TIP3   OH222471   4.304   4.208   3.750
 7509TIP3    H122472   4.208   4.194   3.755
 7509TIP3    H222473   4.324   4.187   3.658
 7510TIP3   OH222474   4.242   3.978   3.467
 7510TIP3    H122475   4.308   4.022   3.523
 7510TIP3    H222476   4.299   3.913   3.421
 7511TIP3   OH222477   4.590   4.266   3.748
 7511TIP3    H122478   4.504   4.273   3.795
 7511TIP3    H222479   4.634   4.204   3.807
 7512TIP3   OH222480   4.861   4.308   4.658
 7512TIP3    H122481   4.857   4.392   4.706
 7512TIP3    H222482   4.773   4.308   4.613
 7513TIP3   OH222483   3.973   4.649   4.309
 7513TIP3    H122484   3.967   4.621   4.216
 7513TIP3    H222485   4.052   4.705   4.308
 7514TIP3   OH222486   4.549   4.906   4.303
 7514TIP3    H122487   4.517   4.989   4.343
 7514TIP3    H222488   4.535   4.841   4.373
 7515TIP3   OH222489   4.141   4.792   4.832
 7515TIP3    H122490   4.079   4.857   4.872
 7515TIP3    H222491   4.079   4.741   4.777
 7516TIP3   OH222492   4.476   4.115   3.547
 7516TIP3    H122493   4.518   4.182   3.605
 7516TIP3    H222494   4.505   4.145   3.458
 7517TIP3   OH222495   3.901   4.349   4.941
 7517TIP3    H122496   3.906   4.440   4.975
 7517TIP3    H222497   3.806   4.331   4.951
 7518TIP3   OH222498   4.202   4.831   3.829
 7518TIP3    H122499   4.286   4.874   3.849
 7518TIP3    H222500   4.148   4.901   3.792
 7519TIP3   OH222501   3.937   4.967   4.914
 7519TIP3    H122502   3.908   4.974   4.821
 7519TIP3    H222503   3.853   4.946   4.961
 7520TIP3   OH222504   4.990   3.369   3.609
 7520TIP3    H122505   4.909   3.392   3.660
 7520TIP3    H222506   5.006   3.453   3.561
 7521TIP3   OH222507   4.793   4.739   3.159
 7521TIP3    H122508   4.802   4.835   3.140
 7521TIP3    H222509   4.885   4.708   3.146
 7522TIP3   OH222510   3.514   4.498   4.862
 7522TIP3    H122511   3.449   4.470   4.795
 7522TIP3    H222512   3.552   4.413   4.893
 7523TIP3   OH222513   3.375   4.696   4.490
 7523TIP3    H122514   3.472   4.697   4.486
 7523TIP3    H222515   3.358   4.771   4.548
 7524TIP3   OH222516   5.227   5.143   4.544
 7524TIP3    H122517   5.234   5.046   4.557
 7524TIP3    H222518   5.147   5.163   4.596
 7525TIP3   OH222519   4.361   4.918   4.709
 7525TIP3    H122520   4.342   5.013   4.714
 7525TIP3    H222521   4.275   4.881   4.739
 7526TIP3   OH222522   4.101   5.059   3.635
 7526TIP3    H122523   4.049   5.041   3.554
 7526TIP3    H222524   4.066   5.146   3.663
 7527TIP3   OH222525   3.541   4.904   4.029
 7527TIP3    H122526   3.593   4.897   4.112
 7527TIP3    H222527   3.492   4.820   4.030
 7528TIP3   OH222528   4.302   4.959   3.277
 7528TIP3    H122529   4.360   4.888   3.242
 7528TIP3    H222530   4.334   4.968   3.369
 7529TIP3   OH222531   4.352   5.006   3.549
 7529TIP3    H122532   4.261   5.018   3.584
 7529TIP3    H222533   4.394   4.963   3.624
 7530TIP3   OH222534   5.112   4.260   4.838
 7530TIP3    H122535   5.041   4.279   4.776
 7530TIP3    H222536   5.128   4.165   4.823
 7531TIP3   OH222537   3.716   4.684   4.850
 7531TIP3    H122538   3.770   4.665   4.930
 7531TIP3    H222539   3.644   4.619   4.858
 7532TIP3   OH222540   4.118   3.499   4.638
 7532TIP3    H122541   4.027   3.476   4.609
 7532TIP3    H222542   4.099   3.585   4.680
 7533TIP3   OH222543   4.656   3.616   4.831
 7533TIP3    H122544   4.723   3.590   4.897
 7533TIP3    H222545   4.571   3.599   4.877
 7534TIP3   OH222546   4.889   4.046   4.749
 7534TIP3    H122547   4.838   4.044   4.834
 7534TIP3    H222548   4.863   4.133   4.712
 7535TIP3   OH222549   4.553   4.179   3.298
 7535TIP3    H122550   4.518   4.153   3.211
 7535TIP3    H222551   4.637   4.221   3.273
 7536TIP3   OH222552   4.263   3.550   3.611
 7536TIP3    H122553   4.227   3.559   3.702
 7536TIP3    H222554   4.220   3.467   3.583
 7537TIP3   OH222555   4.043   4.035   4.638
 7537TIP3    H122556   3.991   4.044   4.721
 7537TIP3    H222557   4.015   4.112   4.587
 7538TIP3   OH222558   4.465   4.023   3.894
 7538TIP3    H122559   4.385   4.078   3.881
 7538TIP3    H222560   4.456   3.957   3.823
 7539TIP3   OH222561   4.601   4.266   4.982
 7539TIP3    H122562   4.579   4.193   5.043
 7539TIP3    H222563   4.695   4.280   5.003
 7540TIP3   OH222564   4.592   4.008   4.140
 7540TIP3    H122565   4.539   4.063   4.078
 7540TIP3    H222566   4.606   3.930   4.085
 7541TIP3   OH222567   3.880   4.033   4.860
 7541TIP3    H122568   3.895   4.111   4.916
 7541TIP3    H222569   3.873   3.960   4.924
 7542TIP3   OH222570   3.913   3.524   3.576
 7542TIP3    H122571   3.911   3.534   3.674
 7542TIP3    H222572   3.841   3.586   3.552
 7543TIP3   OH222573   3.471   3.565   4.452
 7543TIP3    H122574   3.538   3.612   4.505
 7543TIP3    H222575   3.506   3.579   4.362
 7544TIP3   OH222576   3.426   3.547   3.964
 7544TIP3    H122577   3.470   3.580   3.883
 7544TIP3    H222578   3.377   3.628   3.989
 7545TIP3   OH222579   4.601   4.275   4.560
 7545TIP3    H122580   4.623   4.210   4.489
 7545TIP3    H222581   4.565   4.214   4.627
 7546TIP3   OH222582   4.265   3.677   4.251
 7546TIP3    H122583   4.175   3.703   4.278
 7546TIP3    H222584   4.320   3.734   4.306
 7547TIP3   OH222585   3.696   3.748   4.288
 7547TIP3    H122586   3.619   3.798   4.255
 7547TIP3    H222587   3.728   3.703   4.210
 7548TIP3   OH222588   4.759   3.799   4.429
 7548TIP3    H122589   4.728   3.820   4.520
 7548TIP3    H222590   4.685   3.741   4.401
 7549TIP3   OH222591   3.764   3.808   3.690
 7549TIP3    H122592   3.730   3.771   3.607
 7549TIP3    H222593   3.847   3.849   3.662
 7550TIP3   OH222594   4.927   5.493   4.653
 7550TIP3    H122595   4.926   5.513   4.558
 7550TIP3    H222596   5.010   5.538   4.682
 7551TIP3   OH222597   3.879   4.604   5.070
 7551TIP3    H122598   3.961   4.632   5.115
 7551TIP3    H222599   3.818   4.601   5.145
 7552TIP3   OH222600   3.887   3.536   4.203
 7552TIP3    H122601   3.842   3.458   4.241
 7552TIP3    H222602   3.912   3.507   4.114
 7553TIP3   OH222603   4.311   3.940   4.648
 7553TIP3    H122604   4.228   3.988   4.632
 7553TIP3    H222605   4.376   4.012   4.663
 7554TIP3   OH222606   4.031   4.357   3.705
 7554TIP3    H122607   3.975   4.276   3.699
 7554TIP3    H222608   4.059   4.354   3.798
 7555TIP3   OH222609   4.509   3.653   3.555
 7555TIP3    H122610   4.416   3.633   3.581
 7555TIP3    H222611   4.525   3.742   3.594
 7556TIP3   OH222612   4.453   4.659   4.731
 7556TIP3    H122613   4.479   4.646   4.823
 7556TIP3    H222614   4.420   4.751   4.731
 7557TIP3   OH222615   4.585   3.887   3.665
 7557TIP3    H122616   4.678   3.900   3.693
 7557TIP3    H222617   4.563   3.974   3.627
 7558TIP3   OH222618   4.198   4.488   3.518
 7558TIP3    H122619   4.158   4.576   3.533
 7558TIP3    H222620   4.155   4.438   3.590
 7559TIP3   OH222621   3.637   4.294   5.006
 7559TIP3    H122622   3.665   4.282   5.099
 7559TIP3    H222623   3.559   4.234   5.002
 7560TIP3   OH222624   4.359   4.401   5.020
 7560TIP3    H122625   4.297   4.344   4.972
 7560TIP3    H222626   4.445   4.365   4.990
 7561TIP3   OH222627   4.624   4.943   4.606
 7561TIP3    H122628   4.530   4.921   4.622
 7561TIP3    H222629   4.646   4.987   4.690
 7562TIP3   OH222630   5.027   4.002   3.511
 7562TIP3    H122631   4.965   3.952   3.453
 7562TIP3    H222632   5.021   4.088   3.465
 7563TIP3   OH222633   5.261   4.857   4.572
 7563TIP3    H122634   5.168   4.834   4.551
 7563TIP3    H222635   5.310   4.812   4.500
 7564TIP3   OH222636   4.728   4.804   3.423
 7564TIP3    H122637   4.695   4.724   3.466
 7564TIP3    H222638   4.744   4.773   3.332
 7565TIP3   OH222639   3.842   4.674   4.030
 7565TIP3    H122640   3.869   4.740   3.965
 7565TIP3    H222641   3.748   4.663   4.011
 7566TIP3   OH222642   3.399   3.953   3.708
 7566TIP3    H122643   3.448   4.038   3.718
 7566TIP3    H222644   3.333   3.963   3.780
 7567TIP3   OH222645   3.763   4.918   3.855
 7567TIP3    H122646   3.683   4.921   3.911
 7567TIP3    H222647   3.799   5.009   3.867
 7568TIP3   OH222648   4.546   4.667   4.477
 7568TIP3    H122649   4.502   4.659   4.564
 7568TIP3    H222650   4.613   4.598   4.483
 7569TIP3   OH222651   4.483   4.545   3.323
 7569TIP3    H122652   4.537   4.517   3.400
 7569TIP3    H222653   4.395   4.516   3.353
 7570TIP3   OH222654   4.755   5.180   4.493
 7570TIP3    H122655   4.681   5.115   4.495
 7570TIP3    H222656   4.730   5.238   4.418
 7571TIP3   OH222657   4.823   5.015   3.141
 7571TIP3    H122658   4.862   5.091   3.094
 7571TIP3    H222659   4.742   5.058   3.175
 7572TIP3   OH222660   3.843   3.789   5.015
 7572TIP3    H122661   3.747   3.791   5.025
 7572TIP3    H222662   3.871   3.731   5.088
 7573TIP3   OH222663   4.652   4.472   3.532
 7573TIP3    H122664   4.625   4.414   3.606
 7573TIP3    H222665   4.748   4.456   3.528
 7574TIP3   OH222666   3.560   4.873   4.640
 7574TIP3    H122667   3.618   4.806   4.681
 7574TIP3    H222668   3.590   4.954   4.684
 7575TIP3   OH222669   3.845   4.521   3.324
 7575TIP3    H122670   3.862   4.428   3.300
 7575TIP3    H222671   3.828   4.512   3.420
 7576TIP3   OH222672   3.795   4.524   3.597
 7576TIP3    H122673   3.876   4.490   3.639
 7576TIP3    H222674   3.804   4.621   3.610
 7577TIP3   OH222675   3.493   4.201   3.747
 7577TIP3    H122676   3.458   4.243   3.826
 7577TIP3    H222677   3.538   4.275   3.703
 7578TIP3   OH222678   4.685   3.854   4.689
 7578TIP3    H122679   4.764   3.895   4.730
 7578TIP3    H222680   4.671   3.774   4.744
 7579TIP3   OH222681   4.569   3.597   3.856
 7579TIP3    H122682   4.549   3.630   3.767
 7579TIP3    H222683   4.611   3.676   3.897
 7580TIP3   OH222684   4.059   4.722   3.535
 7580TIP3    H122685   3.976   4.744   3.581
 7580TIP3    H222686   4.075   4.804   3.487
 7581TIP3   OH222687   4.522   4.106   4.758
 7581TIP3    H122688   4.546   4.156   4.839
 7581TIP3    H222689   4.572   4.023   4.769
 7582TIP3   OH222690   4.381   3.514   4.056
 7582TIP3    H122691   4.358   3.587   4.118
 7582TIP3    H222692   4.449   3.556   3.999
 7583TIP3   OH222693   3.806   4.799   3.613
 7583TIP3    H122694   3.775   4.870   3.552
 7583TIP3    H222695   3.789   4.841   3.700
 7584TIP3   OH222696   3.903   3.538   3.853
 7584TIP3    H122697   3.900   3.633   3.879
 7584TIP3    H222698   3.999   3.523   3.862
 7585TIP3   OH222699   5.153   3.994   4.761
 7585TIP3    H122700   5.054   3.994   4.760
 7585TIP3    H222701   5.171   3.971   4.669
 7586TIP3   OH222702   3.525   4.439   3.589
 7586TIP3    H122703   3.604   4.495   3.604
 7586TIP3    H222704   3.565   4.375   3.526
 7587TIP3   OH222705   3.456   3.683   3.730
 7587TIP3    H122706   3.489   3.774   3.732
 7587TIP3    H222707   3.367   3.697   3.697
 7588TIP3   OH222708   4.777   5.164   4.080
 7588TIP3    H122709   4.734   5.210   4.004
 7588TIP3    H222710   4.871   5.185   4.061
 7589TIP3   OH222711   3.847   3.428   4.610
 7589TIP3    H122712   3.821   3.399   4.520
 7589TIP3    H222713   3.837   3.346   4.662
 7590TIP3   OH222714   3.392   4.640   3.988
 7590TIP3    H122715   3.326   4.672   4.051
 7590TIP3    H222716   3.361   4.684   3.905
 7591TIP3   OH222717   3.552   5.189   5.065
 7591TIP3    H122718   3.640   5.188   5.109
 7591TIP3    H222719   3.533   5.094   5.060
 7592TIP3   OH222720   4.028   5.142   5.109
 7592TIP3    H122721   4.123   5.125   5.112
 7592TIP3    H222722   4.002   5.084   5.034
 7593TIP3   OH222723   4.009   4.721   3.230
 7593TIP3    H122724   3.952   4.653   3.274
 7593TIP3    H222725   4.087   4.666   3.209
 7594TIP3   OH222726   4.667   5.062   4.850
 7594TIP3    H122727   4.661   4.988   4.914
 7594TIP3    H222728   4.748   5.108   4.878
 7595TIP3   OH222729   4.448   4.762   3.150
 7595TIP3    H122730   4.482   4.693   3.211
 7595TIP3    H222731   4.507   4.754   3.073
 7596TIP3   OH222732   3.681   4.592   5.266
 7596TIP3    H122733   3.697   4.496   5.273
 7596TIP3    H222734   3.595   4.594   5.219
 7597TIP3   OH222735   3.657   4.240   3.459
 7597TIP3    H122736   3.704   4.198   3.533
 7597TIP3    H222737   3.728   4.244   3.392
 7598TIP3   OH222738   4.284   4.677   5.038
 7598TIP3    H122739   4.245   4.700   4.951
 7598TIP3    H222740   4.315   4.585   5.024
 7599TIP3   OH222741   4.168   4.438   3.254
 7599TIP3    H122742   4.170   4.452   3.352
 7599TIP3    H222743   4.169   4.340   3.252
 7600TIP3   OH222744   4.789   4.689   4.643
 7600TIP3    H122745   4.864   4.733   4.598
 7600TIP3    H222746   4.715   4.748   4.619
 7601TIP3   OH222747   3.799   4.327   5.246
 7601TIP3    H122748   3.879   4.283   5.214
 7601TIP3    H222749   3.828   4.358   5.335
 7602TIP3   OH222750   3.884   4.127   3.700
 7602TIP3    H122751   3.920   4.075   3.776
 7602TIP3    H222752   3.900   4.061   3.629
 7603TIP3   OH222753   4.138   4.210   4.913
 7603TIP3    H122754   4.058   4.266   4.909
 7603TIP3    H222755   4.187   4.239   4.833
 7604TIP3   OH222756   3.960   3.939   3.515
 7604TIP3    H122757   3.942   3.947   3.420
 7604TIP3    H222758   4.057   3.939   3.517
 7605TIP3   OH222759   4.653   4.612   5.041
 7605TIP3    H122760   4.728   4.581   4.989
 7605TIP3    H222761   4.648   4.545   5.111
 7606TIP3   OH222762   4.788   4.269   3.184
 7606TIP3    H122763   4.768   4.224   3.099
 7606TIP3    H222764   4.753   4.359   3.162
 7607TIP3   OH222765   4.260   3.998   5.031
 7607TIP3    H122766   4.259   3.920   4.973
 7607TIP3    H222767   4.217   4.066   4.975
 7608TIP3   OH222768   4.260   3.775   4.855
 7608TIP3    H122769   4.287   3.826   4.776
 7608TIP3    H222770   4.166   3.755   4.833
 7609TIP3   OH222771   4.285   4.313   4.716
 7609TIP3    H122772   4.371   4.329   4.675
 7609TIP3    H222773   4.228   4.381   4.673
 7610TIP3   OH222774   4.869   4.286   5.092
 7610TIP3    H122775   4.919   4.203   5.096
 7610TIP3    H222776   4.934   4.345   5.050
 7611TIP3   OH222777   4.911   4.541   4.832
 7611TIP3    H122778   4.857   4.597   4.772
 7611TIP3    H222779   5.001   4.559   4.794
 7612TIP3   OH222780   4.139   4.104   5.267
 7612TIP3    H122781   4.069   4.037   5.279
 7612TIP3    H222782   4.170   4.083   5.176
 7613TIP3   OH222783   4.394   3.543   4.912
 7613TIP3    H122784   4.346   3.626   4.890
 7613TIP3    H222785   4.325   3.476   4.896
 7614TIP3   OH222786   4.519   4.047   5.124
 7614TIP3    H122787   4.501   4.035   5.219
 7614TIP3    H222788   4.431   4.026   5.087
 7615TIP3   OH222789   4.758   4.000   4.980
 7615TIP3    H122790   4.682   4.002   5.042
 7615TIP3    H222791   4.832   3.972   5.037
 7616TIP3   OH222792   4.988   3.944   5.130
 7616TIP3    H122793   5.000   3.848   5.146
 7616TIP3    H222794   4.983   3.980   5.221
 7617TIP3   OH222795   3.972   3.886   5.320
 7617TIP3    H122796   3.984   3.797   5.284
 7617TIP3    H222797   4.010   3.876   5.410
 7618TIP3   OH222798   4.483   3.553   5.171
 7618TIP3    H122799   4.551   3.484   5.161
 7618TIP3    H222800   4.445   3.553   5.081
 7619TIP3   OH222801   4.551   3.770   5.328
 7619TIP3    H122802   4.530   3.700   5.262
 7619TIP3    H222803   4.475   3.831   5.320
 7620TIP3   OH222804   3.776   5.006   3.425
 7620TIP3    H122805   3.871   4.992   3.406
 7620TIP3    H222806   3.750   5.056   3.345
 7621TIP3   OH222807   3.258   4.385   3.639
 7621TIP3    H122808   3.352   4.409   3.622
 7621TIP3    H222809   3.255   4.295   3.601
 7622TIP3   OH222810   3.170   4.995   4.058
 7622TIP3    H122811   3.105   4.933   4.018
 7622TIP3    H222812   3.215   4.936   4.122
 7623TIP3   OH222813   3.305   4.841   4.243
 7623TIP3    H122814   3.297   4.772   4.311
 7623TIP3    H222815   3.360   4.905   4.291
 7624TIP3   OH222816   5.031   5.257   4.043
 7624TIP3    H122817   5.060   5.276   4.134
 7624TIP3    H222818   5.108   5.283   3.990
 7625TIP3   OH222819   5.067   5.264   4.325
 7625TIP3    H122820   5.016   5.180   4.322
 7625TIP3    H222821   5.137   5.236   4.386
 7626TIP3   OH222822   5.106   4.943   4.898
 7626TIP3    H122823   5.036   4.953   4.964
 7626TIP3    H222824   5.151   5.030   4.902
 7627TIP3   OH222825   4.936   4.452   3.530
 7627TIP3    H122826   4.994   4.517   3.484
 7627TIP3    H222827   4.970   4.457   3.620
 7628TIP3   OH222828   4.937   5.021   4.350
 7628TIP3    H122829   4.864   5.060   4.401
 7628TIP3    H222830   4.889   4.974   4.279
 7629TIP3   OH222831   4.989   4.233   3.366
 7629TIP3    H122832   4.917   4.234   3.298
 7629TIP3    H222833   4.960   4.308   3.422
 7630TIP3   OH222834   4.865   3.902   3.314
 7630TIP3    H122835   4.812   3.936   3.241
 7630TIP3    H222836   4.843   3.806   3.310
 7631TIP3   OH222837   5.157   4.603   4.726
 7631TIP3    H122838   5.230   4.537   4.720
 7631TIP3    H222839   5.182   4.659   4.651
 7632TIP3   OH222840   5.338   4.404   4.804
 7632TIP3    H122841   5.257   4.349   4.812
 7632TIP3    H222842   5.404   4.337   4.780
 7633TIP3   OH222843   4.806   3.635   3.298
 7633TIP3    H122844   4.876   3.606   3.359
 7633TIP3    H222845   4.729   3.581   3.324
 7634TIP3   OH222846   4.856   3.893   3.744
 7634TIP3    H122847   4.895   3.805   3.767
 7634TIP3    H222848   4.924   3.928   3.685
 7635TIP3   OH222849   5.099   4.237   4.529
 7635TIP3    H122850   5.010   4.248   4.570
 7635TIP3    H222851   5.089   4.294   4.452
 7636TIP3   OH222852   3.705   3.933   5.276
 7636TIP3    H122853   3.803   3.932   5.284
 7636TIP3    H222854   3.683   3.849   5.322
 7637TIP3   OH222855   5.546   3.807   5.043
 7637TIP3    H122856   5.605   3.743   4.998
 7637TIP3    H222857   5.511   3.859   4.967
 7638TIP3   OH222858   4.974   3.647   3.795
 7638TIP3    H122859   5.018   3.633   3.881
 7638TIP3    H222860   4.909   3.574   3.796
 7639TIP3   OH222861   3.661   3.643   4.650
 7639TIP3    H122862   3.723   3.568   4.639
 7639TIP3    H222863   3.720   3.715   4.620
 7640TIP3   OH222864   5.410   3.939   4.851
 7640TIP3    H122865   5.326   3.985   4.873
 7640TIP3    H222866   5.376   3.871   4.791
 7641TIP3   OH222867   5.047   3.578   3.432
 7641TIP3    H122868   5.090   3.509   3.378
 7641TIP3    H222869   5.114   3.650   3.432
 7642TIP3   OH222870   3.451   3.386   4.179
 7642TIP3    H122871   3.364   3.400   4.221
 7642TIP3    H222872   3.452   3.458   4.112
 7643TIP3   OH222873   4.625   5.112   3.695
 7643TIP3    H122874   4.678   5.109   3.613
 7643TIP3    H222875   4.671   5.180   3.748
 7644TIP3   OH222876   3.675   3.473   5.006
 7644TIP3    H122877   3.629   3.489   5.090
 7644TIP3    H222878   3.614   3.518   4.944
 7645TIP3   OH222879   3.712   4.924   5.080
 7645TIP3    H122880   3.621   4.894   5.065
 7645TIP3    H222881   3.728   4.896   5.170
 7646TIP3   OH222882   3.908   4.958   4.620
 7646TIP3    H122883   3.857   5.036   4.588
 7646TIP3    H222884   3.984   4.970   4.559
 7647TIP3   OH222885   4.336   5.199   4.771
 7647TIP3    H122886   4.383   5.194   4.856
 7647TIP3    H222887   4.401   5.246   4.716
 7648TIP3   OH222888   4.521   5.344   4.629
 7648TIP3    H122889   4.590   5.290   4.589
 7648TIP3    H222890   4.574   5.402   4.689
 7649TIP3   OH222891   5.312   3.707   4.726
 7649TIP3    H122892   5.222   3.704   4.689
 7649TIP3    H222893   5.341   3.613   4.715
 7650TIP3   OH222894   3.549   5.200   4.662
 7650TIP3    H122895   3.462   5.242   4.644
 7650TIP3    H222896   3.575   5.246   4.742
 7651TIP3   OH222897   3.784   5.178   4.522
 7651TIP3    H122898   3.694   5.199   4.553
 7651TIP3    H222899   3.786   5.214   4.432
 7652TIP3   OH222900   4.481   5.166   4.374
 7652TIP3    H122901   4.385   5.167   4.382
 7652TIP3    H222902   4.500   5.249   4.329
 7653TIP3   OH222903   4.721   5.351   4.277
 7653TIP3    H122904   4.700   5.430   4.224
 7653TIP3    H222905   4.736   5.283   4.207
 7654TIP3   OH222906   3.483   4.997   4.397
 7654TIP3    H122907   3.511   4.973   4.488
 7654TIP3    H222908   3.558   4.958   4.348
 7655TIP3   OH222909   3.684   4.874   4.261
 7655TIP3    H122910   3.692   4.788   4.307
 7655TIP3    H222911   3.776   4.903   4.261
 7656TIP3   OH222912   4.545   3.625   4.372
 7656TIP3    H122913   4.477   3.563   4.404
 7656TIP3    H222914   4.595   3.571   4.309
 7657TIP3   OH222915   5.043   3.496   4.247
 7657TIP3    H122916   5.076   3.553   4.175
 7657TIP3    H222917   4.947   3.518   4.245
 7658TIP3   OH222918   5.138   3.598   4.012
 7658TIP3    H122919   5.212   3.547   3.972
 7658TIP3    H222920   5.171   3.690   3.999
 7659TIP3   OH222921   3.767   3.326   4.364
 7659TIP3    H122922   3.674   3.298   4.365
 7659TIP3    H222923   3.813   3.240   4.357
 7660TIP3   OH222924   3.557   3.198   4.006
 7660TIP3    H122925   3.587   3.259   3.937
 7660TIP3    H222926   3.524   3.261   4.075
 7661TIP3   OH222927   4.218   3.355   4.246
 7661TIP3    H122928   4.261   3.411   4.179
 7661TIP3    H222929   4.223   3.414   4.323
 7662TIP3   OH222930   4.765   3.507   4.222
 7662TIP3    H122931   4.747   3.474   4.134
 7662TIP3    H222932   4.746   3.428   4.278
 7663TIP3   OH222933   4.787   3.436   3.789
 7663TIP3    H122934   4.704   3.484   3.808
 7663TIP3    H222935   4.769   3.351   3.833
 7664TIP3   OH222936   3.269   4.775   3.789
 7664TIP3    H122937   3.184   4.741   3.756
 7664TIP3    H222938   3.260   4.869   3.765
 7665TIP3   OH222939   3.674   3.357   3.778
 7665TIP3    H122940   3.728   3.304   3.717
 7665TIP3    H222941   3.740   3.422   3.811
 7666TIP3   OH222942   4.173   3.570   3.875
 7666TIP3    H122943   4.242   3.549   3.941
 7666TIP3    H222944   4.137   3.655   3.909
 7667TIP3   OH222945   4.041   4.956   3.369
 7667TIP3    H122946   4.129   4.978   3.333
 7667TIP3    H222947   4.019   4.880   3.311
 7668TIP3   OH222948   4.768   5.076   3.461
 7668TIP3    H122949   4.756   4.979   3.454
 7668TIP3    H222950   4.717   5.107   3.383
 7669TIP3   OH222951   3.973   3.603   5.247
 7669TIP3    H122952   3.938   3.536   5.309
 7669TIP3    H222953   4.067   3.607   5.276
 7670TIP3   OH222954   4.222   3.607   5.370
 7670TIP3    H122955   4.308   3.589   5.328
 7670TIP3    H222956   4.215   3.535   5.435
 7671TIP3   OH222957   3.347   4.796   3.427
 7671TIP3    H122958   3.351   4.810   3.522
 7671TIP3    H222959   3.433   4.752   3.409
 7672TIP3   OH222960   5.051   3.671   5.159
 7672TIP3    H122961   5.069   3.641   5.251
 7672TIP3    H222962   5.140   3.667   5.119
 7673TIP3   OH222963   4.982   5.222   4.654
 7673TIP3    H122964   4.905   5.191   4.603
 7673TIP3    H222965   4.962   5.317   4.660
 7674TIP3   OH222966   5.517   4.921   3.880
 7674TIP3    H122967   5.491   4.829   3.881
 7674TIP3    H222968   5.614   4.919   3.886
 7675TIP3   OH222969   5.232   4.091   3.684
 7675TIP3    H122970   5.207   4.182   3.698
 7675TIP3    H222971   5.157   4.055   3.634
 7676TIP3   OH222972   6.152   5.359   3.497
 7676TIP3    H122973   6.194   5.285   3.448
 7676TIP3    H222974   6.136   5.319   3.583
 7677TIP3   OH222975   6.033   4.832   3.836
 7677TIP3    H122976   6.043   4.752   3.782
 7677TIP3    H222977   6.125   4.850   3.863
 7678TIP3   OH222978   7.069   4.141   3.845
 7678TIP3    H122979   7.097   4.224   3.887
 7678TIP3    H222980   7.092   4.158   3.752
 7679TIP3   OH222981   6.476   4.304   3.887
 7679TIP3    H122982   6.530   4.248   3.945
 7679TIP3    H222983   6.449   4.237   3.824
 7680TIP3   OH222984   5.760   3.964   3.856
 7680TIP3    H122985   5.721   4.035   3.802
 7680TIP3    H222986   5.732   3.887   3.803
 7681TIP3   OH222987   6.497   4.062   3.459
 7681TIP3    H122988   6.564   4.059   3.531
 7681TIP3    H222989   6.547   4.109   3.390
 7682TIP3   OH222990   7.142   4.350   4.017
 7682TIP3    H122991   7.056   4.394   3.998
 7682TIP3    H222992   7.164   4.390   4.103
 7683TIP3   OH222993   5.801   3.961   4.288
 7683TIP3    H122994   5.747   4.003   4.217
 7683TIP3    H222995   5.745   3.984   4.365
 7684TIP3   OH222996   6.105   4.807   3.310
 7684TIP3    H122997   6.121   4.798   3.216
 7684TIP3    H222998   6.068   4.896   3.318
 7685TIP3   OH222999   5.923   4.758   4.104
 7685TIP3    H123000   5.841   4.796   4.141
 7685TIP3    H223001   5.925   4.795   4.014
 7686TIP3   OH223002   6.697   4.088   3.644
 7686TIP3    H123003   6.684   4.037   3.725
 7686TIP3    H223004   6.760   4.157   3.672
 7687TIP3   OH223005   5.663   4.072   4.084
 7687TIP3    H123006   5.701   4.162   4.083
 7687TIP3    H223007   5.701   4.035   4.001
 7688TIP3   OH223008   5.714   4.918   4.192
 7688TIP3    H123009   5.666   5.001   4.182
 7688TIP3    H223010   5.652   4.866   4.249
 7689TIP3   OH223011   5.120   4.627   3.408
 7689TIP3    H123012   5.085   4.656   3.322
 7689TIP3    H223013   5.156   4.711   3.443
 7690TIP3   OH223014   6.576   5.151   3.673
 7690TIP3    H123015   6.484   5.128   3.698
 7690TIP3    H223016   6.561   5.222   3.609
 7691TIP3   OH223017   6.863   4.037   4.012
 7691TIP3    H123018   6.774   4.061   3.981
 7691TIP3    H223019   6.920   4.072   3.941
 7692TIP3   OH223020   6.157   3.684   4.001
 7692TIP3    H123021   6.134   3.590   4.012
 7692TIP3    H223022   6.078   3.726   4.043
 7693TIP3   OH223023   6.271   5.175   3.323
 7693TIP3    H123024   6.324   5.095   3.337
 7693TIP3    H223025   6.337   5.235   3.281
 7694TIP3   OH223026   6.791   5.058   3.994
 7694TIP3    H123027   6.787   4.981   3.934
 7694TIP3    H223028   6.777   5.133   3.933
 7695TIP3   OH223029   6.067   4.425   3.236
 7695TIP3    H123030   6.003   4.498   3.230
 7695TIP3    H223031   6.132   4.448   3.168
 7696TIP3   OH223032   6.038   4.237   2.956
 7696TIP3    H123033   6.097   4.285   3.017
 7696TIP3    H223034   6.102   4.175   2.914
 7697TIP3   OH223035   6.989   4.686   3.837
 7697TIP3    H123036   6.907   4.739   3.841
 7697TIP3    H223037   7.022   4.713   3.748
 7698TIP3   OH223038   6.414   4.508   3.247
 7698TIP3    H123039   6.411   4.604   3.270
 7698TIP3    H223040   6.508   4.493   3.270
 7699TIP3   OH223041   6.678   4.568   4.141
 7699TIP3    H123042   6.674   4.650   4.196
 7699TIP3    H223043   6.587   4.569   4.102
 7700TIP3   OH223044   5.788   4.943   3.780
 7700TIP3    H123045   5.782   4.915   3.688
 7700TIP3    H223046   5.878   4.911   3.805
 7701TIP3   OH223047   6.323   5.129   3.771
 7701TIP3    H123048   6.315   5.214   3.818
 7701TIP3    H223049   6.302   5.064   3.840
 7702TIP3   OH223050   5.934   5.055   4.307
 7702TIP3    H123051   5.875   5.110   4.362
 7702TIP3    H223052   5.868   4.992   4.269
 7703TIP3   OH223053   6.276   4.385   3.048
 7703TIP3    H123054   6.327   4.447   3.106
 7703TIP3    H223055   6.303   4.413   2.958
 7704TIP3   OH223056   6.011   5.073   3.318
 7704TIP3    H123057   6.098   5.117   3.327
 7704TIP3    H223058   5.956   5.141   3.278
 7705TIP3   OH223059   5.733   5.228   4.405
 7705TIP3    H123060   5.698   5.224   4.314
 7705TIP3    H223061   5.655   5.201   4.458
 7706TIP3   OH223062   6.788   3.626   3.096
 7706TIP3    H123063   6.706   3.648   3.146
 7706TIP3    H223064   6.803   3.709   3.046
 7707TIP3   OH223065   5.549   4.367   3.421
 7707TIP3    H123066   5.467   4.402   3.382
 7707TIP3    H223067   5.517   4.294   3.476
 7708TIP3   OH223068   6.588   4.994   2.646
 7708TIP3    H123069   6.597   5.090   2.629
 7708TIP3    H223070   6.680   4.964   2.632
 7709TIP3   OH223071   5.169   4.969   3.947
 7709TIP3    H123072   5.250   4.929   3.979
 7709TIP3    H223073   5.137   5.014   4.026
 7710TIP3   OH223074   7.029   5.400   4.039
 7710TIP3    H123075   7.028   5.304   4.056
 7710TIP3    H223076   6.946   5.426   4.085
 7711TIP3   OH223077   6.129   5.186   4.168
 7711TIP3    H123078   6.128   5.277   4.206
 7711TIP3    H223079   6.059   5.143   4.221
 7712TIP3   OH223080   5.900   5.313   3.124
 7712TIP3    H123081   5.850   5.294   3.043
 7712TIP3    H223082   5.864   5.400   3.152
 7713TIP3   OH223083   5.334   5.161   3.507
 7713TIP3    H123084   5.382   5.158   3.593
 7713TIP3    H223085   5.281   5.080   3.512
 7714TIP3   OH223086   6.098   5.215   2.763
 7714TIP3    H123087   6.156   5.144   2.728
 7714TIP3    H223088   6.133   5.224   2.855
 7715TIP3   OH223089   6.151   5.263   3.034
 7715TIP3    H123090   6.061   5.274   3.073
 7715TIP3    H223091   6.197   5.218   3.106
 7716TIP3   OH223092   6.921   4.525   4.317
 7716TIP3    H123093   6.835   4.540   4.274
 7716TIP3    H223094   6.933   4.429   4.302
 7717TIP3   OH223095   5.916   3.758   4.124
 7717TIP3    H123096   5.826   3.732   4.094
 7717TIP3    H223097   5.893   3.842   4.168
 7718TIP3   OH223098   6.448   3.873   4.317
 7718TIP3    H123099   6.515   3.848   4.383
 7718TIP3    H223100   6.363   3.856   4.364
 7719TIP3   OH223101   6.691   4.308   4.240
 7719TIP3    H123102   6.637   4.301   4.322
 7719TIP3    H223103   6.667   4.396   4.207
 7720TIP3   OH223104   6.345   4.428   2.787
 7720TIP3    H123105   6.316   4.406   2.697
 7720TIP3    H223106   6.426   4.478   2.771
 7721TIP3   OH223107   6.061   3.804   3.091
 7721TIP3    H123108   6.028   3.799   3.182
 7721TIP3    H223109   6.020   3.723   3.055
 7722TIP3   OH223110   5.850   4.295   4.125
 7722TIP3    H123111   5.795   4.301   4.206
 7722TIP3    H223112   5.823   4.374   4.076
 7723TIP3   OH223113   6.217   4.250   3.383
 7723TIP3    H123114   6.165   4.322   3.340
 7723TIP3    H223115   6.286   4.233   3.317
 7724TIP3   OH223116   6.396   4.521   4.463
 7724TIP3    H123117   6.372   4.452   4.529
 7724TIP3    H223118   6.483   4.548   4.496
 7725TIP3   OH223119   5.684   4.284   4.342
 7725TIP3    H123120   5.659   4.368   4.382
 7725TIP3    H223121   5.670   4.219   4.414
 7726TIP3   OH223122   5.716   3.783   3.060
 7726TIP3    H123123   5.707   3.781   3.157
 7726TIP3    H223124   5.639   3.838   3.035
 7727TIP3   OH223125   5.262   3.823   3.935
 7727TIP3    H123126   5.333   3.861   3.991
 7727TIP3    H223127   5.306   3.809   3.851
 7728TIP3   OH223128   5.223   3.804   3.447
 7728TIP3    H123129   5.273   3.840   3.371
 7728TIP3    H223130   5.168   3.881   3.470
 7729TIP3   OH223131   6.424   4.522   4.045
 7729TIP3    H123132   6.442   4.442   3.993
 7729TIP3    H223133   6.377   4.482   4.121
 7730TIP3   OH223134   5.515   4.047   3.714
 7730TIP3    H123135   5.418   4.059   3.713
 7730TIP3    H223136   5.527   3.955   3.689
 7731TIP3   OH223137   5.771   4.016   3.395
 7731TIP3    H123138   5.853   4.055   3.362
 7731TIP3    H223139   5.705   4.051   3.331
 7732TIP3   OH223140   6.557   4.040   3.916
 7732TIP3    H123141   6.526   4.054   4.009
 7732TIP3    H223142   6.483   3.989   3.880
 7733TIP3   OH223143   5.602   4.072   3.190
 7733TIP3    H123144   5.532   4.027   3.139
 7733TIP3    H223145   5.656   4.109   3.118
 7734TIP3   OH223146   6.724   5.750   4.139
 7734TIP3    H123147   6.724   5.773   4.045
 7734TIP3    H223148   6.806   5.793   4.170
 7735TIP3   OH223149   5.707   4.902   4.568
 7735TIP3    H123150   5.771   4.902   4.641
 7735TIP3    H223151   5.628   4.864   4.608
 7736TIP3   OH223152   5.656   3.784   3.684
 7736TIP3    H123153   5.621   3.708   3.735
 7736TIP3    H223154   5.699   3.741   3.609
 7737TIP3   OH223155   6.112   4.204   4.127
 7737TIP3    H123156   6.023   4.244   4.115
 7737TIP3    H223157   6.166   4.280   4.156
 7738TIP3   OH223158   5.850   4.603   3.193
 7738TIP3    H123159   5.782   4.533   3.183
 7738TIP3    H223160   5.832   4.634   3.285
 7739TIP3   OH223161   6.764   4.844   3.820
 7739TIP3    H123162   6.802   4.896   3.746
 7739TIP3    H223163   6.670   4.844   3.797
 7740TIP3   OH223164   6.311   3.911   3.059
 7740TIP3    H123165   6.215   3.893   3.072
 7740TIP3    H223166   6.320   4.004   3.090
 7741TIP3   OH223167   6.260   4.928   4.186
 7741TIP3    H123168   6.274   4.889   4.274
 7741TIP3    H223169   6.209   5.008   4.206
 7742TIP3   OH223170   6.382   4.157   3.164
 7742TIP3    H123171   6.477   4.171   3.182
 7742TIP3    H223172   6.357   4.240   3.118
 7743TIP3   OH223173   5.998   4.748   3.012
 7743TIP3    H123174   5.951   4.834   3.023
 7743TIP3    H223175   5.951   4.694   3.079
 7744TIP3   OH223176   5.361   4.556   4.537
 7744TIP3    H123177   5.446   4.582   4.576
 7744TIP3    H223178   5.381   4.468   4.504
 7745TIP3   OH223179   6.156   4.660   4.508
 7745TIP3    H123180   6.092   4.602   4.464
 7745TIP3    H223181   6.241   4.623   4.475
 7746TIP3   OH223182   6.409   5.183   4.086
 7746TIP3    H123183   6.314   5.176   4.107
 7746TIP3    H223184   6.441   5.232   4.165
 7747TIP3   OH223185   6.822   4.252   3.000
 7747TIP3    H123186   6.761   4.208   2.936
 7747TIP3    H223187   6.817   4.343   2.962
 7748TIP3   OH223188   7.043   5.109   4.082
 7748TIP3    H123189   6.945   5.105   4.074
 7748TIP3    H223190   7.068   5.080   3.991
 7749TIP3   OH223191   6.524   5.066   2.912
 7749TIP3    H123192   6.509   4.991   2.971
 7749TIP3    H223193   6.536   5.022   2.826
 7750TIP3   OH223194   5.649   4.926   3.502
 7750TIP3    H123195   5.650   5.007   3.446
 7750TIP3    H223196   5.554   4.913   3.512
 7751TIP3   OH223197   5.212   4.229   3.204
 7751TIP3    H123198   5.260   4.311   3.228
 7751TIP3    H223199   5.136   4.234   3.266
 7752TIP3   OH223200   5.770   4.683   3.440
 7752TIP3    H123201   5.739   4.775   3.455
 7752TIP3    H223202   5.796   4.655   3.528
 7753TIP3   OH223203   5.915   5.267   3.966
 7753TIP3    H123204   5.962   5.340   3.921
 7753TIP3    H223205   5.987   5.229   4.020
 7754TIP3   OH223206   5.565   5.166   3.349
 7754TIP3    H123207   5.480   5.173   3.397
 7754TIP3    H223208   5.596   5.260   3.354
 7755TIP3   OH223209   6.316   4.865   3.929
 7755TIP3    H123210   6.275   4.882   4.018
 7755TIP3    H223211   6.408   4.872   3.958
 7756TIP3   OH223212   6.277   4.799   2.804
 7756TIP3    H123213   6.336   4.765   2.876
 7756TIP3    H223214   6.190   4.773   2.840
 7757TIP3   OH223215   6.551   5.437   3.976
 7757TIP3    H123216   6.473   5.377   3.970
 7757TIP3    H223217   6.532   5.501   3.905
 7758TIP3   OH223218   6.619   5.270   2.628
 7758TIP3    H123219   6.656   5.344   2.577
 7758TIP3    H223220   6.538   5.313   2.662
 7759TIP3   OH223221   5.637   4.041   4.504
 7759TIP3    H123222   5.541   4.043   4.517
 7759TIP3    H223223   5.666   3.983   4.576
 7760TIP3   OH223224   6.443   4.720   3.004
 7760TIP3    H123225   6.432   4.738   3.100
 7760TIP3    H223226   6.540   4.708   3.001
 7761TIP3   OH223227   5.355   5.129   4.129
 7761TIP3    H123228   5.396   5.049   4.165
 7761TIP3    H223229   5.387   5.196   4.191
 7762TIP3   OH223230   5.642   4.778   2.810
 7762TIP3    H123231   5.658   4.685   2.785
 7762TIP3    H223232   5.623   4.768   2.906
 7763TIP3   OH223233   5.588   4.782   3.082
 7763TIP3    H123234   5.663   4.750   3.133
 7763TIP3    H223235   5.595   4.880   3.094
 7764TIP3   OH223236   5.320   4.472   3.290
 7764TIP3    H123237   5.255   4.519   3.345
 7764TIP3    H223238   5.338   4.539   3.222
 7765TIP3   OH223239   6.491   4.103   4.171
 7765TIP3    H123240   6.554   4.149   4.229
 7765TIP3    H223241   6.465   4.027   4.227
 7766TIP3   OH223242   6.363   3.852   3.344
 7766TIP3    H123243   6.343   3.880   3.253
 7766TIP3    H223244   6.402   3.934   3.383
 7767TIP3   OH223245   5.857   4.980   3.028
 7767TIP3    H123246   5.771   5.002   3.067
 7767TIP3    H223247   5.870   5.057   2.971
 7768TIP3   OH223248   6.061   4.029   3.376
 7768TIP3    H123249   6.118   4.107   3.361
 7768TIP3    H223250   6.060   4.028   3.472
 7769TIP3   OH223251   6.323   4.368   4.243
 7769TIP3    H123252   6.336   4.424   4.323
 7769TIP3    H223253   6.360   4.284   4.272
 7770TIP3   OH223254   6.192   3.774   3.551
 7770TIP3    H123255   6.233   3.825   3.625
 7770TIP3    H223256   6.247   3.806   3.476
 7771TIP3   OH223257   5.603   5.056   3.100
 7771TIP3    H123258   5.572   5.126   3.039
 7771TIP3    H223259   5.586   5.097   3.188
 7772TIP3   OH223260   5.700   3.760   3.335
 7772TIP3    H123261   5.703   3.852   3.369
 7772TIP3    H223262   5.796   3.739   3.343
 7773TIP3   OH223263   6.956   4.256   4.239
 7773TIP3    H123264   6.858   4.256   4.246
 7773TIP3    H223265   6.967   4.221   4.150
 7774TIP3   OH223266   6.596   4.432   3.621
 7774TIP3    H123267   6.574   4.338   3.615
 7774TIP3    H223268   6.682   4.423   3.669
 7775TIP3   OH223269   5.320   4.680   3.089
 7775TIP3    H123270   5.394   4.744   3.100
 7775TIP3    H223271   5.363   4.620   3.024
 7776TIP3   OH223272   5.261   3.958   3.221
 7776TIP3    H123273   5.265   4.055   3.220
 7776TIP3    H223274   5.173   3.942   3.185
 7777TIP3   OH223275   6.579   5.426   3.569
 7777TIP3    H123276   6.531   5.472   3.496
 7777TIP3    H223277   6.671   5.450   3.546
 7778TIP3   OH223278   5.649   3.681   4.094
 7778TIP3    H123279   5.619   3.649   4.007
 7778TIP3    H223280   5.638   3.602   4.151
 7779TIP3   OH223281   5.186   4.893   3.474
 7779TIP3    H123282   5.129   4.926   3.545
 7779TIP3    H223283   5.148   4.939   3.395
 7780TIP3   OH223284   5.348   5.445   4.548
 7780TIP3    H123285   5.435   5.441   4.594
 7780TIP3    H223286   5.326   5.350   4.546
 7781TIP3   OH223287   5.828   5.407   4.589
 7781TIP3    H123288   5.919   5.376   4.601
 7781TIP3    H223289   5.797   5.345   4.520
 7782TIP3   OH223290   5.807   4.978   2.719
 7782TIP3    H123291   5.750   4.908   2.759
 7782TIP3    H223292   5.884   4.925   2.692
 7783TIP3   OH223293   6.473   5.309   4.320
 7783TIP3    H123294   6.459   5.240   4.390
 7783TIP3    H223295   6.546   5.361   4.358
 7784TIP3   OH223296   6.244   5.019   2.636
 7784TIP3    H123297   6.277   4.949   2.697
 7784TIP3    H223298   6.305   5.011   2.560
 7785TIP3   OH223299   5.478   4.849   4.748
 7785TIP3    H123300   5.498   4.754   4.745
 7785TIP3    H223301   5.396   4.853   4.694
 7786TIP3   OH223302   5.456   4.493   2.947
 7786TIP3    H123303   5.513   4.462   3.021
 7786TIP3    H223304   5.524   4.499   2.876
 7787TIP3   OH223305   6.082   4.936   4.523
 7787TIP3    H123306   6.029   4.946   4.442
 7787TIP3    H223307   6.112   4.843   4.518
 7788TIP3   OH223308   5.964   4.695   2.747
 7788TIP3    H123309   5.968   4.708   2.844
 7788TIP3    H223310   5.966   4.597   2.742
 7789TIP3   OH223311   6.569   4.935   4.108
 7789TIP3    H123312   6.644   4.990   4.080
 7789TIP3    H223313   6.500   5.002   4.122
 7790TIP3   OH223314   5.600   4.584   4.726
 7790TIP3    H123315   5.684   4.543   4.701
 7790TIP3    H223316   5.619   4.613   4.817
 7791TIP3   OH223317   5.654   4.406   3.159
 7791TIP3    H123318   5.630   4.376   3.250
 7791TIP3    H223319   5.694   4.325   3.121
 7792TIP3   OH223320   5.935   4.478   4.403
 7792TIP3    H123321   5.856   4.533   4.392
 7792TIP3    H223322   5.985   4.501   4.321
 7793TIP3   OH223323   5.764   4.194   3.005
 7793TIP3    H123324   5.739   4.205   2.911
 7793TIP3    H223325   5.861   4.200   2.999
 7794TIP3   OH223326   6.447   4.866   4.522
 7794TIP3    H123327   6.538   4.844   4.500
 7794TIP3    H223328   6.432   4.810   4.601
 7795TIP3   OH223329   6.583   4.525   2.670
 7795TIP3    H123330   6.561   4.481   2.585
 7795TIP3    H223331   6.550   4.615   2.650
 7796TIP3   OH223332   6.059   4.257   4.514
 7796TIP3    H123333   6.052   4.179   4.456
 7796TIP3    H223334   6.011   4.326   4.461
 7797TIP3   OH223335   6.059   4.034   4.334
 7797TIP3    H123336   6.082   4.085   4.253
 7797TIP3    H223337   5.964   4.014   4.316
 7798TIP3   OH223338   6.087   4.573   4.204
 7798TIP3    H123339   6.157   4.579   4.138
 7798TIP3    H223340   6.024   4.641   4.171
 7799TIP3   OH223341   6.664   4.544   4.576
 7799TIP3    H123342   6.718   4.466   4.597
 7799TIP3    H223343   6.731   4.611   4.555
 7800TIP3   OH223344   6.707   4.795   4.302
 7800TIP3    H123345   6.645   4.847   4.246
 7800TIP3    H223346   6.794   4.823   4.264
 7801TIP3   OH223347   5.935   4.359   4.752
 7801TIP3    H123348   5.864   4.293   4.765
 7801TIP3    H223349   5.964   4.339   4.661
 7802TIP3   OH223350   6.189   3.800   4.396
 7802TIP3    H123351   6.140   3.882   4.374
 7802TIP3    H223352   6.119   3.733   4.385
 7803TIP3   OH223353   6.317   4.303   4.608
 7803TIP3    H123354   6.299   4.295   4.704
 7803TIP3    H223355   6.227   4.282   4.574
 7804TIP3   OH223356   6.550   4.244   4.461
 7804TIP3    H123357   6.474   4.258   4.521
 7804TIP3    H223358   6.621   4.222   4.523
 7805TIP3   OH223359   6.796   4.200   4.610
 7805TIP3    H123360   6.800   4.104   4.630
 7805TIP3    H223361   6.781   4.239   4.700
 7806TIP3   OH223362   5.767   4.142   4.806
 7806TIP3    H123363   5.775   4.051   4.773
 7806TIP3    H223364   5.804   4.133   4.896
 7807TIP3   OH223365   6.282   3.812   4.654
 7807TIP3    H123366   6.347   3.739   4.645
 7807TIP3    H223367   6.241   3.809   4.566
 7808TIP3   OH223368   6.348   4.027   4.814
 7808TIP3    H123369   6.326   3.958   4.748
 7808TIP3    H223370   6.271   4.088   4.807
 7809TIP3   OH223371   5.573   5.262   2.913
 7809TIP3    H123372   5.668   5.249   2.893
 7809TIP3    H223373   5.546   5.311   2.833
 7810TIP3   OH223374   5.051   4.641   3.125
 7810TIP3    H123375   5.146   4.661   3.111
 7810TIP3    H223376   5.045   4.551   3.085
 7811TIP3   OH223377   4.967   5.252   3.542
 7811TIP3    H123378   4.903   5.189   3.504
 7811TIP3    H223379   5.012   5.193   3.608
 7812TIP3   OH223380   5.105   5.101   3.722
 7812TIP3    H123381   5.106   5.032   3.792
 7812TIP3    H223382   5.151   5.170   3.773
 7813TIP3   OH223383   6.828   5.532   3.526
 7813TIP3    H123384   6.858   5.533   3.619
 7813TIP3    H223385   6.912   5.527   3.476
 7814TIP3   OH223386   6.871   5.520   3.800
 7814TIP3    H123387   6.821   5.435   3.808
 7814TIP3    H223388   6.941   5.501   3.866
 7815TIP3   OH223389   6.903   5.198   4.385
 7815TIP3    H123390   6.832   5.208   4.451
 7815TIP3    H223391   6.946   5.286   4.389
 7816TIP3   OH223392   6.726   4.711   2.994
 7816TIP3    H123393   6.796   4.775   2.972
 7816TIP3    H223394   6.755   4.680   3.082
 7817TIP3   OH223395   6.853   4.577   3.203
 7817TIP3    H123396   6.779   4.541   3.257
 7817TIP3    H223397   6.908   4.622   3.269
 7818TIP3   OH223398   6.910   4.976   3.637
 7818TIP3    H123399   6.959   4.907   3.588
 7818TIP3    H223400   6.889   5.041   3.567
 7819TIP3   OH223401   6.739   5.282   3.841
 7819TIP3    H123402   6.668   5.323   3.894
 7819TIP3    H223403   6.687   5.234   3.772
 7820TIP3   OH223404   6.786   4.485   2.851
 7820TIP3    H123405   6.713   4.489   2.785
 7820TIP3    H223406   6.761   4.561   2.907
 7821TIP3   OH223407   6.661   4.157   2.803
 7821TIP3    H123408   6.609   4.197   2.733
 7821TIP3    H223409   6.636   4.062   2.793
 7822TIP3   OH223410   6.669   4.436   3.349
 7822TIP3    H123411   6.668   4.339   3.340
 7822TIP3    H223412   6.646   4.450   3.443
 7823TIP3   OH223413   6.953   4.865   4.206
 7823TIP3    H123414   7.024   4.797   4.196
 7823TIP3    H223415   6.985   4.936   4.148
 7824TIP3   OH223416   7.132   4.662   4.216
 7824TIP3    H123417   7.058   4.614   4.260
 7824TIP3    H223418   7.205   4.599   4.234
 7825TIP3   OH223419   6.601   3.890   2.784
 7825TIP3    H123420   6.671   3.861   2.847
 7825TIP3    H223421   6.524   3.836   2.810
 7826TIP3   OH223422   6.661   4.158   3.248
 7826TIP3    H123423   6.699   4.068   3.261
 7826TIP3    H223424   6.717   4.189   3.175
 7827TIP3   OH223425   6.821   4.331   3.742
 7827TIP3    H123426   6.907   4.353   3.700
 7827TIP3    H223427   6.837   4.367   3.832
 7828TIP3   OH223428   6.891   4.469   3.973
 7828TIP3    H123429   6.817   4.504   4.027
 7828TIP3    H223430   6.924   4.550   3.930
 7829TIP3   OH223431   5.499   4.184   4.757
 7829TIP3    H123432   5.596   4.188   4.766
 7829TIP3    H223433   5.479   4.103   4.809
 7830TIP3   OH223434   7.349   4.057   4.539
 7830TIP3    H123435   7.405   4.000   4.482
 7830TIP3    H223436   7.310   4.118   4.472
 7831TIP3   OH223437   6.769   3.904   3.282
 7831TIP3    H123438   6.814   3.887   3.367
 7831TIP3    H223439   6.705   3.830   3.281
 7832TIP3   OH223440   5.459   3.890   4.119
 7832TIP3    H123441   5.526   3.819   4.119
 7832TIP3    H223442   5.518   3.968   4.105
 7833TIP3   OH223443   7.210   4.193   4.346
 7833TIP3    H123444   7.126   4.239   4.365
 7833TIP3    H223445   7.178   4.125   4.284
 7834TIP3   OH223446   6.844   3.834   2.921
 7834TIP3    H123447   6.885   3.766   2.863
 7834TIP3    H223448   6.910   3.906   2.917
 7835TIP3   OH223449   5.250   3.654   3.672
 7835TIP3    H123450   5.160   3.656   3.708
 7835TIP3    H223451   5.245   3.719   3.599
 7836TIP3   OH223452   6.418   5.364   3.188
 7836TIP3    H123453   6.464   5.354   3.103
 7836TIP3    H223454   6.471   5.433   3.231
 7837TIP3   OH223455   5.472   3.736   4.492
 7837TIP3    H123456   5.425   3.739   4.576
 7837TIP3    H223457   5.406   3.776   4.432
 7838TIP3   OH223458   5.509   5.188   4.566
 7838TIP3    H123459   5.422   5.146   4.550
 7838TIP3    H223460   5.539   5.140   4.644
 7839TIP3   OH223461   5.682   5.209   4.127
 7839TIP3    H123462   5.644   5.287   4.082
 7839TIP3    H223463   5.768   5.207   4.082
 7840TIP3   OH223464   6.134   5.452   4.255
 7840TIP3    H123465   6.175   5.447   4.344
 7840TIP3    H223466   6.201   5.503   4.206
 7841TIP3   OH223467   6.316   5.604   4.114
 7841TIP3    H123468   6.388   5.548   4.082
 7841TIP3    H223469   6.366   5.663   4.176
 7842TIP3   OH223470   7.110   3.962   4.213
 7842TIP3    H123471   7.019   3.957   4.177
 7842TIP3    H223472   7.140   3.869   4.202
 7843TIP3   OH223473   5.368   5.471   4.136
 7843TIP3    H123474   5.277   5.503   4.118
 7843TIP3    H223475   5.377   5.495   4.229
 7844TIP3   OH223476   5.605   5.445   4.000
 7844TIP3    H123477   5.518   5.456   4.045
 7844TIP3    H223478   5.583   5.473   3.909
 7845TIP3   OH223479   6.030   5.469   3.796
 7845TIP3    H123480   5.956   5.486   3.735
 7845TIP3    H223481   6.039   5.556   3.841
 7846TIP3   OH223482   6.296   5.403   3.844
 7846TIP3    H123483   6.200   5.417   3.830
 7846TIP3    H223484   6.332   5.486   3.809
 7847TIP3   OH223485   6.508   5.610   3.758
 7847TIP3    H123486   6.459   5.666   3.698
 7847TIP3    H223487   6.541   5.541   3.697
 7848TIP3   OH223488   5.278   5.260   3.888
 7848TIP3    H123489   5.302   5.224   3.977
 7848TIP3    H223490   5.348   5.216   3.835
 7849TIP3   OH223491   5.475   5.144   3.737
 7849TIP3    H123492   5.485   5.062   3.790
 7849TIP3    H223493   5.567   5.177   3.737
 7850TIP3   OH223494   5.745   5.223   3.749
 7850TIP3    H123495   5.769   5.128   3.743
 7850TIP3    H223496   5.790   5.245   3.833
 7851TIP3   OH223497   6.316   3.869   3.809
 7851TIP3    H123498   6.268   3.817   3.876
 7851TIP3    H223499   6.397   3.817   3.794
 7852TIP3   OH223500   6.837   3.758   3.738
 7852TIP3    H123501   6.871   3.810   3.662
 7852TIP3    H223502   6.741   3.776   3.732
 7853TIP3   OH223503   6.930   3.856   3.501
 7853TIP3    H123504   7.004   3.805   3.462
 7853TIP3    H223505   6.964   3.947   3.487
 7854TIP3   OH223506   5.562   3.582   3.847
 7854TIP3    H123507   5.469   3.551   3.852
 7854TIP3    H223508   5.610   3.496   3.844
 7855TIP3   OH223509   5.351   3.457   3.497
 7855TIP3    H123510   5.379   3.517   3.426
 7855TIP3    H223511   5.321   3.522   3.565
 7856TIP3   OH223512   6.014   3.613   3.729
 7856TIP3    H123513   6.067   3.669   3.670
 7856TIP3    H223514   6.017   3.663   3.811
 7857TIP3   OH223515   6.560   3.764   3.712
 7857TIP3    H123516   6.551   3.729   3.623
 7857TIP3    H223517   6.546   3.683   3.767
 7858TIP3   OH223518   6.584   3.692   3.276
 7858TIP3    H123519   6.500   3.738   3.294
 7858TIP3    H223520   6.566   3.606   3.320
 7859TIP3   OH223521   5.067   5.031   3.273
 7859TIP3    H123522   4.981   4.999   3.241
 7859TIP3    H223523   5.057   5.126   3.253
 7860TIP3   OH223524   5.468   3.616   3.258
 7860TIP3    H123525   5.518   3.554   3.201
 7860TIP3    H223526   5.541   3.670   3.296
 7861TIP3   OH223527   5.979   3.772   3.355
 7861TIP3    H123528   6.038   3.743   3.426
 7861TIP3    H223529   5.995   3.869   3.357
 7862TIP3   OH223530   5.838   5.213   2.857
 7862TIP3    H123531   5.927   5.235   2.822
 7862TIP3    H223532   5.816   5.137   2.798
 7863TIP3   OH223533   6.559   5.335   2.952
 7863TIP3    H123534   6.551   5.237   2.942
 7863TIP3    H223535   6.512   5.365   2.871
 7864TIP3   OH223536   5.769   3.863   4.737
 7864TIP3    H123537   5.733   3.795   4.796
 7864TIP3    H223538   5.862   3.865   4.766
 7865TIP3   OH223539   6.018   3.864   4.859
 7865TIP3    H123540   6.104   3.841   4.819
 7865TIP3    H223541   6.007   3.793   4.924
 7866TIP3   OH223542   5.143   5.053   2.913
 7866TIP3    H123543   5.144   5.068   3.009
 7866TIP3    H223544   5.230   5.010   2.898
 7867TIP3   OH223545   6.846   3.926   4.646
 7867TIP3    H123546   6.863   3.896   4.738
 7867TIP3    H223547   6.935   3.919   4.606
 7868TIP3   OH223548   6.782   5.480   4.136
 7868TIP3    H123549   6.701   5.450   4.090
 7868TIP3    H223550   6.763   5.575   4.145
 7869TIP3   OH223551   8.050   4.855   2.902
 7869TIP3    H123552   8.018   4.946   2.883
 7869TIP3    H223553   7.972   4.804   2.875
 7870TIP3   OH223554   8.049   4.850   3.287
 7870TIP3    H123555   8.078   4.838   3.380
 7870TIP3    H223556   8.007   4.765   3.269
 7871TIP3   OH223557   7.347   4.746   3.652
 7871TIP3    H123558   7.377   4.676   3.714
 7871TIP3    H223559   7.426   4.801   3.647
 7872TIP3   OH223560   8.296   5.150   2.969
 7872TIP3    H123561   8.273   5.088   3.040
 7872TIP3    H223562   8.322   5.229   3.019
 7873TIP3   OH223563   7.317   5.157   3.371
 7873TIP3    H123564   7.312   5.059   3.372
 7873TIP3    H223565   7.414   5.169   3.373
 7874TIP3   OH223566   7.028   4.356   3.157
 7874TIP3    H123567   6.979   4.439   3.178
 7874TIP3    H223568   6.956   4.307   3.113
 7875TIP3   OH223569   7.087   4.649   3.340
 7875TIP3    H123570   7.136   4.570   3.371
 7875TIP3    H223571   7.144   4.681   3.269
 7876TIP3   OH223572   7.944   5.616   2.985
 7876TIP3    H123573   7.988   5.543   2.938
 7876TIP3    H223574   7.935   5.581   3.075
 7877TIP3   OH223575   7.847   5.079   3.333
 7877TIP3    H123576   7.889   5.002   3.292
 7877TIP3    H223577   7.928   5.126   3.362
 7878TIP3   OH223578   8.257   4.599   3.360
 7878TIP3    H123579   8.268   4.506   3.389
 7878TIP3    H223580   8.208   4.585   3.277
 7879TIP3   OH223581   7.599   4.237   3.332
 7879TIP3    H123582   7.583   4.310   3.269
 7879TIP3    H223583   7.551   4.165   3.286
 7880TIP3   OH223584   8.286   4.330   2.965
 7880TIP3    H123585   8.352   4.272   3.007
 7880TIP3    H223586   8.342   4.379   2.904
 7881TIP3   OH223587   7.232   4.438   3.439
 7881TIP3    H123588   7.315   4.421   3.486
 7881TIP3    H223589   7.247   4.384   3.359
 7882TIP3   OH223590   7.673   4.637   3.233
 7882TIP3    H123591   7.767   4.613   3.246
 7882TIP3    H223592   7.635   4.552   3.200
 7883TIP3   OH223593   7.594   4.222   3.767
 7883TIP3    H123594   7.537   4.260   3.697
 7883TIP3    H223595   7.540   4.242   3.846
 7884TIP3   OH223596   7.948   5.080   2.764
 7884TIP3    H123597   7.897   5.058   2.684
 7884TIP3    H223598   7.896   5.157   2.797
 7885TIP3   OH223599   7.701   4.997   3.558
 7885TIP3    H123600   7.641   5.066   3.596
 7885TIP3    H223601   7.746   5.048   3.487
 7886TIP3   OH223602   7.467   4.336   3.550
 7886TIP3    H123603   7.528   4.410   3.573
 7886TIP3    H223604   7.516   4.297   3.474
 7887TIP3   OH223605   7.528   5.192   3.655
 7887TIP3    H123606   7.506   5.282   3.623
 7887TIP3    H223607   7.450   5.177   3.712
 7888TIP3   OH223608   6.929   4.886   2.893
 7888TIP3    H123609   6.882   4.914   2.813
 7888TIP3    H223610   6.961   4.972   2.929
 7889TIP3   OH223611   8.363   5.397   3.130
 7889TIP3    H123612   8.276   5.385   3.176
 7889TIP3    H223613   8.350   5.485   3.090
 7890TIP3   OH223614   7.939   3.932   3.484
 7890TIP3    H123615   7.918   3.838   3.499
 7890TIP3    H223616   7.862   3.975   3.528
 7891TIP3   OH223617   8.064   5.440   2.806
 7891TIP3    H123618   8.115   5.359   2.785
 7891TIP3    H223619   8.124   5.507   2.766
 7892TIP3   OH223620   8.202   5.215   2.716
 7892TIP3    H123621   8.127   5.153   2.715
 7892TIP3    H223622   8.249   5.189   2.798
 7893TIP3   OH223623   8.592   5.309   3.489
 7893TIP3    H123624   8.593   5.231   3.430
 7893TIP3    H223625   8.579   5.383   3.427
 7894TIP3   OH223626   7.879   4.703   2.737
 7894TIP3    H123627   7.797   4.755   2.720
 7894TIP3    H223628   7.920   4.701   2.649
 7895TIP3   OH223629   7.837   4.489   2.449
 7895TIP3    H123630   7.904   4.544   2.494
 7895TIP3    H223631   7.896   4.427   2.401
 7896TIP3   OH223632   8.221   4.783   2.705
 7896TIP3    H123633   8.165   4.813   2.781
 7896TIP3    H223634   8.294   4.740   2.753
 7897TIP3   OH223635   8.450   4.806   3.613
 7897TIP3    H123636   8.471   4.886   3.664
 7897TIP3    H223637   8.359   4.826   3.584
 7898TIP3   OH223638   7.462   4.782   3.124
 7898TIP3    H123639   7.421   4.723   3.057
 7898TIP3    H223640   7.538   4.728   3.155
 7899TIP3   OH223641   7.591   5.198   3.271
 7899TIP3    H123642   7.573   5.157   3.185
 7899TIP3    H223643   7.680   5.162   3.292
 7900TIP3   OH223644   7.595   4.755   3.478
 7900TIP3    H123645   7.630   4.732   3.389
 7900TIP3    H223646   7.639   4.841   3.497
 7901TIP3   OH223647   8.126   5.389   3.257
 7901TIP3    H123648   8.112   5.472   3.306
 7901TIP3    H223649   8.107   5.321   3.324
 7902TIP3   OH223650   7.740   5.318   3.793
 7902TIP3    H123651   7.682   5.375   3.848
 7902TIP3    H223652   7.673   5.259   3.753
 7903TIP3   OH223653   8.065   4.638   2.531
 7903TIP3    H123654   8.121   4.702   2.580
 7903TIP3    H223655   8.092   4.658   2.438
 7904TIP3   OH223656   7.492   4.863   3.911
 7904TIP3    H123657   7.498   4.953   3.947
 7904TIP3    H223658   7.396   4.846   3.922
 7905TIP3   OH223659   7.816   5.319   2.808
 7905TIP3    H123660   7.897   5.373   2.819
 7905TIP3    H223661   7.754   5.382   2.769
 7906TIP3   OH223662   7.528   5.475   3.889
 7906TIP3    H123663   7.493   5.478   3.799
 7906TIP3    H223664   7.447   5.456   3.943
 7907TIP3   OH223665   7.329   4.626   2.925
 7907TIP3    H123666   7.259   4.670   2.872
 7907TIP3    H223667   7.290   4.540   2.942
 7908TIP3   OH223668   8.379   5.255   2.134
 7908TIP3    H123669   8.378   5.349   2.110
 7908TIP3    H223670   8.461   5.225   2.094
 7909TIP3   OH223671   7.106   5.011   3.838
 7909TIP3    H123672   7.043   4.991   3.766
 7909TIP3    H223673   7.146   4.924   3.859
 7910TIP3   OH223674   6.968   5.212   3.462
 7910TIP3    H123675   7.060   5.185   3.447
 7910TIP3    H223676   6.979   5.273   3.537
 7911TIP3   OH223677   7.926   5.446   3.643
 7911TIP3    H123678   7.929   5.534   3.686
 7911TIP3    H223679   7.863   5.400   3.704
 7912TIP3   OH223680   7.693   5.566   2.613
 7912TIP3    H123681   7.649   5.549   2.528
 7912TIP3    H223682   7.660   5.655   2.637
 7913TIP3   OH223683   7.131   5.419   2.998
 7913TIP3    H123684   7.177   5.410   3.084
 7913TIP3    H223685   7.085   5.333   2.993
 7914TIP3   OH223686   7.892   5.473   2.251
 7914TIP3    H123687   7.951   5.403   2.213
 7914TIP3    H223688   7.930   5.482   2.341
 7915TIP3   OH223689   7.945   5.519   2.521
 7915TIP3    H123690   7.857   5.527   2.565
 7915TIP3    H223691   7.999   5.482   2.592
 7916TIP3   OH223692   7.311   5.193   3.821
 7916TIP3    H123693   7.361   5.180   3.904
 7916TIP3    H223694   7.237   5.131   3.832
 7917TIP3   OH223695   7.710   4.015   3.614
 7917TIP3    H123696   7.622   3.987   3.583
 7917TIP3    H223697   7.685   4.098   3.659
 7918TIP3   OH223698   8.212   4.149   3.790
 7918TIP3    H123699   8.275   4.108   3.852
 7918TIP3    H223700   8.126   4.129   3.833
 7919TIP3   OH223701   8.523   4.559   3.730
 7919TIP3    H123702   8.460   4.562   3.806
 7919TIP3    H223703   8.499   4.642   3.683
 7920TIP3   OH223704   8.145   4.687   2.277
 7920TIP3    H123705   8.117   4.662   2.187
 7920TIP3    H223706   8.212   4.754   2.258
 7921TIP3   OH223707   7.868   4.064   2.584
 7921TIP3    H123708   7.830   4.060   2.674
 7921TIP3    H223709   7.827   3.984   2.545
 7922TIP3   OH223710   7.642   4.533   3.627
 7922TIP3    H123711   7.594   4.556   3.709
 7922TIP3    H223712   7.627   4.615   3.573
 7923TIP3   OH223713   7.527   4.418   3.143
 7923TIP3    H123714   7.435   4.392   3.162
 7923TIP3    H223715   7.539   4.376   3.055
 7924TIP3   OH223716   8.019   4.506   2.869
 7924TIP3    H123717   7.965   4.576   2.827
 7924TIP3    H223718   8.075   4.476   2.796
 7925TIP3   OH223719   8.194   4.775   3.946
 7925TIP3    H123720   8.177   4.708   4.015
 7925TIP3    H223721   8.281   4.810   3.976
 7926TIP3   OH223722   8.160   4.537   3.108
 7926TIP3    H123723   8.099   4.553   3.033
 7926TIP3    H223724   8.197   4.451   3.080
 7927TIP3   OH223725   7.461   4.562   3.836
 7927TIP3    H123726   7.495   4.628   3.898
 7927TIP3    H223727   7.452   4.482   3.891
 7928TIP3   OH223728   7.513   4.040   2.547
 7928TIP3    H123729   7.503   4.039   2.644
 7928TIP3    H223730   7.436   4.093   2.521
 7929TIP3   OH223731   7.057   4.078   3.421
 7929TIP3    H123732   7.131   4.114   3.474
 7929TIP3    H223733   7.098   4.056   3.336
 7930TIP3   OH223734   7.021   4.062   2.936
 7930TIP3    H123735   7.067   4.100   2.858
 7930TIP3    H223736   6.960   4.136   2.956
 7931TIP3   OH223737   8.164   4.787   3.532
 7931TIP3    H123738   8.207   4.720   3.473
 7931TIP3    H223739   8.141   4.730   3.609
 7932TIP3   OH223740   7.849   4.260   3.200
 7932TIP3    H123741   7.776   4.247   3.263
 7932TIP3    H223742   7.925   4.219   3.247
 7933TIP3   OH223743   7.289   4.298   3.210
 7933TIP3    H123744   7.194   4.306   3.181
 7933TIP3    H223745   7.311   4.206   3.186
 7934TIP3   OH223746   7.552   4.289   2.902
 7934TIP3    H123747   7.647   4.306   2.883
 7934TIP3    H223748   7.507   4.313   2.818
 7935TIP3   OH223749   8.270   4.332   3.398
 7935TIP3    H123750   8.259   4.343   3.494
 7935TIP3    H223751   8.349   4.274   3.394
 7936TIP3   OH223752   7.404   4.326   2.676
 7936TIP3    H123753   7.333   4.281   2.627
 7936TIP3    H223754   7.456   4.364   2.602
 7937TIP3   OH223755   8.517   6.004   3.629
 7937TIP3    H123756   8.512   6.012   3.531
 7937TIP3    H223757   8.588   6.066   3.650
 7938TIP3   OH223758   7.473   5.113   4.043
 7938TIP3    H123759   7.555   5.143   4.089
 7938TIP3    H223760   7.410   5.116   4.118
 7939TIP3   OH223761   7.939   4.573   3.305
 7939TIP3    H123762   8.002   4.525   3.250
 7939TIP3    H223763   7.942   4.523   3.388
 7940TIP3   OH223764   7.456   4.056   3.182
 7940TIP3    H123765   7.420   3.978   3.230
 7940TIP3    H223766   7.502   4.014   3.108
 7941TIP3   OH223767   7.912   4.467   3.597
 7941TIP3    H123768   7.823   4.506   3.606
 7941TIP3    H223769   7.970   4.532   3.643
 7942TIP3   OH223770   7.650   4.855   2.685
 7942TIP3    H123771   7.578   4.789   2.672
 7942TIP3    H223772   7.629   4.889   2.775
 7943TIP3   OH223773   8.553   5.097   3.303
 7943TIP3    H123774   8.554   5.114   3.208
 7943TIP3    H223775   8.466   5.052   3.311
 7944TIP3   OH223776   8.121   4.162   2.553
 7944TIP3    H123777   8.026   4.135   2.558
 7944TIP3    H223778   8.116   4.259   2.559
 7945TIP3   OH223779   8.051   5.177   3.688
 7945TIP3    H123780   8.110   5.190   3.765
 7945TIP3    H223781   8.008   5.264   3.688
 7946TIP3   OH223782   8.205   4.427   2.635
 7946TIP3    H123783   8.290   4.474   2.640
 7946TIP3    H223784   8.150   4.494   2.589
 7947TIP3   OH223785   7.344   4.881   3.358
 7947TIP3    H123786   7.383   4.850   3.274
 7947TIP3    H223787   7.388   4.823   3.422
 7948TIP3   OH223788   7.797   5.005   2.509
 7948TIP3    H123789   7.748   5.090   2.511
 7948TIP3    H223790   7.742   4.950   2.568
 7949TIP3   OH223791   7.227   4.799   3.975
 7949TIP3    H123792   7.245   4.787   4.070
 7949TIP3    H223793   7.157   4.732   3.960
 7950TIP3   OH223794   7.956   4.903   4.000
 7950TIP3    H123795   7.896   4.857   3.940
 7950TIP3    H223796   8.043   4.874   3.966
 7951TIP3   OH223797   8.205   5.440   3.562
 7951TIP3    H123798   8.111   5.432   3.586
 7951TIP3    H223799   8.239   5.490   3.639
 7952TIP3   OH223800   8.307   5.335   2.398
 7952TIP3    H123801   8.305   5.276   2.474
 7952TIP3    H223802   8.334   5.277   2.324
 7953TIP3   OH223803   8.312   4.957   3.233
 7953TIP3    H123804   8.216   4.938   3.247
 7953TIP3    H223805   8.343   4.870   3.203
 7954TIP3   OH223806   7.445   5.182   2.982
 7954TIP3    H123807   7.441   5.264   2.930
 7954TIP3    H223808   7.352   5.165   2.998
 7955TIP3   OH223809   7.010   4.486   2.692
 7955TIP3    H123810   7.054   4.571   2.714
 7955TIP3    H223811   6.932   4.489   2.752
 7956TIP3   OH223812   7.578   4.946   2.927
 7956TIP3    H123813   7.543   5.035   2.947
 7956TIP3    H223814   7.544   4.895   3.003
 7957TIP3   OH223815   7.716   5.523   3.454
 7957TIP3    H123816   7.760   5.597   3.408
 7957TIP3    H223817   7.790   5.488   3.508
 7958TIP3   OH223818   7.361   5.425   2.836
 7958TIP3    H123819   7.276   5.433   2.885
 7958TIP3    H223820   7.393   5.518   2.841
 7959TIP3   OH223821   8.095   5.156   3.422
 7959TIP3    H123822   8.079   5.158   3.519
 7959TIP3    H223823   8.183   5.115   3.419
 7960TIP3   OH223824   8.059   5.057   2.310
 7960TIP3    H123825   8.118   5.029   2.383
 7960TIP3    H223826   7.972   5.031   2.344
 7961TIP3   OH223827   8.359   5.685   3.457
 7961TIP3    H123828   8.280   5.628   3.464
 7961TIP3    H223829   8.330   5.751   3.390
 7962TIP3   OH223830   7.432   4.304   3.981
 7962TIP3    H123831   7.335   4.308   3.990
 7962TIP3    H223832   7.456   4.245   4.053
 7963TIP3   OH223833   8.235   4.976   2.508
 7963TIP3    H123834   8.222   4.909   2.578
 7963TIP3    H223835   8.302   5.033   2.549
 7964TIP3   OH223836   7.149   5.386   3.616
 7964TIP3    H123837   7.207   5.316   3.650
 7964TIP3    H223838   7.177   5.460   3.671
 7965TIP3   OH223839   7.439   5.034   2.297
 7965TIP3    H123840   7.454   4.941   2.271
 7965TIP3    H223841   7.420   5.023   2.392
 7966TIP3   OH223842   7.384   5.039   2.569
 7966TIP3    H123843   7.458   5.012   2.626
 7966TIP3    H223844   7.389   5.137   2.577
 7967TIP3   OH223845   7.121   4.730   2.772
 7967TIP3    H123846   7.056   4.775   2.829
 7967TIP3    H223847   7.134   4.798   2.703
 7968TIP3   OH223848   8.276   4.386   3.667
 7968TIP3    H123849   8.357   4.413   3.714
 7968TIP3    H223850   8.251   4.304   3.715
 7969TIP3   OH223851   8.131   4.130   2.841
 7969TIP3    H123852   8.132   4.141   2.744
 7969TIP3    H223853   8.178   4.209   2.873
 7970TIP3   OH223854   7.653   5.233   2.516
 7970TIP3    H123855   7.567   5.259   2.553
 7970TIP3    H223856   7.670   5.309   2.458
 7971TIP3   OH223857   7.834   4.303   2.931
 7971TIP3    H123858   7.902   4.373   2.917
 7971TIP3    H223859   7.840   4.291   3.028
 7972TIP3   OH223860   8.109   4.615   3.736
 7972TIP3    H123861   8.138   4.669   3.813
 7972TIP3    H223862   8.169   4.538   3.740
 7973TIP3   OH223863   7.976   4.010   3.030
 7973TIP3    H123864   8.004   4.062   3.109
 7973TIP3    H223865   8.032   4.053   2.961
 7974TIP3   OH223866   7.399   5.312   2.587
 7974TIP3    H123867   7.369   5.382   2.525
 7974TIP3    H223868   7.383   5.354   2.674
 7975TIP3   OH223869   7.497   4.026   2.823
 7975TIP3    H123870   7.494   4.116   2.861
 7975TIP3    H223871   7.593   4.009   2.830
 7976TIP3   OH223872   8.397   4.695   3.141
 7976TIP3    H123873   8.311   4.658   3.113
 7976TIP3    H223874   8.403   4.655   3.230
 7977TIP3   OH223875   7.116   4.937   2.576
 7977TIP3    H123876   7.188   5.002   2.586
 7977TIP3    H223877   7.158   4.878   2.509
 7978TIP3   OH223878   7.056   4.215   2.711
 7978TIP3    H123879   7.059   4.313   2.710
 7978TIP3    H223880   6.971   4.199   2.669
 7979TIP3   OH223881   8.380   5.672   3.052
 7979TIP3    H123882   8.334   5.717   2.977
 7979TIP3    H223883   8.472   5.687   3.029
 7980TIP3   OH223884   7.447   3.936   3.581
 7980TIP3    H123885   7.416   3.903   3.494
 7980TIP3    H223886   7.435   3.858   3.638
 7981TIP3   OH223887   6.986   5.162   2.961
 7981TIP3    H123888   6.920   5.186   3.028
 7981TIP3    H223889   6.948   5.203   2.880
 7982TIP3   OH223890   7.146   5.704   4.036
 7982TIP3    H123891   7.232   5.709   4.085
 7982TIP3    H223892   7.131   5.608   4.036
 7983TIP3   OH223893   7.617   5.656   4.082
 7983TIP3    H123894   7.712   5.641   4.093
 7983TIP3    H223895   7.597   5.595   4.009
 7984TIP3   OH223896   7.603   5.236   2.206
 7984TIP3    H123897   7.549   5.163   2.244
 7984TIP3    H223898   7.680   5.186   2.173
 7985TIP3   OH223899   8.287   5.593   3.775
 7985TIP3    H123900   8.256   5.514   3.826
 7985TIP3    H223901   8.339   5.641   3.841
 7986TIP3   OH223902   8.032   5.278   2.117
 7986TIP3    H123903   8.075   5.216   2.179
 7986TIP3    H223904   8.088   5.272   2.037
 7987TIP3   OH223905   7.273   5.104   4.237
 7987TIP3    H123906   7.287   5.008   4.243
 7987TIP3    H223907   7.186   5.108   4.192
 7988TIP3   OH223908   7.251   4.751   2.432
 7988TIP3    H123909   7.307   4.720   2.505
 7988TIP3    H223910   7.318   4.756   2.360
 7989TIP3   OH223911   7.853   5.171   4.011
 7989TIP3    H123912   7.852   5.212   3.923
 7989TIP3    H223913   7.910   5.093   3.998
 7990TIP3   OH223914   7.761   4.953   2.239
 7990TIP3    H123915   7.764   4.964   2.336
 7990TIP3    H223916   7.766   4.855   2.232
 7991TIP3   OH223917   8.376   5.185   3.612
 7991TIP3    H123918   8.445   5.240   3.569
 7991TIP3    H223919   8.304   5.249   3.624
 7992TIP3   OH223920   7.391   4.836   4.224
 7992TIP3    H123921   7.473   4.799   4.190
 7992TIP3    H223922   7.420   4.870   4.311
 7993TIP3   OH223923   7.456   4.660   2.650
 7993TIP3    H123924   7.428   4.620   2.734
 7993TIP3    H223925   7.493   4.583   2.602
 7994TIP3   OH223926   7.723   4.715   3.876
 7994TIP3    H123927   7.650   4.780   3.880
 7994TIP3    H223928   7.777   4.751   3.802
 7995TIP3   OH223929   7.560   4.454   2.491
 7995TIP3    H123930   7.535   4.461   2.397
 7995TIP3    H223931   7.658   4.456   2.484
 7996TIP3   OH223932   7.851   4.512   4.004
 7996TIP3    H123933   7.853   4.435   3.944
 7996TIP3    H223934   7.809   4.580   3.947
 7997TIP3   OH223935   7.853   4.296   3.814
 7997TIP3    H123936   7.882   4.343   3.733
 7997TIP3    H223937   7.759   4.277   3.793
 7998TIP3   OH223938   7.876   4.829   3.687
 7998TIP3    H123939   7.964   4.848   3.652
 7998TIP3    H223940   7.821   4.897   3.643
 7999TIP3   OH223941   8.458   4.806   4.067
 7999TIP3    H123942   8.514   4.729   4.057
 7999TIP3    H223943   8.514   4.877   4.031
 8000TIP3   OH223944   8.526   5.056   3.802
 8000TIP3    H123945   8.460   5.103   3.745
 8000TIP3    H223946   8.602   5.045   3.740
 8001TIP3   OH223947   7.728   4.616   4.240
 8001TIP3    H123948   7.655   4.551   4.241
 8001TIP3    H223949   7.766   4.600   4.150
 8002TIP3   OH223950   7.973   4.059   3.888
 8002TIP3    H123951   7.923   4.140   3.863
 8002TIP3    H223952   7.905   3.989   3.874
 8003TIP3   OH223953   8.116   4.558   4.094
 8003TIP3    H123954   8.103   4.553   4.191
 8003TIP3    H223955   8.025   4.539   4.063
 8004TIP3   OH223956   8.352   4.505   3.943
 8004TIP3    H123957   8.274   4.518   4.000
 8004TIP3    H223958   8.417   4.469   4.007
 8005TIP3   OH223959   8.548   4.417   4.114
 8005TIP3    H123960   8.607   4.347   4.144
 8005TIP3    H223961   8.558   4.483   4.186
 8006TIP3   OH223962   7.560   4.399   4.285
 8006TIP3    H123963   7.570   4.307   4.251
 8006TIP3    H223964   7.616   4.397   4.364
 8007TIP3   OH223965   8.076   4.069   4.142
 8007TIP3    H123966   8.133   3.990   4.137
 8007TIP3    H223967   8.035   4.067   4.052
 8008TIP3   OH223968   8.144   4.284   4.301
 8008TIP3    H123969   8.123   4.216   4.234
 8008TIP3    H223970   8.068   4.346   4.292
 8009TIP3   OH223971   7.369   5.517   2.401
 8009TIP3    H123972   7.464   5.505   2.382
 8009TIP3    H223973   7.342   5.566   2.320
 8010TIP3   OH223974   6.845   4.899   2.608
 8010TIP3    H123975   6.941   4.918   2.597
 8010TIP3    H223976   6.840   4.809   2.570
 8011TIP3   OH223977   6.763   5.507   3.029
 8011TIP3    H123978   6.699   5.444   2.990
 8011TIP3    H223979   6.808   5.449   3.094
 8012TIP3   OH223980   6.896   5.354   3.217
 8012TIP3    H123981   6.885   5.282   3.282
 8012TIP3    H223982   6.949   5.415   3.270
 8013TIP3   OH223983   8.704   5.744   3.295
 8013TIP3    H123984   8.648   5.664   3.288
 8013TIP3    H223985   8.669   5.781   3.378
 8014TIP3   OH223986   8.533   5.524   3.316
 8014TIP3    H123987   8.466   5.571   3.370
 8014TIP3    H223988   8.476   5.476   3.252
 8015TIP3   OH223989   8.434   4.660   2.833
 8015TIP3    H123990   8.523   4.620   2.843
 8015TIP3    H223991   8.428   4.706   2.919
 8016TIP3   OH223992   7.082   4.764   3.590
 8016TIP3    H123993   7.079   4.731   3.498
 8016TIP3    H223994   7.180   4.767   3.604
 8017TIP3   OH223995   7.292   4.444   4.255
 8017TIP3    H123996   7.390   4.443   4.256
 8017TIP3    H223997   7.272   4.359   4.298
 8018TIP3   OH223998   7.263   4.145   3.594
 8018TIP3    H123999   7.326   4.071   3.600
 8018TIP3    H224000   7.324   4.220   3.584
 8019TIP3   OH224001   7.066   4.416   3.664
 8019TIP3    H124002   7.115   4.415   3.579
 8019TIP3    H224003   7.092   4.502   3.700
 8020TIP3   OH224004   7.049   3.918   3.163
 8020TIP3    H124005   6.956   3.915   3.193
 8020TIP3    H224006   7.043   3.979   3.086
 8021TIP3   OH224007   8.205   5.627   2.672
 8021TIP3    H124008   8.254   5.618   2.588
 8021TIP3    H224009   8.258   5.693   2.719
 8022TIP3   OH224010   7.269   3.999   3.978
 8022TIP3    H124011   7.217   3.997   4.060
 8022TIP3    H224012   7.205   4.040   3.916
 8023TIP3   OH224013   7.307   5.430   4.051
 8023TIP3    H124014   7.213   5.406   4.043
 8023TIP3    H224015   7.323   5.417   4.145
 8024TIP3   OH224016   7.487   5.460   3.600
 8024TIP3    H124017   7.445   5.539   3.561
 8024TIP3    H224018   7.576   5.472   3.560
 8025TIP3   OH224019   7.930   5.707   3.743
 8025TIP3    H124020   7.974   5.701   3.830
 8025TIP3    H224021   7.995   5.760   3.692
 8026TIP3   OH224022   8.108   5.861   3.601
 8026TIP3    H124023   8.180   5.804   3.571
 8026TIP3    H224024   8.157   5.920   3.663
 8027TIP3   OH224025   7.173   5.714   3.637
 8027TIP3    H124026   7.092   5.759   3.611
 8027TIP3    H224027   7.197   5.763   3.718
 8028TIP3   OH224028   7.403   5.692   3.483
 8028TIP3    H124029   7.318   5.706   3.530
 8028TIP3    H224030   7.384   5.729   3.395
 8029TIP3   OH224031   7.825   5.726   3.282
 8029TIP3    H124032   7.754   5.748   3.221
 8029TIP3    H224033   7.838   5.811   3.330
 8030TIP3   OH224034   8.093   5.659   3.330
 8030TIP3    H124035   7.999   5.682   3.315
 8030TIP3    H224036   8.138   5.741   3.301
 8031TIP3   OH224037   8.283   5.847   3.247
 8031TIP3    H124038   8.281   5.937   3.207
 8031TIP3    H224039   8.312   5.792   3.172
 8032TIP3   OH224040   7.075   5.511   3.379
 8032TIP3    H124041   7.105   5.480   3.467
 8032TIP3    H224042   7.145   5.468   3.324
 8033TIP3   OH224043   7.268   5.388   3.233
 8033TIP3    H124044   7.282   5.303   3.281
 8033TIP3    H224045   7.360   5.423   3.231
 8034TIP3   OH224046   7.537   5.476   3.238
 8034TIP3    H124047   7.566   5.383   3.230
 8034TIP3    H224048   7.586   5.501   3.319
 8035TIP3   OH224049   8.063   4.100   3.279
 8035TIP3    H124050   8.049   4.048   3.359
 8035TIP3    H224051   8.160   4.096   3.269
 8036TIP3   OH224052   7.358   3.843   3.334
 8036TIP3    H124053   7.265   3.811   3.338
 8036TIP3    H224054   7.406   3.757   3.329
 8037TIP3   OH224055   7.150   3.715   2.986
 8037TIP3    H124056   7.177   3.772   2.912
 8037TIP3    H224057   7.120   3.780   3.052
 8038TIP3   OH224058   7.806   3.871   3.217
 8038TIP3    H124059   7.857   3.919   3.149
 8038TIP3    H224060   7.832   3.919   3.297
 8039TIP3   OH224061   8.317   4.004   3.198
 8039TIP3    H124062   8.338   3.984   3.106
 8039TIP3    H224063   8.313   3.915   3.238
 8040TIP3   OH224064   6.862   5.288   2.758
 8040TIP3    H124065   6.776   5.254   2.727
 8040TIP3    H224066   6.852   5.382   2.733
 8041TIP3   OH224067   7.265   3.871   2.747
 8041TIP3    H124068   7.314   3.809   2.688
 8041TIP3    H224069   7.338   3.926   2.782
 8042TIP3   OH224070   7.774   4.051   2.845
 8042TIP3    H124071   7.836   4.007   2.906
 8042TIP3    H224072   7.793   4.144   2.869
 8043TIP3   OH224073   7.635   5.469   2.347
 8043TIP3    H124074   7.723   5.492   2.310
 8043TIP3    H224075   7.613   5.395   2.286
 8044TIP3   OH224076   8.341   5.600   2.440
 8044TIP3    H124077   8.338   5.502   2.430
 8044TIP3    H224078   8.314   5.626   2.350
 8045TIP3   OH224079   7.564   4.122   4.228
 8045TIP3    H124080   7.528   4.049   4.282
 8045TIP3    H224081   7.658   4.120   4.257
 8046TIP3   OH224082   7.807   4.129   4.355
 8046TIP3    H124083   7.893   4.114   4.312
 8046TIP3    H224084   7.806   4.056   4.420
 8047TIP3   OH224085   6.939   5.309   2.399
 8047TIP3    H124086   6.942   5.325   2.495
 8047TIP3    H224087   7.026   5.265   2.383
 8048TIP3   OH224088   8.569   5.735   3.639
 8048TIP3    H124089   8.494   5.703   3.584
 8048TIP3    H224090   8.553   5.831   3.636
 8049TIP3   OH224091   0.504   5.641   4.593
 8049TIP3    H124092   0.467   5.731   4.594
 8049TIP3    H224093   0.434   5.595   4.542
 8050TIP3   OH224094   0.525   5.624   4.962
 8050TIP3    H124095   0.543   5.602   5.055
 8050TIP3    H224096   0.468   5.550   4.934
 8051TIP3   OH224097   0.748   5.943   4.659
 8051TIP3    H124098   0.734   5.877   4.728
 8051TIP3    H224099   0.776   6.020   4.712
 8052TIP3   OH224100   0.447   6.429   4.660
 8052TIP3    H124101   0.494   6.347   4.640
 8052TIP3    H224102   0.377   6.397   4.721
 8053TIP3   OH224103   0.327   5.827   5.045
 8053TIP3    H124104   0.357   5.763   4.980
 8053TIP3    H224105   0.409   5.880   5.058
 8054TIP3   OH224106   1.320   5.183   5.022
 8054TIP3    H124107   1.347   5.269   5.059
 8054TIP3    H224108   1.344   5.196   4.928
 8055TIP3   OH224109   0.709   5.363   5.058
 8055TIP3    H124110   0.754   5.278   5.075
 8055TIP3    H224111   0.681   5.351   4.966
 8056TIP3   OH224112   0.747   5.121   4.641
 8056TIP3    H124113   0.819   5.106   4.707
 8056TIP3    H224114   0.799   5.154   4.566
 8057TIP3   OH224115   1.388   5.392   5.204
 8057TIP3    H124116   1.307   5.442   5.179
 8057TIP3    H224117   1.423   5.447   5.276
 8058TIP3   OH224118   0.369   5.870   4.476
 8058TIP3    H124119   0.351   5.830   4.389
 8058TIP3    H224120   0.445   5.928   4.454
 8059TIP3   OH224121   0.952   5.124   4.819
 8059TIP3    H124122   0.942   5.076   4.902
 8059TIP3    H224123   1.005   5.201   4.845
 8060TIP3   OH224124   0.813   6.185   4.820
 8060TIP3    H124125   0.723   6.178   4.861
 8060TIP3    H224126   0.806   6.274   4.780
 8061TIP3   OH224127   1.106   5.083   5.182
 8061TIP3    H124128   1.018   5.110   5.150
 8061TIP3    H224129   1.166   5.117   5.113
 8062TIP3   OH224130   0.408   4.717   5.159
 8062TIP3    H124131   0.398   4.622   5.178
 8062TIP3    H224132   0.364   4.757   5.235
 8063TIP3   OH224133   0.511   6.211   4.481
 8063TIP3    H124134   0.558   6.128   4.461
 8063TIP3    H224135   0.576   6.277   4.448
 8064TIP3   OH224136   0.632   5.979   4.410
 8064TIP3    H124137   0.668   5.916   4.345
 8064TIP3    H224138   0.687   5.960   4.490
 8065TIP3   OH224139   1.038   6.097   5.168
 8065TIP3    H124140   1.027   6.020   5.108
 8065TIP3    H224141   1.021   6.172   5.108
 8066TIP3   OH224142   0.335   5.508   4.428
 8066TIP3    H124143   0.254   5.456   4.448
 8066TIP3    H224144   0.356   5.486   4.336
 8067TIP3   OH224145   0.311   5.280   4.143
 8067TIP3    H124146   0.385   5.334   4.178
 8067TIP3    H224147   0.361   5.215   4.090
 8068TIP3   OH224148   1.235   5.734   5.014
 8068TIP3    H124149   1.152   5.786   5.018
 8068TIP3    H224150   1.267   5.759   4.925
 8069TIP3   OH224151   0.682   5.575   4.396
 8069TIP3    H124152   0.629   5.597   4.475
 8069TIP3    H224153   0.767   5.548   4.437
 8070TIP3   OH224154   0.916   5.612   5.314
 8070TIP3    H124155   0.914   5.695   5.365
 8070TIP3    H224156   0.831   5.619   5.266
 8071TIP3   OH224157   0.572   6.182   4.940
 8071TIP3    H124158   0.552   6.265   4.986
 8071TIP3    H224159   0.557   6.113   5.007
 8072TIP3   OH224160   0.522   5.430   4.225
 8072TIP3    H124161   0.577   5.492   4.277
 8072TIP3    H224162   0.550   5.455   4.133
 8073TIP3   OH224163   1.036   4.671   4.273
 8073TIP3    H124164   0.955   4.696   4.321
 8073TIP3    H224165   1.053   4.753   4.221
 8074TIP3   OH224166   0.839   6.042   3.826
 8074TIP3    H124167   0.847   6.137   3.804
 8074TIP3    H224168   0.931   6.010   3.810
 8075TIP3   OH224169   1.275   6.447   5.211
 8075TIP3    H124170   1.279   6.351   5.230
 8075TIP3    H224171   1.193   6.471   5.261
 8076TIP3   OH224172   0.350   6.264   3.937
 8076TIP3    H124173   0.410   6.192   3.906
 8076TIP3    H224174   0.367   6.266   4.033
 8077TIP3   OH224175   0.395   6.311   4.218
 8077TIP3    H124176   0.331   6.313   4.291
 8077TIP3    H224177   0.476   6.288   4.266
 8078TIP3   OH224178   1.169   5.565   5.491
 8078TIP3    H124179   1.086   5.583   5.444
 8078TIP3    H224180   1.174   5.468   5.487
 8079TIP3   OH224181   0.708   4.920   5.492
 8079TIP3    H124182   0.777   4.891   5.555
 8079TIP3    H224183   0.625   4.902   5.540
 8080TIP3   OH224184   0.943   5.351   5.415
 8080TIP3    H124185   0.889   5.346   5.497
 8080TIP3    H224186   0.916   5.437   5.377
 8081TIP3   OH224187   0.603   5.486   3.978
 8081TIP3    H124188   0.559   5.462   3.893
 8081TIP3    H224189   0.688   5.520   3.944
 8082TIP3   OH224190   0.295   4.859   4.247
 8082TIP3    H124191   0.283   4.856   4.345
 8082TIP3    H224192   0.269   4.767   4.227
 8083TIP3   OH224193   0.474   5.299   4.563
 8083TIP3    H124194   0.423   5.371   4.522
 8083TIP3    H224195   0.524   5.263   4.486
 8084TIP3   OH224196   0.671   5.557   5.632
 8084TIP3    H124197   0.644   5.487   5.695
 8084TIP3    H224198   0.764   5.571   5.659
 8085TIP3   OH224199   0.624   5.318   4.800
 8085TIP3    H124200   0.564   5.348   4.728
 8085TIP3    H224201   0.660   5.240   4.754
 8086TIP3   OH224202   0.633   5.564   5.222
 8086TIP3    H124203   0.669   5.496   5.161
 8086TIP3    H224204   0.605   5.506   5.296
 8087TIP3   OH224205   0.315   5.017   4.884
 8087TIP3    H124206   0.226   5.052   4.902
 8087TIP3    H224207   0.365   5.042   4.962
 8088TIP3   OH224208   0.801   5.103   5.100
 8088TIP3    H124209   0.765   5.118   5.191
 8088TIP3    H224210   0.734   5.041   5.065
 8089TIP3   OH224211   0.974   6.794   5.315
 8089TIP3    H124212   0.974   6.812   5.220
 8089TIP3    H224213   1.058   6.835   5.344
 8090TIP3   OH224214   0.401   5.340   4.988
 8090TIP3    H124215   0.478   5.318   4.932
 8090TIP3    H224216   0.426   5.304   5.075
 8091TIP3   OH224217   0.394   5.238   5.281
 8091TIP3    H124218   0.329   5.311   5.272
 8091TIP3    H224219   0.465   5.285   5.329
 8092TIP3   OH224220   1.002   5.880   5.001
 8092TIP3    H124221   1.027   5.932   4.921
 8092TIP3    H224222   0.919   5.838   4.973
 8093TIP3   OH224223   0.556   4.950   4.250
 8093TIP3    H124224   0.459   4.939   4.246
 8093TIP3    H224225   0.567   5.046   4.268
 8094TIP3   OH224226   0.490   5.965   5.370
 8094TIP3    H124227   0.527   5.967   5.458
 8094TIP3    H224228   0.437   6.047   5.368
 8095TIP3   OH224229   0.629   5.204   4.344
 8095TIP3    H124230   0.725   5.209   4.358
 8095TIP3    H224231   0.611   5.283   4.290
 8096TIP3   OH224232   0.239   5.797   4.219
 8096TIP3    H124233   0.173   5.867   4.206
 8096TIP3    H224234   0.185   5.727   4.259
 8097TIP3   OH224235   0.457   5.682   5.745
 8097TIP3    H124236   0.392   5.634   5.693
 8097TIP3    H224237   0.540   5.659   5.699
 8098TIP3   OH224238   0.664   6.216   5.264
 8098TIP3    H124239   0.568   6.224   5.278
 8098TIP3    H224240   0.698   6.268   5.340
 8099TIP3   OH224241   1.068   5.299   4.178
 8099TIP3    H124242   1.007   5.254   4.114
 8099TIP3    H224243   1.066   5.388   4.137
 8100TIP3   OH224244   1.289   6.153   5.256
 8100TIP3    H124245   1.191   6.149   5.247
 8100TIP3    H224246   1.316   6.124   5.166
 8101TIP3   OH224247   0.776   6.112   4.088
 8101TIP3    H124248   0.744   6.035   4.136
 8101TIP3    H224249   0.788   6.077   3.997
 8102TIP3   OH224250   0.775   5.743   4.915
 8102TIP3    H124251   0.682   5.716   4.929
 8102TIP3    H224252   0.809   5.663   4.870
 8103TIP3   OH224253   0.567   5.945   5.106
 8103TIP3    H124254   0.552   5.955   5.202
 8103TIP3    H224255   0.655   5.905   5.103
 8104TIP3   OH224256   0.536   5.847   3.984
 8104TIP3    H124257   0.576   5.820   4.069
 8104TIP3    H224258   0.448   5.806   3.989
 8105TIP3   OH224259   0.802   6.476   5.150
 8105TIP3    H124260   0.721   6.422   5.145
 8105TIP3    H224261   0.784   6.544   5.081
 8106TIP3   OH224262   0.869   6.315   3.803
 8106TIP3    H124263   0.903   6.389   3.750
 8106TIP3    H224264   0.789   6.358   3.839
 8107TIP3   OH224265   0.695   5.787   4.219
 8107TIP3    H124266   0.683   5.709   4.277
 8107TIP3    H224267   0.790   5.774   4.194
 8108TIP3   OH224268   0.725   5.161   5.361
 8108TIP3    H124269   0.809   5.195   5.395
 8108TIP3    H224270   0.715   5.077   5.411
 8109TIP3   OH224271   0.613   4.899   4.526
 8109TIP3    H124272   0.590   4.920   4.433
 8109TIP3    H224273   0.647   4.985   4.558
 8110TIP3   OH224274   0.293   5.095   4.619
 8110TIP3    H124275   0.358   5.168   4.607
 8110TIP3    H224276   0.295   5.082   4.715
 8111TIP3   OH224277   0.573   5.396   5.426
 8111TIP3    H124278   0.602   5.453   5.501
 8111TIP3    H224279   0.630   5.318   5.437
 8112TIP3   OH224280   0.444   4.807   4.735
 8112TIP3    H124281   0.418   4.889   4.781
 8112TIP3    H224282   0.499   4.843   4.662
 8113TIP3   OH224283   1.205   5.274   5.409
 8113TIP3    H124284   1.107   5.284   5.418
 8113TIP3    H224285   1.214   5.284   5.314
 8114TIP3   OH224286   0.855   5.498   4.797
 8114TIP3    H124287   0.777   5.441   4.809
 8114TIP3    H224288   0.925   5.449   4.846
 8115TIP3   OH224289   0.825   6.453   4.748
 8115TIP3    H124290   0.782   6.502   4.674
 8115TIP3    H224291   0.919   6.473   4.727
 8116TIP3   OH224292   0.733   6.348   5.489
 8116TIP3    H124293   0.709   6.295   5.569
 8116TIP3    H224294   0.796   6.411   5.527
 8117TIP3   OH224295   0.498   6.066   3.814
 8117TIP3    H124296   0.533   5.995   3.870
 8117TIP3    H224297   0.550   6.058   3.732
 8118TIP3   OH224298   0.238   5.749   3.935
 8118TIP3    H124299   0.228   5.751   4.032
 8118TIP3    H224300   0.235   5.652   3.918
 8119TIP3   OH224301   0.822   5.988   5.306
 8119TIP3    H124302   0.900   6.030   5.264
 8119TIP3    H224303   0.756   6.059   5.292
 8120TIP3   OH224304   0.050   5.253   4.239
 8120TIP3    H124305   0.027   5.246   4.143
 8120TIP3    H224306   0.148   5.256   4.230
 8121TIP3   OH224307   0.688   5.914   5.712
 8121TIP3    H124308   0.763   5.887   5.658
 8121TIP3    H224309   0.690   5.848   5.784
 8122TIP3   OH224310   0.833   5.568   3.851
 8122TIP3    H124311   0.813   5.525   3.765
 8122TIP3    H224312   0.800   5.659   3.828
 8123TIP3   OH224313   0.265   5.035   5.422
 8123TIP3    H124314   0.318   5.099   5.370
 8123TIP3    H224315   0.229   5.095   5.491
 8124TIP3   OH224316   0.386   5.683   5.324
 8124TIP3    H124317   0.480   5.668   5.298
 8124TIP3    H224318   0.371   5.768   5.278
 8125TIP3   OH224319   0.919   5.584   5.751
 8125TIP3    H124320   0.973   5.508   5.776
 8125TIP3    H224321   0.985   5.647   5.718
 8126TIP3   OH224322   0.955   5.839   5.489
 8126TIP3    H124323   0.897   5.895   5.433
 8126TIP3    H224324   1.043   5.864   5.452
 8127TIP3   OH224325   0.448   4.850   5.559
 8127TIP3    H124326   0.385   4.920   5.530
 8127TIP3    H224327   0.393   4.771   5.548
 8128TIP3   OH224328   0.576   5.355   5.794
 8128TIP3    H124329   0.606   5.353   5.886
 8128TIP3    H224330   0.488   5.314   5.801
 8129TIP3   OH224331   0.806   5.291   5.641
 8129TIP3    H124332   0.732   5.296   5.704
 8129TIP3    H224333   0.881   5.267   5.699
 8130TIP3   OH224334   1.037   5.242   5.794
 8130TIP3    H124335   1.037   5.147   5.816
 8130TIP3    H224336   1.026   5.285   5.881
 8131TIP3   OH224337   0.540   4.861   5.821
 8131TIP3    H124338   0.601   4.785   5.819
 8131TIP3    H224339   0.499   4.855   5.733
 8132TIP3   OH224340   0.615   5.071   5.976
 8132TIP3    H124341   0.595   4.994   5.919
 8132TIP3    H224342   0.527   5.114   5.980
 8133TIP3   OH224343   1.080   6.543   4.708
 8133TIP3    H124344   1.107   6.572   4.797
 8133TIP3    H224345   1.144   6.586   4.650
 8134TIP3   OH224346   1.113   6.565   4.989
 8134TIP3    H124347   1.061   6.483   4.982
 8134TIP3    H224348   1.180   6.535   5.053
 8135TIP3   OH224349   1.157   6.244   5.558
 8135TIP3    H124350   1.085   6.255   5.624
 8135TIP3    H224351   1.203   6.331   5.564
 8136TIP3   OH224352   0.967   5.757   4.180
 8136TIP3    H124353   1.034   5.821   4.147
 8136TIP3    H224354   1.015   5.718   4.257
 8137TIP3   OH224355   1.097   5.625   4.383
 8137TIP3    H124356   1.031   5.582   4.442
 8137TIP3    H224357   1.163   5.659   4.447
 8138TIP3   OH224358   1.153   6.017   4.815
 8138TIP3    H124359   1.205   5.949   4.767
 8138TIP3    H224360   1.149   6.089   4.749
 8139TIP3   OH224361   0.981   6.318   5.007
 8139TIP3    H124362   0.910   6.361   5.059
 8139TIP3    H224363   0.930   6.272   4.937
 8140TIP3   OH224364   1.034   5.532   4.030
 8140TIP3    H124365   0.964   5.532   3.962
 8140TIP3    H224366   1.004   5.609   4.084
 8141TIP3   OH224367   0.903   5.206   3.983
 8141TIP3    H124368   0.860   5.241   3.904
 8141TIP3    H224369   0.881   5.111   3.975
 8142TIP3   OH224370   0.909   5.482   4.528
 8142TIP3    H124371   0.917   5.386   4.518
 8142TIP3    H224372   0.895   5.493   4.624
 8143TIP3   OH224373   1.200   5.907   5.386
 8143TIP3    H124374   1.272   5.842   5.374
 8143TIP3    H224375   1.225   5.978   5.325
 8144TIP3   OH224376   1.379   5.705   5.393
 8144TIP3    H124377   1.307   5.655   5.437
 8144TIP3    H224378   1.455   5.646   5.411
 8145TIP3   OH224379   0.847   4.941   3.972
 8145TIP3    H124380   0.921   4.906   4.024
 8145TIP3    H224381   0.775   4.877   3.988
 8146TIP3   OH224382   0.908   5.199   4.421
 8146TIP3    H124383   0.948   5.111   4.436
 8146TIP3    H224384   0.964   5.231   4.349
 8147TIP3   OH224385   1.067   5.367   4.921
 8147TIP3    H124386   1.152   5.391   4.878
 8147TIP3    H224387   1.082   5.407   5.009
 8148TIP3   OH224388   1.140   5.514   5.152
 8148TIP3    H124389   1.062   5.550   5.199
 8148TIP3    H224390   1.172   5.594   5.105
 8149TIP3   OH224391   1.586   5.029   5.631
 8149TIP3    H124392   1.670   5.042   5.704
 8149TIP3    H224393   1.564   5.129   5.628
 8150TIP3   OH224394   1.015   4.949   4.462
 8150TIP3    H124395   1.063   4.931   4.545
 8150TIP3    H224396   0.954   4.872   4.459
 8151TIP3   OH224397   1.453   5.244   5.534
 8151TIP3    H124398   1.379   5.295   5.576
 8151TIP3    H224399   1.413   5.228   5.447
 8152TIP3   OH224400   1.094   4.877   4.097
 8152TIP3    H124401   1.132   4.809   4.039
 8152TIP3    H224402   1.160   4.949   4.092
 8153TIP3   OH224403   0.662   6.398   4.362
 8153TIP3    H124404   0.716   6.398   4.280
 8153TIP3    H224405   0.698   6.475   4.409
 8154TIP3   OH224406   0.574   6.650   5.294
 8154TIP3    H124407   0.636   6.581   5.268
 8154TIP3    H224408   0.630   6.706   5.352
 8155TIP3   OH224409   1.349   4.967   5.414
 8155TIP3    H124410   1.277   5.032   5.413
 8155TIP3    H224411   1.307   4.899   5.355
 8156TIP3   OH224412   0.538   6.455   5.033
 8156TIP3    H124413   0.453   6.478   5.072
 8156TIP3    H224414   0.560   6.537   4.986
 8157TIP3   OH224415   0.772   6.651   4.939
 8157TIP3    H124416   0.742   6.729   4.888
 8157TIP3    H224417   0.782   6.583   4.868
 8158TIP3   OH224418   0.582   4.926   5.028
 8158TIP3    H124419   0.525   4.851   5.054
 8158TIP3    H224420   0.643   4.884   4.964
 8159TIP3   OH224421   1.082   4.808   4.917
 8159TIP3    H124422   1.119   4.856   4.840
 8159TIP3    H224423   0.987   4.824   4.907
 8160TIP3   OH224424   1.178   4.900   4.680
 8160TIP3    H124425   1.252   4.848   4.640
 8160TIP3    H224426   1.213   4.991   4.664
 8161TIP3   OH224427   0.278   4.655   4.911
 8161TIP3    H124428   0.319   4.708   4.840
 8161TIP3    H224429   0.318   4.694   4.990
 8162TIP3   OH224430   0.800   4.810   4.888
 8162TIP3    H124431   0.799   4.771   4.799
 8162TIP3    H224432   0.787   4.731   4.945
 8163TIP3   OH224433   0.832   4.736   4.453
 8163TIP3    H124434   0.748   4.784   4.471
 8163TIP3    H224435   0.814   4.651   4.497
 8164TIP3   OH224436   0.270   4.841   4.515
 8164TIP3    H124437   0.290   4.800   4.599
 8164TIP3    H224438   0.261   4.935   4.542
 8165TIP3   OH224439   0.808   6.381   4.130
 8165TIP3    H124440   0.800   6.283   4.117
 8165TIP3    H224441   0.762   6.413   4.049
 8166TIP3   OH224442   1.087   4.969   5.832
 8166TIP3    H124443   1.088   4.937   5.925
 8166TIP3    H224444   1.181   4.965   5.813
 8167TIP3   OH224445   1.030   6.523   5.313
 8167TIP3    H124446   0.951   6.491   5.265
 8167TIP3    H224447   1.007   6.618   5.324
 8168TIP3   OH224448   2.300   5.898   4.078
 8168TIP3    H124449   2.268   5.988   4.057
 8168TIP3    H224450   2.225   5.845   4.046
 8169TIP3   OH224451   2.297   5.899   4.468
 8169TIP3    H124452   2.334   5.873   4.555
 8169TIP3    H224453   2.258   5.815   4.438
 8170TIP3   OH224454   1.594   5.790   4.830
 8170TIP3    H124455   1.624   5.721   4.892
 8170TIP3    H224456   1.675   5.842   4.820
 8171TIP3   OH224457   2.543   6.202   4.146
 8171TIP3    H124458   2.528   6.131   4.210
 8171TIP3    H224459   2.574   6.274   4.203
 8172TIP3   OH224460   1.569   6.202   4.550
 8172TIP3    H124461   1.561   6.104   4.550
 8172TIP3    H224462   1.666   6.211   4.546
 8173TIP3   OH224463   1.274   5.400   4.334
 8173TIP3    H124464   1.227   5.484   4.351
 8173TIP3    H224465   1.204   5.350   4.288
 8174TIP3   OH224466   1.332   5.690   4.514
 8174TIP3    H124467   1.382   5.612   4.547
 8174TIP3    H224468   1.393   5.726   4.448
 8175TIP3   OH224469   2.196   6.662   4.164
 8175TIP3    H124470   2.237   6.591   4.110
 8175TIP3    H224471   2.186   6.618   4.249
 8176TIP3   OH224472   2.096   6.124   4.511
 8176TIP3    H124473   2.137   6.045   4.470
 8176TIP3    H224474   2.178   6.171   4.536
 8177TIP3   OH224475   3.108   5.445   4.505
 8177TIP3    H124476   3.141   5.526   4.548
 8177TIP3    H224477   3.138   5.458   4.413
 8178TIP3   OH224478   2.508   5.623   4.540
 8178TIP3    H124479   2.552   5.539   4.562
 8178TIP3    H224480   2.477   5.605   4.450
 8179TIP3   OH224481   1.849   5.283   4.507
 8179TIP3    H124482   1.831   5.355   4.444
 8179TIP3    H224483   1.802   5.209   4.463
 8180TIP3   OH224484   2.544   5.376   4.127
 8180TIP3    H124485   2.614   5.360   4.194
 8180TIP3    H224486   2.598   5.409   4.053
 8181TIP3   OH224487   1.480   5.483   4.616
 8181TIP3    H124488   1.564   5.465   4.663
 8181TIP3    H224489   1.494   5.428   4.535
 8182TIP3   OH224490   1.920   5.682   4.413
 8182TIP3    H124491   2.015   5.658   4.423
 8182TIP3    H224492   1.883   5.598   4.379
 8183TIP3   OH224493   3.185   5.651   4.676
 8183TIP3    H124494   3.099   5.695   4.659
 8183TIP3    H224495   3.199   5.675   4.769
 8184TIP3   OH224496   1.842   5.266   4.942
 8184TIP3    H124497   1.785   5.303   4.872
 8184TIP3    H224498   1.789   5.288   5.022
 8185TIP3   OH224499   2.186   6.117   3.949
 8185TIP3    H124500   2.146   6.101   3.863
 8185TIP3    H224501   2.141   6.199   3.977
 8186TIP3   OH224502   1.950   6.042   4.733
 8186TIP3    H124503   1.891   6.111   4.770
 8186TIP3    H224504   1.994   6.091   4.660
 8187TIP3   OH224505   2.747   5.381   4.306
 8187TIP3    H124506   2.738   5.334   4.389
 8187TIP3    H224507   2.801   5.458   4.332
 8188TIP3   OH224508   1.715   5.381   4.725
 8188TIP3    H124509   1.777   5.454   4.749
 8188TIP3    H224510   1.765   5.341   4.650
 8189TIP3   OH224511   1.779   6.238   4.834
 8189TIP3    H124512   1.753   6.326   4.799
 8189TIP3    H224513   1.701   6.220   4.891
 8190TIP3   OH224514   1.167   5.927   4.070
 8190TIP3    H124515   1.129   5.953   3.984
 8190TIP3    H224516   1.201   6.013   4.104
 8191TIP3   OH224517   2.610   6.445   4.311
 8191TIP3    H124518   2.520   6.435   4.350
 8191TIP3    H224519   2.600   6.531   4.266
 8192TIP3   OH224520   2.902   5.349   4.671
 8192TIP3    H124521   2.815   5.375   4.637
 8192TIP3    H224522   2.963   5.381   4.601
 8193TIP3   OH224523   2.193   4.982   4.652
 8193TIP3    H124524   2.184   4.887   4.677
 8193TIP3    H224525   2.117   5.019   4.702
 8194TIP3   OH224526   2.308   6.489   3.980
 8194TIP3    H124527   2.358   6.405   3.964
 8194TIP3    H224528   2.372   6.553   3.941
 8195TIP3   OH224529   2.454   6.274   3.896
 8195TIP3    H124530   2.419   6.193   3.857
 8195TIP3    H224531   2.493   6.241   3.980
 8196TIP3   OH224532   2.837   6.354   4.654
 8196TIP3    H124533   2.824   6.276   4.596
 8196TIP3    H224534   2.820   6.428   4.592
 8197TIP3   OH224535   2.130   5.749   3.914
 8197TIP3    H124536   2.050   5.801   3.892
 8197TIP3    H224537   2.175   5.745   3.828
 8198TIP3   OH224538   2.087   5.536   3.624
 8198TIP3    H124539   2.154   5.587   3.673
 8198TIP3    H224540   2.144   5.472   3.577
 8199TIP3   OH224541   3.032   5.995   4.502
 8199TIP3    H124542   2.948   6.045   4.505
 8199TIP3    H224543   3.062   6.017   4.411
 8200TIP3   OH224544   2.478   5.832   3.881
 8200TIP3    H124545   2.424   5.855   3.960
 8200TIP3    H224546   2.562   5.806   3.925
 8201TIP3   OH224547   2.711   5.868   4.801
 8201TIP3    H124548   2.708   5.951   4.852
 8201TIP3    H224549   2.625   5.873   4.754
 8202TIP3   OH224550   1.710   5.828   4.302
 8202TIP3    H124551   1.668   5.769   4.235
 8202TIP3    H224552   1.786   5.773   4.332
 8203TIP3   OH224553   1.840   6.242   4.447
 8203TIP3    H124554   1.820   6.205   4.360
 8203TIP3    H224555   1.928   6.205   4.466
 8204TIP3   OH224556   1.841   5.800   4.655
 8204TIP3    H124557   1.876   5.773   4.568
 8204TIP3    H224558   1.888   5.885   4.672
 8205TIP3   OH224559   2.369   6.438   4.433
 8205TIP3    H124560   2.359   6.516   4.490
 8205TIP3    H224561   2.354   6.363   4.495
 8206TIP3   OH224562   1.984   6.357   4.979
 8206TIP3    H124563   1.923   6.416   5.029
 8206TIP3    H224564   1.919   6.303   4.930
 8207TIP3   OH224565   2.314   5.691   3.710
 8207TIP3    H124566   2.374   5.750   3.760
 8207TIP3    H224567   2.341   5.712   3.617
 8208TIP3   OH224568   1.740   5.910   5.086
 8208TIP3    H124569   1.744   5.999   5.126
 8208TIP3    H224570   1.645   5.891   5.097
 8209TIP3   OH224571   2.062   6.366   3.986
 8209TIP3    H124572   2.145   6.417   3.993
 8209TIP3    H224573   2.002   6.428   3.943
 8210TIP3   OH224574   1.776   6.523   5.068
 8210TIP3    H124575   1.738   6.520   4.978
 8210TIP3    H224576   1.698   6.500   5.125
 8211TIP3   OH224577   2.832   4.928   3.759
 8211TIP3    H124578   2.751   4.950   3.809
 8211TIP3    H224579   2.847   5.011   3.709
 8212TIP3   OH224580   1.575   5.672   4.106
 8212TIP3    H124581   1.506   5.715   4.051
 8212TIP3    H224582   1.541   5.583   4.114
 8213TIP3   OH224583   2.634   6.295   3.309
 8213TIP3    H124584   2.643   6.391   3.292
 8213TIP3    H224585   2.726   6.264   3.296
 8214TIP3   OH224586   1.356   6.056   5.012
 8214TIP3    H124587   1.289   6.033   4.945
 8214TIP3    H224588   1.395   5.970   5.035
 8215TIP3   OH224589   1.210   6.247   4.644
 8215TIP3    H124590   1.307   6.242   4.636
 8215TIP3    H224591   1.199   6.325   4.700
 8216TIP3   OH224592   3.073   6.702   4.701
 8216TIP3    H124593   3.074   6.605   4.716
 8216TIP3    H224594   2.990   6.726   4.748
 8217TIP3   OH224595   2.177   6.487   4.834
 8217TIP3    H124596   2.175   6.579   4.869
 8217TIP3    H224597   2.107   6.444   4.890
 8218TIP3   OH224598   1.945   6.613   3.788
 8218TIP3    H124599   1.896   6.594   3.706
 8218TIP3    H224600   1.910   6.700   3.815
 8219TIP3   OH224601   1.381   6.462   4.175
 8219TIP3    H124602   1.427   6.452   4.261
 8219TIP3    H224603   1.329   6.379   4.171
 8220TIP3   OH224604   2.143   6.516   3.426
 8220TIP3    H124605   2.201   6.445   3.391
 8220TIP3    H224606   2.178   6.526   3.517
 8221TIP3   OH224607   2.196   6.564   3.695
 8221TIP3    H124608   2.107   6.574   3.737
 8221TIP3    H224609   2.245   6.523   3.768
 8222TIP3   OH224610   2.963   5.829   4.977
 8222TIP3    H124611   2.880   5.838   4.928
 8222TIP3    H224612   2.981   5.733   4.967
 8223TIP3   OH224613   1.559   6.241   4.998
 8223TIP3    H124614   1.609   6.223   5.080
 8223TIP3    H224615   1.485   6.177   5.006
 8224TIP3   OH224616   1.959   5.060   4.788
 8224TIP3    H124617   1.870   5.030   4.757
 8224TIP3    H224618   1.933   5.141   4.836
 8225TIP3   OH224619   2.498   5.174   4.980
 8225TIP3    H124620   2.569   5.144   5.040
 8225TIP3    H224621   2.417   5.152   5.030
 8226TIP3   OH224622   2.730   5.605   4.898
 8226TIP3    H124623   2.680   5.602   4.983
 8226TIP3    H224624   2.707   5.693   4.863
 8227TIP3   OH224625   2.392   5.733   3.455
 8227TIP3    H124626   2.358   5.710   3.367
 8227TIP3    H224627   2.478   5.774   3.431
 8228TIP3   OH224628   2.104   5.109   3.758
 8228TIP3    H124629   2.070   5.105   3.850
 8228TIP3    H224630   2.065   5.027   3.723
 8229TIP3   OH224631   1.890   5.578   4.804
 8229TIP3    H124632   1.843   5.601   4.886
 8229TIP3    H224633   1.875   5.659   4.751
 8230TIP3   OH224634   1.775   5.464   4.319
 8230TIP3    H124635   1.683   5.437   4.337
 8230TIP3    H224636   1.788   5.423   4.231
 8231TIP3   OH224637   2.267   5.548   4.049
 8231TIP3    H124638   2.216   5.619   4.004
 8231TIP3    H224639   2.322   5.514   3.976
 8232TIP3   OH224640   2.441   5.824   5.130
 8232TIP3    H124641   2.419   5.751   5.193
 8232TIP3    H224642   2.535   5.838   5.153
 8233TIP3   OH224643   2.422   5.574   4.284
 8233TIP3    H124644   2.359   5.600   4.213
 8233TIP3    H224645   2.459   5.494   4.240
 8234TIP3   OH224646   1.709   5.608   5.014
 8234TIP3    H124647   1.747   5.672   5.076
 8234TIP3    H224648   1.704   5.526   5.067
 8235TIP3   OH224649   1.762   5.084   3.723
 8235TIP3    H124650   1.751   5.083   3.820
 8235TIP3    H224651   1.683   5.136   3.697
 8236TIP3   OH224652   1.304   5.123   4.599
 8236TIP3    H124653   1.380   5.158   4.649
 8236TIP3    H224654   1.343   5.097   4.514
 8237TIP3   OH224655   1.269   5.106   4.114
 8237TIP3    H124656   1.315   5.142   4.035
 8237TIP3    H224657   1.208   5.181   4.132
 8238TIP3   OH224658   2.431   5.821   4.706
 8238TIP3    H124659   2.465   5.750   4.646
 8238TIP3    H224660   2.402   5.767   4.782
 8239TIP3   OH224661   2.108   5.288   4.379
 8239TIP3    H124662   2.028   5.284   4.436
 8239TIP3    H224663   2.180   5.275   4.443
 8240TIP3   OH224664   1.537   5.341   4.387
 8240TIP3    H124665   1.443   5.348   4.358
 8240TIP3    H224666   1.562   5.250   4.363
 8241TIP3   OH224667   1.802   5.336   4.079
 8241TIP3    H124668   1.896   5.350   4.057
 8241TIP3    H224669   1.756   5.358   3.994
 8242TIP3   OH224670   2.595   5.363   4.584
 8242TIP3    H124671   2.563   5.375   4.676
 8242TIP3    H224672   2.530   5.301   4.549
 8243TIP3   OH224673   1.652   5.373   3.854
 8243TIP3    H124674   1.582   5.326   3.805
 8243TIP3    H224675   1.704   5.410   3.779
 8244TIP3   OH224676   2.768   7.051   4.803
 8244TIP3    H124677   2.767   7.073   4.708
 8244TIP3    H224678   2.850   7.096   4.833
 8245TIP3   OH224679   1.714   6.157   5.216
 8245TIP3    H124680   1.800   6.178   5.260
 8245TIP3    H224681   1.656   6.162   5.295
 8246TIP3   OH224682   2.185   5.616   4.477
 8246TIP3    H124683   2.258   5.576   4.427
 8246TIP3    H224684   2.191   5.570   4.563
 8247TIP3   OH224685   1.705   5.101   4.359
 8247TIP3    H124686   1.670   5.022   4.407
 8247TIP3    H224687   1.754   5.059   4.287
 8248TIP3   OH224688   2.162   5.513   4.766
 8248TIP3    H124689   2.073   5.550   4.781
 8248TIP3    H224690   2.220   5.574   4.816
 8249TIP3   OH224691   1.898   5.901   3.860
 8249TIP3    H124692   1.826   5.834   3.849
 8249TIP3    H224693   1.878   5.934   3.951
 8250TIP3   OH224694   2.797   6.138   4.488
 8250TIP3    H124695   2.821   6.188   4.407
 8250TIP3    H224696   2.713   6.094   4.461
 8251TIP3   OH224697   2.356   5.211   3.728
 8251TIP3    H124698   2.260   5.191   3.737
 8251TIP3    H224699   2.362   5.305   3.753
 8252TIP3   OH224700   2.299   6.221   4.860
 8252TIP3    H124701   2.327   6.200   4.950
 8252TIP3    H224702   2.257   6.308   4.870
 8253TIP3   OH224703   2.424   5.462   3.831
 8253TIP3    H124704   2.521   5.466   3.846
 8253TIP3    H224705   2.407   5.542   3.778
 8254TIP3   OH224706   1.592   5.924   4.535
 8254TIP3    H124707   1.630   5.896   4.450
 8254TIP3    H224708   1.639   5.867   4.597
 8255TIP3   OH224709   2.044   6.050   3.684
 8255TIP3    H124710   1.995   6.136   3.688
 8255TIP3    H224711   1.990   5.995   3.744
 8256TIP3   OH224712   1.474   5.845   5.152
 8256TIP3    H124713   1.496   5.831   5.246
 8256TIP3    H224714   1.405   5.778   5.137
 8257TIP3   OH224715   2.203   5.962   5.169
 8257TIP3    H124716   2.142   5.902   5.122
 8257TIP3    H224717   2.290   5.924   5.143
 8258TIP3   OH224718   2.456   6.486   4.752
 8258TIP3    H124719   2.360   6.479   4.768
 8258TIP3    H224720   2.485   6.534   4.832
 8259TIP3   OH224721   2.864   5.554   3.664
 8259TIP3    H124722   2.803   5.510   3.601
 8259TIP3    H224723   2.862   5.644   3.624
 8260TIP3   OH224724   3.088   6.414   4.742
 8260TIP3    H124725   2.990   6.405   4.735
 8260TIP3    H224726   3.113   6.381   4.653
 8261TIP3   OH224727   2.570   6.371   3.574
 8261TIP3    H124728   2.543   6.301   3.635
 8261TIP3    H224729   2.582   6.323   3.490
 8262TIP3   OH224730   2.564   6.001   4.404
 8262TIP3    H124731   2.471   5.976   4.418
 8262TIP3    H224732   2.598   5.919   4.361
 8263TIP3   OH224733   1.694   6.230   4.164
 8263TIP3    H124734   1.690   6.309   4.108
 8263TIP3    H224735   1.600   6.208   4.174
 8264TIP3   OH224736   1.260   5.530   3.871
 8264TIP3    H124737   1.303   5.616   3.891
 8264TIP3    H224738   1.181   5.534   3.930
 8265TIP3   OH224739   1.824   5.991   4.104
 8265TIP3    H124740   1.792   6.081   4.125
 8265TIP3    H224741   1.791   5.940   4.180
 8266TIP3   OH224742   1.964   6.570   4.631
 8266TIP3    H124743   2.009   6.641   4.580
 8266TIP3    H224744   2.039   6.532   4.679
 8267TIP3   OH224745   1.610   6.467   4.013
 8267TIP3    H124746   1.525   6.476   4.061
 8267TIP3    H224747   1.642   6.560   4.016
 8268TIP3   OH224748   2.348   6.206   4.591
 8268TIP3    H124749   2.337   6.204   4.689
 8268TIP3    H224750   2.426   6.150   4.580
 8269TIP3   OH224751   2.328   6.103   3.475
 8269TIP3    H124752   2.382   6.076   3.553
 8269TIP3    H224753   2.240   6.070   3.502
 8270TIP3   OH224754   2.598   6.737   4.642
 8270TIP3    H124755   2.520   6.678   4.639
 8270TIP3    H224756   2.578   6.798   4.569
 8271TIP3   OH224757   2.664   6.571   3.291
 8271TIP3    H124758   2.701   6.646   3.242
 8271TIP3    H224759   2.583   6.614   3.326
 8272TIP3   OH224760   1.682   5.350   5.156
 8272TIP3    H124761   1.585   5.354   5.171
 8272TIP3    H224762   1.712   5.295   5.231
 8273TIP3   OH224763   2.488   6.033   3.689
 8273TIP3    H124764   2.477   5.966   3.759
 8273TIP3    H224765   2.585   6.028   3.676
 8274TIP3   OH224766   1.403   6.432   4.790
 8274TIP3    H124767   1.455   6.354   4.816
 8274TIP3    H224768   1.429   6.494   4.859
 8275TIP3   OH224769   1.689   6.078   3.474
 8275TIP3    H124770   1.702   5.985   3.447
 8275TIP3    H224771   1.668   6.068   3.569
 8276TIP3   OH224772   1.634   6.084   3.745
 8276TIP3    H124773   1.708   6.055   3.800
 8276TIP3    H224774   1.638   6.182   3.754
 8277TIP3   OH224775   1.368   5.776   3.951
 8277TIP3    H124776   1.300   5.821   4.006
 8277TIP3    H224777   1.381   5.844   3.881
 8278TIP3   OH224778   2.521   5.414   4.844
 8278TIP3    H124779   2.604   5.450   4.879
 8278TIP3    H224780   2.511   5.332   4.898
 8279TIP3   OH224781   2.402   5.161   4.010
 8279TIP3    H124782   2.390   5.183   3.916
 8279TIP3    H224783   2.443   5.243   4.046
 8280TIP3   OH224784   1.902   6.280   3.693
 8280TIP3    H124785   1.815   6.304   3.730
 8280TIP3    H224786   1.916   6.355   3.634
 8281TIP3   OH224787   2.085   5.347   4.110
 8281TIP3    H124788   2.150   5.418   4.093
 8281TIP3    H224789   2.093   5.336   4.207
 8282TIP3   OH224790   2.360   5.659   4.914
 8282TIP3    H124791   2.386   5.710   4.993
 8282TIP3    H224792   2.414   5.578   4.922
 8283TIP3   OH224793   2.231   5.064   4.208
 8283TIP3    H124794   2.231   5.140   4.269
 8283TIP3    H224795   2.293   5.098   4.139
 8284TIP3   OH224796   1.649   6.357   3.763
 8284TIP3    H124797   1.617   6.426   3.702
 8284TIP3    H224798   1.631   6.399   3.851
 8285TIP3   OH224799   1.745   5.071   3.999
 8285TIP3    H124800   1.743   5.160   4.038
 8285TIP3    H224801   1.841   5.052   4.006
 8286TIP3   OH224802   2.998   5.563   4.896
 8286TIP3    H124803   2.900   5.562   4.903
 8286TIP3    H224804   3.008   5.509   4.817
 8287TIP3   OH224805   2.649   5.757   4.285
 8287TIP3    H124806   2.574   5.696   4.297
 8287TIP3    H224807   2.721   5.710   4.332
 8288TIP3   OH224808   1.365   5.981   3.753
 8288TIP3    H124809   1.437   6.046   3.762
 8288TIP3    H224810   1.407   5.922   3.687
 8289TIP3   OH224811   1.304   5.259   3.890
 8289TIP3    H124812   1.305   5.357   3.887
 8289TIP3    H224813   1.227   5.239   3.835
 8290TIP3   OH224814   2.619   6.717   4.232
 8290TIP3    H124815   2.576   6.764   4.157
 8290TIP3    H224816   2.713   6.735   4.212
 8291TIP3   OH224817   1.691   4.980   4.760
 8291TIP3    H124818   1.665   4.947   4.672
 8291TIP3    H224819   1.684   4.900   4.816
 8292TIP3   OH224820   1.231   6.200   4.137
 8292TIP3    H124821   1.167   6.229   4.203
 8292TIP3    H224822   1.196   6.243   4.055
 8293TIP3   OH224823   1.396   6.747   5.206
 8293TIP3    H124824   1.479   6.745   5.257
 8293TIP3    H224825   1.371   6.654   5.209
 8294TIP3   OH224826   1.870   6.723   5.236
 8294TIP3    H124827   1.958   6.695   5.267
 8294TIP3    H224828   1.848   6.652   5.173
 8295TIP3   OH224829   1.852   6.280   3.383
 8295TIP3    H124830   1.796   6.208   3.422
 8295TIP3    H224831   1.929   6.227   3.353
 8296TIP3   OH224832   2.511   6.612   4.989
 8296TIP3    H124833   2.502   6.543   5.059
 8296TIP3    H224834   2.588   6.663   5.022
 8297TIP3   OH224835   2.288   6.319   3.300
 8297TIP3    H124836   2.326   6.252   3.360
 8297TIP3    H224837   2.347   6.313   3.222
 8298TIP3   OH224838   1.517   6.138   5.412
 8298TIP3    H124839   1.534   6.042   5.413
 8298TIP3    H224840   1.430   6.144   5.367
 8299TIP3   OH224841   1.501   5.796   3.609
 8299TIP3    H124842   1.557   5.764   3.682
 8299TIP3    H224843   1.567   5.801   3.537
 8300TIP3   OH224844   2.149   6.243   5.179
 8300TIP3    H124845   2.092   6.256   5.101
 8300TIP3    H224846   2.171   6.147   5.174
 8301TIP3   OH224847   2.014   5.998   3.415
 8301TIP3    H124848   2.015   6.009   3.512
 8301TIP3    H224849   2.015   5.900   3.408
 8302TIP3   OH224850   2.621   6.246   4.794
 8302TIP3    H124851   2.697   6.289   4.750
 8302TIP3    H224852   2.551   6.311   4.778
 8303TIP3   OH224853   1.642   5.872   5.399
 8303TIP3    H124854   1.728   5.845   5.365
 8303TIP3    H224855   1.668   5.914   5.484
 8304TIP3   OH224856   1.705   5.704   3.826
 8304TIP3    H124857   1.678   5.663   3.910
 8304TIP3    H224858   1.743   5.629   3.777
 8305TIP3   OH224859   1.972   5.762   5.054
 8305TIP3    H124860   1.898   5.827   5.058
 8305TIP3    H224861   2.026   5.799   4.981
 8306TIP3   OH224862   1.809   5.500   3.668
 8306TIP3    H124863   1.784   5.506   3.573
 8306TIP3    H224864   1.907   5.501   3.661
 8307TIP3   OH224865   2.495   6.170   5.188
 8307TIP3    H124866   2.574   6.137   5.143
 8307TIP3    H224867   2.487   6.106   5.262
 8308TIP3   OH224868   2.625   5.826   3.336
 8308TIP3    H124869   2.607   5.781   3.251
 8308TIP3    H224870   2.592   5.916   3.314
 8309TIP3   OH224871   2.095   5.555   5.182
 8309TIP3    H124872   2.101   5.478   5.123
 8309TIP3    H224873   2.054   5.623   5.124
 8310TIP3   OH224874   2.101   5.345   4.991
 8310TIP3    H124875   2.131   5.384   4.907
 8310TIP3    H224876   2.008   5.321   4.970
 8311TIP3   OH224877   2.124   5.875   4.866
 8311TIP3    H124878   2.211   5.886   4.825
 8311TIP3    H224879   2.069   5.941   4.818
 8312TIP3   OH224880   2.709   5.842   5.242
 8312TIP3    H124881   2.755   5.757   5.252
 8312TIP3    H224882   2.779   5.898   5.206
 8313TIP3   OH224883   2.751   6.098   4.980
 8313TIP3    H124884   2.693   6.153   4.922
 8313TIP3    H224885   2.839   6.119   4.941
 8314TIP3   OH224886   1.976   5.664   5.415
 8314TIP3    H124887   1.907   5.596   5.429
 8314TIP3    H224888   2.011   5.638   5.327
 8315TIP3   OH224889   2.234   5.106   5.061
 8315TIP3    H124890   2.184   5.187   5.037
 8315TIP3    H224891   2.168   5.036   5.048
 8316TIP3   OH224892   2.359   5.607   5.274
 8316TIP3    H124893   2.349   5.594   5.370
 8316TIP3    H224894   2.269   5.582   5.245
 8317TIP3   OH224895   2.599   5.562   5.130
 8317TIP3    H124896   2.525   5.559   5.193
 8317TIP3    H224897   2.674   5.529   5.185
 8318TIP3   OH224898   2.827   5.501   5.278
 8318TIP3    H124899   2.841   5.405   5.292
 8318TIP3    H224900   2.825   5.535   5.370
 8319TIP3   OH224901   1.811   5.445   5.472
 8319TIP3    H124902   1.833   5.358   5.435
 8319TIP3    H224903   1.852   5.438   5.561
 8320TIP3   OH224904   2.319   5.115   5.323
 8320TIP3    H124905   2.391   5.048   5.318
 8320TIP3    H224906   2.286   5.110   5.231
 8321TIP3   OH224907   2.393   5.330   5.476
 8321TIP3    H124908   2.373   5.258   5.413
 8321TIP3    H224909   2.314   5.387   5.468
 8322TIP3   OH224910   1.618   6.562   3.577
 8322TIP3    H124911   1.713   6.551   3.556
 8322TIP3    H224912   1.589   6.611   3.498
 8323TIP3   OH224913   1.096   5.941   3.791
 8323TIP3    H124914   1.191   5.961   3.774
 8323TIP3    H224915   1.088   5.852   3.750
 8324TIP3   OH224916   1.013   6.552   4.206
 8324TIP3    H124917   0.946   6.492   4.166
 8324TIP3    H224918   1.056   6.492   4.270
 8325TIP3   OH224919   1.146   6.398   4.393
 8325TIP3    H124920   1.133   6.328   4.459
 8325TIP3    H224921   1.197   6.462   4.446
 8326TIP3   OH224922   2.873   6.807   4.193
 8326TIP3    H124923   2.902   6.833   4.282
 8326TIP3    H224924   2.944   6.843   4.137
 8327TIP3   OH224925   2.904   6.822   4.475
 8327TIP3    H124926   2.856   6.737   4.471
 8327TIP3    H224927   2.977   6.797   4.534
 8328TIP3   OH224928   2.947   6.501   5.047
 8328TIP3    H124929   2.876   6.510   5.114
 8328TIP3    H224930   2.990   6.588   5.052
 8329TIP3   OH224931   2.765   6.013   3.666
 8329TIP3    H124932   2.833   6.077   3.636
 8329TIP3    H224933   2.810   5.975   3.746
 8330TIP3   OH224934   2.892   5.882   3.871
 8330TIP3    H124935   2.826   5.839   3.930
 8330TIP3    H224936   2.959   5.915   3.935
 8331TIP3   OH224937   2.949   6.275   4.301
 8331TIP3    H124938   3.003   6.205   4.257
 8331TIP3    H224939   2.944   6.344   4.232
 8332TIP3   OH224940   2.776   6.575   4.494
 8332TIP3    H124941   2.704   6.613   4.548
 8332TIP3    H224942   2.727   6.527   4.424
 8333TIP3   OH224943   2.830   5.789   3.516
 8333TIP3    H124944   2.757   5.791   3.449
 8333TIP3    H224945   2.801   5.865   3.571
 8334TIP3   OH224946   2.699   5.462   3.469
 8334TIP3    H124947   2.656   5.494   3.389
 8334TIP3    H224948   2.678   5.366   3.464
 8335TIP3   OH224949   2.704   5.739   4.015
 8335TIP3    H124950   2.713   5.643   4.007
 8335TIP3    H224951   2.690   5.751   4.112
 8336TIP3   OH224952   1.330   5.809   4.766
 8336TIP3    H124953   1.328   5.776   4.673
 8336TIP3    H224954   1.428   5.812   4.781
 8337TIP3   OH224955   2.997   6.163   4.874
 8337TIP3    H124956   3.067   6.095   4.864
 8337TIP3    H224957   3.023   6.229   4.808
 8338TIP3   OH224958   3.179   5.964   4.884
 8338TIP3    H124959   3.104   5.914   4.924
 8338TIP3    H224960   3.252   5.901   4.901
 8339TIP3   OH224961   2.644   5.196   3.453
 8339TIP3    H124962   2.718   5.163   3.508
 8339TIP3    H224963   2.571   5.135   3.475
 8340TIP3   OH224964   2.703   5.455   3.907
 8340TIP3    H124965   2.743   5.366   3.922
 8340TIP3    H224966   2.761   5.487   3.836
 8341TIP3   OH224967   2.861   5.626   4.405
 8341TIP3    H124968   2.947   5.650   4.363
 8341TIP3    H224969   2.877   5.662   4.494
 8342TIP3   OH224970   2.934   5.772   4.635
 8342TIP3    H124971   2.857   5.806   4.685
 8342TIP3    H224972   2.968   5.853   4.591
 8343TIP3   OH224973   1.544   5.488   5.426
 8343TIP3    H124974   1.642   5.492   5.433
 8343TIP3    H224975   1.527   5.412   5.485
 8344TIP3   OH224976   3.384   5.366   5.191
 8344TIP3    H124977   3.445   5.300   5.151
 8344TIP3    H224978   3.356   5.417   5.113
 8345TIP3   OH224979   2.810   5.205   3.948
 8345TIP3    H124980   2.859   5.189   4.030
 8345TIP3    H224981   2.750   5.128   3.947
 8346TIP3   OH224982   1.511   5.191   4.775
 8346TIP3    H124983   1.572   5.114   4.778
 8346TIP3    H224984   1.573   5.264   4.761
 8347TIP3   OH224985   1.313   5.461   4.843
 8347TIP3    H124986   1.362   5.456   4.758
 8347TIP3    H224987   1.339   5.549   4.873
 8348TIP3   OH224988   3.253   5.500   4.993
 8348TIP3    H124989   3.165   5.541   5.009
 8348TIP3    H224990   3.225   5.424   4.938
 8349TIP3   OH224991   2.888   5.136   3.581
 8349TIP3    H124992   2.929   5.065   3.528
 8349TIP3    H224993   2.957   5.206   3.580
 8350TIP3   OH224994   1.298   4.969   4.344
 8350TIP3    H124995   1.204   4.962   4.369
 8350TIP3    H224996   1.293   5.026   4.264
 8351TIP3   OH224997   2.456   6.674   3.848
 8351TIP3    H124998   2.508   6.660   3.765
 8351TIP3    H224999   2.512   6.735   3.897
 8352TIP3   OH225000   1.512   5.037   5.161
 8352TIP3    H125001   1.456   5.056   5.236
 8352TIP3    H225002   1.457   5.073   5.088
 8353TIP3   OH225003   1.557   6.483   5.240
 8353TIP3    H125004   1.466   6.452   5.226
 8353TIP3    H225005   1.571   6.456   5.334
 8354TIP3   OH225006   1.736   6.510   4.780
 8354TIP3    H125007   1.690   6.586   4.740
 8354TIP3    H225008   1.823   6.522   4.737
 8355TIP3   OH225009   2.176   6.754   4.919
 8355TIP3    H125010   2.219   6.748   5.007
 8355TIP3    H225011   2.243   6.804   4.869
 8356TIP3   OH225012   2.356   6.907   4.779
 8356TIP3    H125013   2.425   6.853   4.737
 8356TIP3    H225014   2.411   6.962   4.839
 8357TIP3   OH225015   3.152   5.259   4.879
 8357TIP3    H125016   3.062   5.238   4.850
 8357TIP3    H225017   3.193   5.169   4.871
 8358TIP3   OH225018   1.413   6.779   4.799
 8358TIP3    H125019   1.321   6.807   4.782
 8358TIP3    H225020   1.414   6.777   4.896
 8359TIP3   OH225021   1.650   6.747   4.664
 8359TIP3    H125022   1.562   6.760   4.707
 8359TIP3    H225023   1.631   6.773   4.572
 8360TIP3   OH225024   2.073   6.770   4.462
 8360TIP3    H125025   2.004   6.787   4.396
 8360TIP3    H225026   2.085   6.859   4.502
 8361TIP3   OH225027   2.343   6.710   4.515
 8361TIP3    H125028   2.249   6.727   4.493
 8361TIP3    H225029   2.387   6.783   4.468
 8362TIP3   OH225030   2.548   6.901   4.426
 8362TIP3    H125031   2.535   6.984   4.376
 8362TIP3    H225032   2.576   6.839   4.354
 8363TIP3   OH225033   1.324   6.558   4.551
 8363TIP3    H125034   1.352   6.527   4.640
 8363TIP3    H225035   1.395   6.514   4.498
 8364TIP3   OH225036   1.518   6.430   4.409
 8364TIP3    H125037   1.533   6.345   4.457
 8364TIP3    H225038   1.610   6.464   4.404
 8365TIP3   OH225039   1.787   6.522   4.414
 8365TIP3    H125040   1.815   6.430   4.401
 8365TIP3    H225041   1.836   6.543   4.495
 8366TIP3   OH225042   2.352   5.176   4.491
 8366TIP3    H125043   2.314   5.105   4.545
 8366TIP3    H225044   2.431   5.134   4.452
 8367TIP3   OH225045   2.877   5.062   4.398
 8367TIP3    H125046   2.914   5.113   4.322
 8367TIP3    H225047   2.782   5.082   4.391
 8368TIP3   OH225048   2.975   5.160   4.163
 8368TIP3    H125049   3.049   5.107   4.127
 8368TIP3    H225050   3.010   5.251   4.149
 8369TIP3   OH225051   1.607   4.887   4.513
 8369TIP3    H125052   1.514   4.855   4.514
 8369TIP3    H225053   1.655   4.801   4.509
 8370TIP3   OH225054   1.397   4.759   4.163
 8370TIP3    H125055   1.427   4.813   4.088
 8370TIP3    H225056   1.370   4.827   4.228
 8371TIP3   OH225057   2.052   4.922   4.396
 8371TIP3    H125058   2.108   4.967   4.331
 8371TIP3    H225059   2.089   4.955   4.480
 8372TIP3   OH225060   2.591   5.068   4.377
 8372TIP3    H125061   2.598   5.026   4.290
 8372TIP3    H225062   2.582   4.990   4.436
 8373TIP3   OH225063   2.628   4.992   3.940
 8373TIP3    H125064   2.541   5.034   3.956
 8373TIP3    H225065   2.614   4.906   3.984
 8374TIP3   OH225066   1.111   6.334   3.937
 8374TIP3    H125067   1.025   6.301   3.904
 8374TIP3    H225068   1.101   6.428   3.911
 8375TIP3   OH225069   1.514   4.914   3.924
 8375TIP3    H125070   1.561   4.852   3.866
 8375TIP3    H225071   1.588   4.968   3.958
 8376TIP3   OH225072   2.022   5.096   4.022
 8376TIP3    H125073   2.082   5.048   4.081
 8376TIP3    H225074   2.044   5.188   4.048
 8377TIP3   OH225075   1.884   6.514   3.522
 8377TIP3    H125076   1.972   6.536   3.485
 8377TIP3    H225077   1.861   6.439   3.461
 8378TIP3   OH225078   2.604   6.638   3.616
 8378TIP3    H125079   2.597   6.540   3.606
 8378TIP3    H225080   2.557   6.667   3.536
 8379TIP3   OH225081   1.825   5.162   5.390
 8379TIP3    H125082   1.803   5.109   5.468
 8379TIP3    H225083   1.922   5.169   5.403
 8380TIP3   OH225084   2.070   5.169   5.513
 8380TIP3    H125085   2.156   5.144   5.475
 8380TIP3    H225086   2.062   5.105   5.587
 8381TIP3   OH225087   1.187   6.354   3.576
 8381TIP3    H125088   1.187   6.373   3.671
 8381TIP3    H225089   1.275   6.311   3.563
 8382TIP3   OH225090   2.892   5.231   5.308
 8382TIP3    H125091   2.909   5.198   5.399
 8382TIP3    H225092   2.980   5.224   5.267
 8383TIP3   OH225093   2.827   6.780   4.802
 8383TIP3    H125094   2.748   6.749   4.753
 8383TIP3    H225095   2.806   6.875   4.810
 8384TIP3   OH225096   4.097   6.156   3.563
 8384TIP3    H125097   4.064   6.246   3.542
 8384TIP3    H225098   4.021   6.103   3.535
 8385TIP3   OH225099   4.093   6.154   3.956
 8385TIP3    H125100   4.131   6.128   4.043
 8385TIP3    H225101   4.054   6.070   3.927
 8386TIP3   OH225102   3.390   6.045   4.318
 8386TIP3    H125103   3.418   5.976   4.380
 8386TIP3    H225104   3.473   6.094   4.305
 8387TIP3   OH225105   4.340   6.459   3.633
 8387TIP3    H125106   4.323   6.387   3.695
 8387TIP3    H225107   4.370   6.530   3.691
 8388TIP3   OH225108   3.365   6.459   4.036
 8388TIP3    H125109   3.357   6.361   4.037
 8388TIP3    H225110   3.462   6.467   4.033
 8389TIP3   OH225111   3.072   5.659   3.819
 8389TIP3    H125112   3.023   5.741   3.837
 8389TIP3    H225113   3.001   5.606   3.778
 8390TIP3   OH225114   3.129   5.946   4.001
 8390TIP3    H125115   3.178   5.868   4.035
 8390TIP3    H225116   3.190   5.979   3.933
 8391TIP3   OH225117   3.993   6.919   3.652
 8391TIP3    H125118   4.033   6.848   3.598
 8391TIP3    H225119   3.982   6.875   3.737
 8392TIP3   OH225120   3.892   6.381   3.998
 8392TIP3    H125121   3.931   6.301   3.958
 8392TIP3    H225122   3.975   6.427   4.022
 8393TIP3   OH225123   4.907   5.700   3.994
 8393TIP3    H125124   4.939   5.782   4.038
 8393TIP3    H225125   4.931   5.717   3.902
 8394TIP3   OH225126   4.309   5.882   4.026
 8394TIP3    H125127   4.347   5.796   4.050
 8394TIP3    H225128   4.273   5.862   3.937
 8395TIP3   OH225129   3.643   5.541   3.993
 8395TIP3    H125130   3.626   5.612   3.929
 8395TIP3    H225131   3.597   5.466   3.951
 8396TIP3   OH225132   4.340   5.631   3.613
 8396TIP3    H125133   4.410   5.615   3.681
 8396TIP3    H225134   4.395   5.666   3.541
 8397TIP3   OH225135   3.278   5.741   4.101
 8397TIP3    H125136   3.360   5.721   4.149
 8397TIP3    H225137   3.292   5.685   4.021
 8398TIP3   OH225138   3.716   5.939   3.901
 8398TIP3    H125139   3.810   5.915   3.912
 8398TIP3    H225140   3.678   5.854   3.867
 8399TIP3   OH225141   4.983   5.911   4.161
 8399TIP3    H125142   4.896   5.953   4.143
 8399TIP3    H225143   4.987   5.921   4.257
 8400TIP3   OH225144   3.637   5.524   4.430
 8400TIP3    H125145   3.577   5.559   4.362
 8400TIP3    H225146   3.585   5.541   4.511
 8401TIP3   OH225147   3.985   6.376   3.433
 8401TIP3    H125148   3.941   6.357   3.349
 8401TIP3    H225149   3.937   6.457   3.462
 8402TIP3   OH225150   3.747   6.299   4.219
 8402TIP3    H125151   3.687   6.367   4.257
 8402TIP3    H225152   3.790   6.348   4.145
 8403TIP3   OH225153   4.544   5.637   3.792
 8403TIP3    H125154   4.527   5.591   3.875
 8403TIP3    H225155   4.595   5.714   3.822
 8404TIP3   OH225156   3.511   5.638   4.212
 8404TIP3    H125157   3.575   5.709   4.237
 8404TIP3    H225158   3.561   5.597   4.138
 8405TIP3   OH225159   3.576   6.496   4.322
 8405TIP3    H125160   3.549   6.583   4.286
 8405TIP3    H225161   3.497   6.476   4.377
 8406TIP3   OH225162   2.966   6.184   3.557
 8406TIP3    H125163   2.927   6.211   3.471
 8406TIP3    H225164   3.000   6.269   3.591
 8407TIP3   OH225165   4.407   6.702   3.798
 8407TIP3    H125166   4.317   6.691   3.837
 8407TIP3    H225167   4.397   6.788   3.753
 8408TIP3   OH225168   4.699   5.606   4.162
 8408TIP3    H125169   4.611   5.628   4.127
 8408TIP3    H225170   4.759   5.635   4.090
 8409TIP3   OH225171   3.985   5.248   4.129
 8409TIP3    H125172   4.031   5.188   4.193
 8409TIP3    H225173   3.909   5.272   4.185
 8410TIP3   OH225174   4.105   6.746   3.467
 8410TIP3    H125175   4.155   6.662   3.451
 8410TIP3    H225176   4.168   6.810   3.427
 8411TIP3   OH225177   4.252   6.531   3.382
 8411TIP3    H125178   4.209   6.451   3.348
 8411TIP3    H225179   4.291   6.498   3.466
 8412TIP3   OH225180   4.633   6.611   4.141
 8412TIP3    H125181   4.620   6.532   4.083
 8412TIP3    H225182   4.616   6.684   4.078
 8413TIP3   OH225183   3.925   6.006   3.401
 8413TIP3    H125184   3.845   6.057   3.379
 8413TIP3    H225185   3.970   6.002   3.314
 8414TIP3   OH225186   3.883   5.793   3.111
 8414TIP3    H125187   3.950   5.843   3.161
 8414TIP3    H225188   3.940   5.728   3.064
 8415TIP3   OH225189   4.829   6.253   3.989
 8415TIP3    H125190   4.744   6.302   3.993
 8415TIP3    H225191   4.857   6.274   3.897
 8416TIP3   OH225192   4.275   6.089   3.368
 8416TIP3    H125193   4.220   6.112   3.446
 8416TIP3    H225194   4.358   6.063   3.412
 8417TIP3   OH225195   4.507   6.126   4.285
 8417TIP3    H125196   4.502   6.209   4.337
 8417TIP3    H225197   4.420   6.128   4.240
 8418TIP3   OH225198   3.507   6.085   3.788
 8418TIP3    H125199   3.465   6.026   3.722
 8418TIP3    H225200   3.582   6.030   3.820
 8419TIP3   OH225201   3.637   6.500   3.934
 8419TIP3    H125202   3.615   6.460   3.848
 8419TIP3    H225203   3.725   6.462   3.952
 8420TIP3   OH225204   3.635   6.057   4.143
 8420TIP3    H125205   3.671   6.028   4.056
 8420TIP3    H225206   3.684   6.141   4.159
 8421TIP3   OH225207   4.166   6.695   3.919
 8421TIP3    H125208   4.155   6.772   3.977
 8421TIP3    H225209   4.151   6.620   3.980
 8422TIP3   OH225210   3.780   6.614   4.465
 8422TIP3    H125211   3.719   6.674   4.512
 8422TIP3    H225212   3.716   6.559   4.415
 8423TIP3   OH225213   4.111   5.947   3.197
 8423TIP3    H125214   4.171   6.007   3.247
 8423TIP3    H225215   4.138   5.968   3.104
 8424TIP3   OH225216   3.536   6.170   4.570
 8424TIP3    H125217   3.538   6.258   4.614
 8424TIP3    H225218   3.441   6.147   4.582
 8425TIP3   OH225219   3.859   6.622   3.474
 8425TIP3    H125220   3.941   6.674   3.482
 8425TIP3    H225221   3.799   6.682   3.429
 8426TIP3   OH225222   3.572   6.779   4.554
 8426TIP3    H125223   3.537   6.780   4.463
 8426TIP3    H225224   3.492   6.758   4.607
 8427TIP3   OH225225   4.628   5.184   3.246
 8427TIP3    H125226   4.546   5.204   3.297
 8427TIP3    H225227   4.641   5.268   3.198
 8428TIP3   OH225228   3.372   5.929   3.592
 8428TIP3    H125229   3.301   5.969   3.537
 8428TIP3    H225230   3.340   5.839   3.605
 8429TIP3   OH225231   4.429   6.552   2.794
 8429TIP3    H125232   4.438   6.649   2.780
 8429TIP3    H225233   4.522   6.522   2.781
 8430TIP3   OH225234   3.152   6.313   4.499
 8430TIP3    H125235   3.086   6.289   4.432
 8430TIP3    H225236   3.191   6.226   4.523
 8431TIP3   OH225237   3.008   6.507   4.126
 8431TIP3    H125238   3.103   6.494   4.120
 8431TIP3    H225239   3.002   6.581   4.189
 8432TIP3   OH225240   4.869   6.958   4.188
 8432TIP3    H125241   4.870   6.861   4.204
 8432TIP3    H225242   4.786   6.982   4.235
 8433TIP3   OH225243   3.974   6.743   4.322
 8433TIP3    H125244   3.972   6.835   4.356
 8433TIP3    H225245   3.904   6.701   4.376
 8434TIP3   OH225246   3.741   6.871   3.273
 8434TIP3    H125247   3.690   6.849   3.193
 8434TIP3    H225248   3.703   6.957   3.300
 8435TIP3   OH225249   3.177   6.718   3.662
 8435TIP3    H125250   3.223   6.709   3.748
 8435TIP3    H225251   3.129   6.633   3.658
 8436TIP3   OH225252   3.939   6.773   2.914
 8436TIP3    H125253   3.997   6.702   2.879
 8436TIP3    H225254   3.973   6.781   3.006
 8437TIP3   OH225255   3.992   6.820   3.183
 8437TIP3    H125256   3.903   6.830   3.224
 8437TIP3    H225257   4.041   6.777   3.256
 8438TIP3   OH225258   4.759   6.087   4.462
 8438TIP3    H125259   4.675   6.093   4.415
 8438TIP3    H225260   4.778   5.991   4.454
 8439TIP3   OH225261   3.356   6.496   4.485
 8439TIP3    H125262   3.406   6.478   4.568
 8439TIP3    H225263   3.282   6.432   4.493
 8440TIP3   OH225264   3.751   5.319   4.279
 8440TIP3    H125265   3.665   5.288   4.247
 8440TIP3    H225266   3.724   5.397   4.331
 8441TIP3   OH225267   4.298   5.445   4.474
 8441TIP3    H125268   4.361   5.399   4.532
 8441TIP3    H225269   4.212   5.406   4.501
 8442TIP3   OH225270   4.531   5.866   4.390
 8442TIP3    H125271   4.478   5.860   4.472
 8442TIP3    H225272   4.502   5.950   4.351
 8443TIP3   OH225273   4.190   5.989   2.942
 8443TIP3    H125274   4.154   5.966   2.854
 8443TIP3    H225275   4.274   6.032   2.916
 8444TIP3   OH225276   3.902   5.365   3.245
 8444TIP3    H125277   3.868   5.362   3.337
 8444TIP3    H225278   3.862   5.283   3.210
 8445TIP3   OH225279   3.688   5.834   4.292
 8445TIP3    H125280   3.639   5.854   4.374
 8445TIP3    H225281   3.671   5.915   4.240
 8446TIP3   OH225282   3.570   5.723   3.804
 8446TIP3    H125283   3.479   5.693   3.825
 8446TIP3    H225284   3.583   5.680   3.717
 8447TIP3   OH225285   4.063   5.806   3.536
 8447TIP3    H125286   4.012   5.876   3.491
 8447TIP3    H225287   4.117   5.770   3.463
 8448TIP3   OH225288   4.238   6.083   4.622
 8448TIP3    H125289   4.214   6.009   4.681
 8448TIP3    H225290   4.333   6.092   4.642
 8449TIP3   OH225291   4.221   5.832   3.769
 8449TIP3    H125292   4.156   5.856   3.701
 8449TIP3    H225293   4.256   5.751   3.727
 8450TIP3   OH225294   3.506   5.861   4.501
 8450TIP3    H125295   3.545   5.919   4.568
 8450TIP3    H225296   3.495   5.778   4.550
 8451TIP3   OH225297   3.557   5.341   3.209
 8451TIP3    H125298   3.549   5.339   3.306
 8451TIP3    H225299   3.479   5.394   3.185
 8452TIP3   OH225300   3.101   5.383   4.080
 8452TIP3    H125301   3.175   5.416   4.136
 8452TIP3    H225302   3.146   5.351   4.000
 8453TIP3   OH225303   3.065   5.362   3.599
 8453TIP3    H125304   3.113   5.398   3.522
 8453TIP3    H225305   3.006   5.437   3.618
 8454TIP3   OH225306   4.231   6.078   4.192
 8454TIP3    H125307   4.264   6.007   4.133
 8454TIP3    H225308   4.201   6.023   4.268
 8455TIP3   OH225309   3.903   5.550   3.868
 8455TIP3    H125310   3.825   5.540   3.925
 8455TIP3    H225311   3.976   5.525   3.928
 8456TIP3   OH225312   3.334   5.598   3.873
 8456TIP3    H125313   3.240   5.603   3.844
 8456TIP3    H225314   3.359   5.506   3.851
 8457TIP3   OH225315   3.598   5.593   3.565
 8457TIP3    H125316   3.693   5.606   3.545
 8457TIP3    H225317   3.553   5.614   3.480
 8458TIP3   OH225318   4.389   5.620   4.071
 8458TIP3    H125319   4.358   5.631   4.163
 8458TIP3    H225320   4.325   5.555   4.038
 8459TIP3   OH225321   3.447   5.631   3.340
 8459TIP3    H125322   3.377   5.584   3.292
 8459TIP3    H225323   3.499   5.667   3.265
 8460TIP3   OH225324   4.565   7.307   4.290
 8460TIP3    H125325   4.563   7.330   4.195
 8460TIP3    H225326   4.646   7.353   4.320
 8461TIP3   OH225327   3.518   6.420   4.708
 8461TIP3    H125328   3.599   6.446   4.756
 8461TIP3    H225329   3.454   6.414   4.781
 8462TIP3   OH225330   3.980   5.876   3.967
 8462TIP3    H125331   4.048   5.824   3.921
 8462TIP3    H225332   3.977   5.832   4.055
 8463TIP3   OH225333   3.499   5.357   3.847
 8463TIP3    H125334   3.464   5.280   3.897
 8463TIP3    H225335   3.557   5.312   3.783
 8464TIP3   OH225336   3.959   5.783   4.233
 8464TIP3    H125337   3.869   5.805   4.263
 8464TIP3    H225338   4.016   5.831   4.297
 8465TIP3   OH225339   3.693   6.157   3.347
 8465TIP3    H125340   3.622   6.090   3.336
 8465TIP3    H225341   3.673   6.190   3.438
 8466TIP3   OH225342   4.593   6.395   3.975
 8466TIP3    H125343   4.616   6.444   3.894
 8466TIP3    H225344   4.509   6.350   3.949
 8467TIP3   OH225345   4.150   5.470   3.209
 8467TIP3    H125346   4.055   5.448   3.223
 8467TIP3    H225347   4.157   5.563   3.240
 8468TIP3   OH225348   4.098   6.479   4.343
 8468TIP3    H125349   4.123   6.452   4.432
 8468TIP3    H225350   4.055   6.565   4.357
 8469TIP3   OH225351   4.220   5.717   3.318
 8469TIP3    H125352   4.316   5.723   3.334
 8469TIP3    H225353   4.202   5.799   3.267
 8470TIP3   OH225354   3.389   6.183   4.021
 8470TIP3    H125355   3.427   6.152   3.936
 8470TIP3    H225356   3.434   6.124   4.084
 8471TIP3   OH225357   3.841   6.306   3.174
 8471TIP3    H125358   3.793   6.392   3.179
 8471TIP3    H225359   3.786   6.250   3.233
 8472TIP3   OH225360   3.270   6.102   4.639
 8472TIP3    H125361   3.288   6.086   4.733
 8472TIP3    H225362   3.203   6.034   4.620
 8473TIP3   OH225363   3.997   6.217   4.656
 8473TIP3    H125364   3.936   6.156   4.611
 8473TIP3    H225365   4.084   6.180   4.630
 8474TIP3   OH225366   4.253   6.746   4.238
 8474TIP3    H125367   4.157   6.736   4.254
 8474TIP3    H225368   4.280   6.792   4.320
 8475TIP3   OH225369   4.662   5.810   3.150
 8475TIP3    H125370   4.600   5.766   3.087
 8475TIP3    H225371   4.659   5.900   3.111
 8476TIP3   OH225372   4.884   6.671   4.228
 8476TIP3    H125373   4.786   6.662   4.222
 8476TIP3    H225374   4.910   6.638   4.139
 8477TIP3   OH225375   4.367   6.627   3.061
 8477TIP3    H125376   4.338   6.559   3.123
 8477TIP3    H225377   4.377   6.578   2.978
 8478TIP3   OH225378   4.360   6.257   3.890
 8478TIP3    H125379   4.267   6.231   3.905
 8478TIP3    H225380   4.394   6.176   3.848
 8479TIP3   OH225381   3.490   6.486   3.651
 8479TIP3    H125382   3.485   6.565   3.595
 8479TIP3    H225383   3.397   6.463   3.660
 8480TIP3   OH225384   3.054   5.787   3.355
 8480TIP3    H125385   3.099   5.871   3.377
 8480TIP3    H225386   2.977   5.791   3.416
 8481TIP3   OH225387   3.622   6.248   3.591
 8481TIP3    H125388   3.589   6.337   3.613
 8481TIP3    H225389   3.589   6.196   3.666
 8482TIP3   OH225390   3.760   6.827   4.117
 8482TIP3    H125391   3.804   6.898   4.068
 8482TIP3    H225392   3.835   6.787   4.165
 8483TIP3   OH225393   3.405   6.725   3.499
 8483TIP3    H125394   3.320   6.732   3.548
 8483TIP3    H225395   3.436   6.818   3.503
 8484TIP3   OH225396   4.145   6.463   4.076
 8484TIP3    H125397   4.134   6.461   4.174
 8484TIP3    H225398   4.221   6.404   4.065
 8485TIP3   OH225399   4.123   6.361   2.959
 8485TIP3    H125400   4.175   6.334   3.038
 8485TIP3    H225401   4.036   6.325   2.982
 8486TIP3   OH225402   4.394   6.993   4.130
 8486TIP3    H125403   4.317   6.934   4.127
 8486TIP3    H225404   4.374   7.055   4.056
 8487TIP3   OH225405   4.461   6.829   2.778
 8487TIP3    H125406   4.498   6.905   2.731
 8487TIP3    H225407   4.379   6.870   2.813
 8488TIP3   OH225408   3.477   5.608   4.643
 8488TIP3    H125409   3.381   5.605   4.654
 8488TIP3    H225410   3.507   5.549   4.714
 8489TIP3   OH225411   4.284   6.288   3.173
 8489TIP3    H125412   4.272   6.224   3.245
 8489TIP3    H225413   4.381   6.284   3.163
 8490TIP3   OH225414   3.196   6.687   4.276
 8490TIP3    H125415   3.250   6.613   4.309
 8490TIP3    H225416   3.224   6.758   4.336
 8491TIP3   OH225417   3.486   6.339   2.965
 8491TIP3    H125418   3.496   6.249   2.930
 8491TIP3    H225419   3.463   6.321   3.058
 8492TIP3   OH225420   3.426   6.340   3.238
 8492TIP3    H125421   3.503   6.311   3.288
 8492TIP3    H225422   3.434   6.438   3.244
 8493TIP3   OH225423   3.164   6.031   3.436
 8493TIP3    H125424   3.097   6.076   3.492
 8493TIP3    H225425   3.178   6.099   3.368
 8494TIP3   OH225426   4.316   5.676   4.332
 8494TIP3    H125427   4.401   5.704   4.370
 8494TIP3    H225428   4.300   5.593   4.383
 8495TIP3   OH225429   4.202   5.417   3.495
 8495TIP3    H125430   4.188   5.442   3.402
 8495TIP3    H225431   4.241   5.499   3.533
 8496TIP3   OH225432   3.700   6.536   3.184
 8496TIP3    H125433   3.614   6.564   3.219
 8496TIP3    H225434   3.707   6.594   3.106
 8497TIP3   OH225435   3.881   5.604   3.598
 8497TIP3    H125436   3.947   5.676   3.583
 8497TIP3    H225437   3.889   5.592   3.695
 8498TIP3   OH225438   4.158   5.916   4.399
 8498TIP3    H125439   4.184   5.962   4.482
 8498TIP3    H225440   4.209   5.833   4.405
 8499TIP3   OH225441   4.028   5.322   3.694
 8499TIP3    H125442   4.035   5.391   3.762
 8499TIP3    H225443   4.090   5.357   3.626
 8500TIP3   OH225444   3.447   6.615   3.250
 8500TIP3    H125445   3.414   6.685   3.189
 8500TIP3    H225446   3.428   6.655   3.338
 8501TIP3   OH225447   3.542   5.327   3.484
 8501TIP3    H125448   3.539   5.415   3.526
 8501TIP3    H225449   3.638   5.308   3.493
 8502TIP3   OH225450   4.796   5.819   4.378
 8502TIP3    H125451   4.699   5.823   4.391
 8502TIP3    H225452   4.800   5.757   4.304
 8503TIP3   OH225453   4.446   6.014   3.771
 8503TIP3    H125454   4.369   5.955   3.784
 8503TIP3    H225455   4.516   5.966   3.820
 8504TIP3   OH225456   3.161   6.238   3.239
 8504TIP3    H125457   3.237   6.299   3.249
 8504TIP3    H225458   3.200   6.178   3.172
 8505TIP3   OH225459   3.102   5.517   3.376
 8505TIP3    H125460   3.103   5.615   3.373
 8505TIP3    H225461   3.021   5.497   3.327
 8506TIP3   OH225462   4.415   6.974   3.719
 8506TIP3    H125463   4.372   7.021   3.644
 8506TIP3    H225464   4.509   6.992   3.699
 8507TIP3   OH225465   3.484   5.239   4.248
 8507TIP3    H125466   3.460   5.201   4.160
 8507TIP3    H225467   3.480   5.159   4.305
 8508TIP3   OH225468   3.030   6.461   3.624
 8508TIP3    H125469   2.964   6.486   3.690
 8508TIP3    H225470   2.993   6.502   3.542
 8509TIP3   OH225471   3.190   7.004   4.699
 8509TIP3    H125472   3.276   7.003   4.746
 8509TIP3    H225473   3.169   6.909   4.698
 8510TIP3   OH225474   3.666   6.960   4.743
 8510TIP3    H125475   3.760   6.938   4.750
 8510TIP3    H225476   3.639   6.898   4.671
 8511TIP3   OH225477   3.656   6.535   2.878
 8511TIP3    H125478   3.595   6.464   2.911
 8511TIP3    H225479   3.728   6.479   2.841
 8512TIP3   OH225480   4.305   6.870   4.479
 8512TIP3    H125481   4.298   6.799   4.547
 8512TIP3    H225482   4.384   6.920   4.509
 8513TIP3   OH225483   4.087   6.578   2.788
 8513TIP3    H125484   4.122   6.509   2.848
 8513TIP3    H225485   4.146   6.570   2.710
 8514TIP3   OH225486   3.317   6.406   4.900
 8514TIP3    H125487   3.334   6.310   4.908
 8514TIP3    H225488   3.230   6.408   4.854
 8515TIP3   OH225489   3.294   6.052   3.096
 8515TIP3    H125490   3.351   6.020   3.168
 8515TIP3    H225491   3.361   6.058   3.024
 8516TIP3   OH225492   3.924   6.492   4.674
 8516TIP3    H125493   3.883   6.510   4.587
 8516TIP3    H225494   3.955   6.399   4.665
 8517TIP3   OH225495   3.817   6.257   2.903
 8517TIP3    H125496   3.814   6.265   3.000
 8517TIP3    H225497   3.813   6.159   2.894
 8518TIP3   OH225498   4.418   6.503   4.282
 8518TIP3    H125499   4.493   6.546   4.238
 8518TIP3    H225500   4.346   6.567   4.264
 8519TIP3   OH225501   3.439   6.144   4.882
 8519TIP3    H125502   3.514   6.089   4.855
 8519TIP3    H225503   3.467   6.174   4.971
 8520TIP3   OH225504   3.501   5.961   3.314
 8520TIP3    H125505   3.475   5.918   3.398
 8520TIP3    H225506   3.539   5.885   3.264
 8521TIP3   OH225507   3.769   6.023   4.544
 8521TIP3    H125508   3.692   6.084   4.544
 8521TIP3    H225509   3.822   6.058   4.469
 8522TIP3   OH225510   3.605   5.757   3.154
 8522TIP3    H125511   3.580   5.764   3.059
 8522TIP3    H225512   3.702   5.758   3.147
 8523TIP3   OH225513   4.292   6.427   4.676
 8523TIP3    H125514   4.367   6.391   4.627
 8523TIP3    H225515   4.283   6.361   4.748
 8524TIP3   OH225516   4.423   6.083   2.822
 8524TIP3    H125517   4.403   6.038   2.737
 8524TIP3    H225518   4.389   6.173   2.800
 8525TIP3   OH225519   3.893   5.814   4.670
 8525TIP3    H125520   3.896   5.735   4.612
 8525TIP3    H225521   3.849   5.879   4.611
 8526TIP3   OH225522   3.892   5.613   4.476
 8526TIP3    H125523   3.926   5.633   4.387
 8526TIP3    H225524   3.801   5.582   4.457
 8527TIP3   OH225525   3.921   6.135   4.355
 8527TIP3    H125526   4.006   6.137   4.309
 8527TIP3    H225527   3.867   6.199   4.304
 8528TIP3   OH225528   4.505   6.099   4.730
 8528TIP3    H125529   4.545   6.011   4.741
 8528TIP3    H225530   4.578   6.150   4.692
 8529TIP3   OH225531   4.546   6.357   4.470
 8529TIP3    H125532   4.490   6.411   4.410
 8529TIP3    H225533   4.635   6.375   4.430
 8530TIP3   OH225534   3.772   5.920   4.902
 8530TIP3    H125535   3.706   5.850   4.917
 8530TIP3    H225536   3.807   5.895   4.815
 8531TIP3   OH225537   4.040   5.367   4.554
 8531TIP3    H125538   3.973   5.430   4.523
 8531TIP3    H225539   4.013   5.283   4.511
 8532TIP3   OH225540   4.153   5.866   4.761
 8532TIP3    H125541   4.139   5.847   4.856
 8532TIP3    H225542   4.064   5.840   4.727
 8533TIP3   OH225543   4.398   5.824   4.620
 8533TIP3    H125544   4.321   5.814   4.680
 8533TIP3    H225545   4.471   5.786   4.672
 8534TIP3   OH225546   4.628   5.759   4.765
 8534TIP3    H125547   4.640   5.662   4.778
 8534TIP3    H225548   4.623   5.792   4.857
 8535TIP3   OH225549   3.613   5.700   4.958
 8535TIP3    H125550   3.617   5.609   4.923
 8535TIP3    H225551   3.653   5.687   5.047
 8536TIP3   OH225552   4.118   5.370   4.816
 8536TIP3    H125553   4.186   5.300   4.805
 8536TIP3    H225554   4.084   5.372   4.723
 8537TIP3   OH225555   4.193   5.588   4.962
 8537TIP3    H125556   4.173   5.513   4.901
 8537TIP3    H225557   4.113   5.643   4.953
 8538TIP3   OH225558   3.414   6.827   3.067
 8538TIP3    H125559   3.507   6.815   3.040
 8538TIP3    H225560   3.374   6.858   2.985
 8539TIP3   OH225561   2.892   6.198   3.277
 8539TIP3    H125562   2.986   6.219   3.261
 8539TIP3    H225563   2.885   6.109   3.236
 8540TIP3   OH225564   2.808   6.810   3.694
 8540TIP3    H125565   2.742   6.748   3.655
 8540TIP3    H225566   2.852   6.751   3.759
 8541TIP3   OH225567   2.940   6.657   3.881
 8541TIP3    H125568   2.930   6.585   3.946
 8541TIP3    H225569   2.994   6.719   3.933
 8542TIP3   OH225570   4.669   7.064   3.680
 8542TIP3    H125571   4.697   7.090   3.769
 8542TIP3    H225572   4.740   7.100   3.624
 8543TIP3   OH225573   4.700   7.079   3.962
 8543TIP3    H125574   4.652   6.993   3.958
 8543TIP3    H225575   4.773   7.054   4.020
 8544TIP3   OH225576   4.743   6.758   4.534
 8544TIP3    H125577   4.673   6.767   4.600
 8544TIP3    H225578   4.787   6.846   4.539
 8545TIP3   OH225579   4.563   6.269   3.153
 8545TIP3    H125580   4.630   6.333   3.124
 8545TIP3    H225581   4.605   6.231   3.233
 8546TIP3   OH225582   4.689   6.137   3.358
 8546TIP3    H125583   4.622   6.094   3.417
 8546TIP3    H225584   4.754   6.172   3.423
 8547TIP3   OH225585   4.746   6.532   3.788
 8547TIP3    H125586   4.799   6.462   3.744
 8547TIP3    H225587   4.739   6.600   3.719
 8548TIP3   OH225588   4.572   6.832   3.981
 8548TIP3    H125589   4.500   6.870   4.035
 8548TIP3    H225590   4.523   6.784   3.911
 8549TIP3   OH225591   4.626   6.046   3.002
 8549TIP3    H125592   4.554   6.047   2.935
 8549TIP3    H225593   4.597   6.120   3.059
 8550TIP3   OH225594   4.498   5.717   2.953
 8550TIP3    H125595   4.448   5.750   2.877
 8550TIP3    H225596   4.477   5.621   2.948
 8551TIP3   OH225597   4.501   5.995   3.502
 8551TIP3    H125598   4.508   5.898   3.495
 8551TIP3    H225599   4.486   6.008   3.598
 8552TIP3   OH225600   3.126   6.070   4.250
 8552TIP3    H125601   3.124   6.034   4.159
 8552TIP3    H225602   3.223   6.070   4.268
 8553TIP3   OH225603   4.793   6.420   4.361
 8553TIP3    H125604   4.863   6.351   4.351
 8553TIP3    H225605   4.819   6.485   4.295
 8554TIP3   OH225606   4.976   6.221   4.370
 8554TIP3    H125607   4.901   6.171   4.408
 8554TIP3    H225608   5.049   6.157   4.388
 8555TIP3   OH225609   4.441   5.451   2.937
 8555TIP3    H125610   4.513   5.419   2.995
 8555TIP3    H225611   4.366   5.394   2.960
 8556TIP3   OH225612   4.499   5.711   3.394
 8556TIP3    H125613   4.539   5.622   3.410
 8556TIP3    H225614   4.558   5.743   3.323
 8557TIP3   OH225615   4.657   5.881   3.891
 8557TIP3    H125616   4.744   5.906   3.851
 8557TIP3    H225617   4.672   5.917   3.981
 8558TIP3   OH225618   4.730   6.028   4.120
 8558TIP3    H125619   4.654   6.061   4.172
 8558TIP3    H225620   4.763   6.111   4.079
 8559TIP3   OH225621   3.347   5.755   4.929
 8559TIP3    H125622   3.445   5.747   4.930
 8559TIP3    H225623   3.323   5.667   4.964
 8560TIP3   OH225624   5.180   5.623   4.677
 8560TIP3    H125625   5.241   5.556   4.639
 8560TIP3    H225626   5.153   5.673   4.598
 8561TIP3   OH225627   4.606   5.461   3.432
 8561TIP3    H125628   4.655   5.446   3.516
 8561TIP3    H225629   4.545   5.385   3.433
 8562TIP3   OH225630   3.304   5.449   4.258
 8562TIP3    H125631   3.364   5.371   4.265
 8562TIP3    H225632   3.370   5.520   4.247
 8563TIP3   OH225633   3.106   5.720   4.324
 8563TIP3    H125634   3.157   5.714   4.241
 8563TIP3    H225635   3.143   5.799   4.364
 8564TIP3   OH225636   5.051   5.757   4.476
 8564TIP3    H125637   4.964   5.797   4.497
 8564TIP3    H225638   5.021   5.680   4.424
 8565TIP3   OH225639   4.684   5.393   3.068
 8565TIP3    H125640   4.724   5.322   3.015
 8565TIP3    H225641   4.753   5.462   3.066
 8566TIP3   OH225642   3.094   5.221   3.828
 8566TIP3    H125643   3.001   5.217   3.857
 8566TIP3    H225644   3.088   5.281   3.750
 8567TIP3   OH225645   4.251   6.932   3.333
 8567TIP3    H125646   4.304   6.918   3.252
 8567TIP3    H225647   4.308   6.991   3.385
 8568TIP3   OH225648   3.306   5.316   4.648
 8568TIP3    H125649   3.252   5.301   4.727
 8568TIP3    H225650   3.238   5.346   4.584
 8569TIP3   OH225651   3.352   6.737   4.718
 8569TIP3    H125652   3.260   6.708   4.702
 8569TIP3    H225653   3.365   6.710   4.810
 8570TIP3   OH225654   3.533   6.768   4.268
 8570TIP3    H125655   3.486   6.844   4.228
 8570TIP3    H225656   3.619   6.779   4.223
 8571TIP3   OH225657   3.973   7.009   4.405
 8571TIP3    H125658   4.016   7.007   4.494
 8571TIP3    H225659   4.040   7.060   4.354
 8572TIP3   OH225660   4.153   7.163   4.265
 8572TIP3    H125661   4.222   7.109   4.224
 8572TIP3    H225662   4.207   7.218   4.326
 8573TIP3   OH225663   4.952   5.515   4.364
 8573TIP3    H125664   4.861   5.496   4.335
 8573TIP3    H225665   4.991   5.425   4.357
 8574TIP3   OH225666   3.207   7.024   4.289
 8574TIP3    H125667   3.116   7.056   4.269
 8574TIP3    H225668   3.220   7.060   4.377
 8575TIP3   OH225669   3.445   7.002   4.151
 8575TIP3    H125670   3.357   7.013   4.194
 8575TIP3    H225671   3.425   7.031   4.060
 8576TIP3   OH225672   3.870   7.027   3.948
 8576TIP3    H125673   3.798   7.045   3.884
 8576TIP3    H225674   3.881   7.114   3.991
 8577TIP3   OH225675   4.139   6.967   4.001
 8577TIP3    H125676   4.045   6.983   3.980
 8577TIP3    H225677   4.183   7.040   3.956
 8578TIP3   OH225678   4.345   7.157   3.913
 8578TIP3    H125679   4.332   7.241   3.863
 8578TIP3    H225680   4.372   7.096   3.841
 8579TIP3   OH225681   3.119   6.814   4.037
 8579TIP3    H125682   3.146   6.785   4.127
 8579TIP3    H225683   3.191   6.770   3.985
 8580TIP3   OH225684   3.315   6.687   3.896
 8580TIP3    H125685   3.328   6.602   3.944
 8580TIP3    H225686   3.407   6.720   3.892
 8581TIP3   OH225687   3.584   6.779   3.899
 8581TIP3    H125688   3.612   6.686   3.888
 8581TIP3    H225689   3.632   6.800   3.982
 8582TIP3   OH225690   4.141   5.428   3.973
 8582TIP3    H125691   4.102   5.364   4.036
 8582TIP3    H225692   4.223   5.382   3.946
 8583TIP3   OH225693   4.674   5.316   3.880
 8583TIP3    H125694   4.709   5.371   3.807
 8583TIP3    H225695   4.578   5.336   3.878
 8584TIP3   OH225696   4.772   5.418   3.647
 8584TIP3    H125697   4.847   5.365   3.613
 8584TIP3    H225698   4.807   5.509   3.634
 8585TIP3   OH225699   3.403   5.143   3.997
 8585TIP3    H125700   3.311   5.109   4.002
 8585TIP3    H225701   3.453   5.058   3.995
 8586TIP3   OH225702   3.187   5.016   3.649
 8586TIP3    H125703   3.220   5.072   3.576
 8586TIP3    H225704   3.164   5.082   3.717
 8587TIP3   OH225705   3.850   5.180   3.890
 8587TIP3    H125706   3.906   5.228   3.827
 8587TIP3    H225707   3.893   5.200   3.975
 8588TIP3   OH225708   4.393   5.326   3.864
 8588TIP3    H125709   4.387   5.281   3.779
 8588TIP3    H225710   4.382   5.250   3.926
 8589TIP3   OH225711   4.424   5.248   3.428
 8589TIP3    H125712   4.338   5.291   3.446
 8589TIP3    H225713   4.410   5.162   3.473
 8590TIP3   OH225714   2.907   6.590   3.422
 8590TIP3    H125715   2.821   6.555   3.391
 8590TIP3    H225716   2.896   6.683   3.399
 8591TIP3   OH225717   3.311   5.175   3.408
 8591TIP3    H125718   3.358   5.110   3.352
 8591TIP3    H225719   3.385   5.227   3.444
 8592TIP3   OH225720   3.819   5.353   3.508
 8592TIP3    H125721   3.877   5.305   3.570
 8592TIP3    H225722   3.841   5.445   3.536
 8593TIP3   OH225723   3.676   6.777   3.001
 8593TIP3    H125724   3.768   6.795   2.970
 8593TIP3    H225725   3.658   6.697   2.945
 8594TIP3   OH225726   4.401   6.894   3.103
 8594TIP3    H125727   4.393   6.796   3.094
 8594TIP3    H225728   4.354   6.923   3.022
 8595TIP3   OH225729   3.610   5.427   4.893
 8595TIP3    H125730   3.577   5.355   4.948
 8595TIP3    H225731   3.706   5.425   4.917
 8596TIP3   OH225732   3.863   5.425   5.007
 8596TIP3    H125733   3.945   5.399   4.961
 8596TIP3    H225734   3.855   5.352   5.072
 8597TIP3   OH225735   2.988   6.618   3.061
 8597TIP3    H125736   2.986   6.622   3.158
 8597TIP3    H225737   3.074   6.572   3.045
 8598TIP3   OH225738   4.688   5.490   4.797
 8598TIP3    H125739   4.705   5.455   4.888
 8598TIP3    H225740   4.777   5.481   4.756
 8599TIP3   OH225741   4.622   7.037   4.289
 8599TIP3    H125742   4.544   7.006   4.239
 8599TIP3    H225743   4.602   7.132   4.297
 8600TIP3   OH225744   5.894   6.410   3.052
 8600TIP3    H125745   5.863   6.501   3.034
 8600TIP3    H225746   5.817   6.359   3.023
 8601TIP3   OH225747   5.889   6.409   3.441
 8601TIP3    H125748   5.927   6.388   3.529
 8601TIP3    H225749   5.848   6.324   3.417
 8602TIP3   OH225750   5.187   6.301   3.802
 8602TIP3    H125751   5.214   6.231   3.864
 8602TIP3    H225752   5.267   6.355   3.799
 8603TIP3   OH225753   6.134   6.718   3.120
 8603TIP3    H125754   6.121   6.648   3.185
 8603TIP3    H225755   6.167   6.790   3.175
 8604TIP3   OH225756   5.161   6.715   3.522
 8604TIP3    H125757   5.153   6.617   3.523
 8604TIP3    H225758   5.258   6.724   3.522
 8605TIP3   OH225759   4.870   5.918   3.304
 8605TIP3    H125760   4.820   5.999   3.325
 8605TIP3    H225761   4.798   5.863   3.267
 8606TIP3   OH225762   4.925   6.203   3.487
 8606TIP3    H125763   4.974   6.125   3.522
 8606TIP3    H225764   4.986   6.236   3.420
 8607TIP3   OH225765   5.786   7.173   3.137
 8607TIP3    H125766   5.829   7.102   3.086
 8607TIP3    H225767   5.780   7.134   3.225
 8608TIP3   OH225768   5.689   6.637   3.484
 8608TIP3    H125769   5.729   6.559   3.444
 8608TIP3    H225770   5.771   6.684   3.510
 8609TIP3   OH225771   6.108   6.138   3.511
 8609TIP3    H125772   6.142   6.049   3.536
 8609TIP3    H225773   6.070   6.118   3.424
 8610TIP3   OH225774   5.444   5.797   3.478
 8610TIP3    H125775   5.421   5.869   3.416
 8610TIP3    H225776   5.394   5.722   3.438
 8611TIP3   OH225777   6.138   5.888   3.100
 8611TIP3    H125778   6.208   5.871   3.167
 8611TIP3    H225779   6.192   5.923   3.027
 8612TIP3   OH225780   5.074   5.998   3.588
 8612TIP3    H125781   5.156   5.978   3.637
 8612TIP3    H225782   5.088   5.941   3.509
 8613TIP3   OH225783   5.513   6.196   3.384
 8613TIP3    H125784   5.607   6.171   3.397
 8613TIP3    H225785   5.474   6.111   3.352
 8614TIP3   OH225786   5.438   5.780   3.916
 8614TIP3    H125787   5.375   5.816   3.850
 8614TIP3    H225788   5.385   5.793   3.998
 8615TIP3   OH225789   5.782   6.632   2.922
 8615TIP3    H125790   5.735   6.612   2.841
 8615TIP3    H225791   5.736   6.714   2.950
 8616TIP3   OH225792   5.543   6.556   3.707
 8616TIP3    H125793   5.483   6.624   3.745
 8616TIP3    H225794   5.586   6.605   3.634
 8617TIP3   OH225795   6.339   5.892   3.284
 8617TIP3    H125796   6.308   5.853   3.368
 8617TIP3    H225797   6.387   5.971   3.316
 8618TIP3   OH225798   5.308   5.895   3.698
 8618TIP3    H125799   5.371   5.966   3.724
 8618TIP3    H225800   5.359   5.854   3.624
 8619TIP3   OH225801   5.372   6.753   3.808
 8619TIP3    H125802   5.346   6.841   3.774
 8619TIP3    H225803   5.293   6.733   3.863
 8620TIP3   OH225804   4.764   6.441   3.043
 8620TIP3    H125805   4.720   6.471   2.961
 8620TIP3    H225806   4.796   6.526   3.080
 8621TIP3   OH225807   6.200   6.957   3.281
 8621TIP3    H125808   6.111   6.948   3.322
 8621TIP3    H225809   6.194   7.045   3.239
 8622TIP3   OH225810   5.788   5.494   3.632
 8622TIP3    H125811   5.774   5.400   3.654
 8622TIP3    H225812   5.711   5.534   3.679
 8623TIP3   OH225813   5.901   7.000   2.952
 8623TIP3    H125814   5.953   6.918   2.937
 8623TIP3    H225815   5.964   7.066   2.915
 8624TIP3   OH225816   6.050   6.786   2.866
 8624TIP3    H125817   6.007   6.705   2.836
 8624TIP3    H225818   6.088   6.756   2.952
 8625TIP3   OH225819   6.427   6.867   3.629
 8625TIP3    H125820   6.419   6.789   3.569
 8625TIP3    H225821   6.413   6.941   3.567
 8626TIP3   OH225822   5.722   6.261   2.888
 8626TIP3    H125823   5.642   6.313   2.865
 8626TIP3    H225824   5.769   6.258   2.802
 8627TIP3   OH225825   5.678   6.052   2.595
 8627TIP3    H125826   5.745   6.101   2.646
 8627TIP3    H225827   5.736   5.987   2.549
 8628TIP3   OH225828   6.619   6.484   3.464
 8628TIP3    H125829   6.541   6.542   3.478
 8628TIP3    H225830   6.657   6.526   3.384
 8629TIP3   OH225831   6.070   6.347   2.853
 8629TIP3    H125832   6.016   6.369   2.932
 8629TIP3    H225833   6.154   6.322   2.896
 8630TIP3   OH225834   6.303   6.382   3.774
 8630TIP3    H125835   6.303   6.464   3.826
 8630TIP3    H225836   6.217   6.389   3.729
 8631TIP3   OH225837   5.304   6.341   3.273
 8631TIP3    H125838   5.263   6.282   3.207
 8631TIP3    H225839   5.379   6.287   3.306
 8632TIP3   OH225840   5.435   6.757   3.420
 8632TIP3    H125841   5.413   6.714   3.336
 8632TIP3    H225842   5.523   6.720   3.440
 8633TIP3   OH225843   5.435   6.313   3.629
 8633TIP3    H125844   5.470   6.287   3.541
 8633TIP3    H225845   5.481   6.398   3.647
 8634TIP3   OH225846   5.960   6.951   3.405
 8634TIP3    H125847   5.950   7.030   3.460
 8634TIP3    H225848   5.946   6.878   3.468
 8635TIP3   OH225849   5.577   6.870   3.952
 8635TIP3    H125850   5.515   6.930   4.000
 8635TIP3    H225851   5.513   6.816   3.902
 8636TIP3   OH225852   5.906   6.205   2.683
 8636TIP3    H125853   5.967   6.263   2.735
 8636TIP3    H225854   5.933   6.228   2.591
 8637TIP3   OH225855   5.331   6.426   4.055
 8637TIP3    H125856   5.335   6.513   4.099
 8637TIP3    H225857   5.237   6.403   4.071
 8638TIP3   OH225858   5.655   6.878   2.952
 8638TIP3    H125859   5.738   6.928   2.965
 8638TIP3    H225860   5.593   6.947   2.925
 8639TIP3   OH225861   5.369   7.035   4.041
 8639TIP3    H125862   5.333   7.037   3.950
 8639TIP3    H225863   5.288   7.014   4.094
 8640TIP3   OH225864   6.425   5.441   2.733
 8640TIP3    H125865   6.343   5.462   2.782
 8640TIP3    H225866   6.438   5.524   2.682
 8641TIP3   OH225867   5.171   6.185   3.074
 8641TIP3    H125868   5.098   6.225   3.023
 8641TIP3    H225869   5.136   6.097   3.094
 8642TIP3   OH225870   6.221   6.814   2.260
 8642TIP3    H125871   6.241   6.911   2.263
 8642TIP3    H225872   6.313   6.778   2.259
 8643TIP3   OH225873   4.949   6.569   3.986
 8643TIP3    H125874   4.881   6.546   3.920
 8643TIP3    H225875   4.986   6.481   4.010
 8644TIP3   OH225876   4.804   6.764   3.611
 8644TIP3    H125877   4.900   6.752   3.608
 8644TIP3    H225878   4.797   6.837   3.675
 8645TIP3   OH225879   6.663   7.218   3.676
 8645TIP3    H125880   6.666   7.122   3.691
 8645TIP3    H225881   6.580   7.241   3.724
 8646TIP3   OH225882   5.771   7.000   3.809
 8646TIP3    H125883   5.768   7.092   3.843
 8646TIP3    H225884   5.701   6.957   3.863
 8647TIP3   OH225885   5.536   7.128   2.760
 8647TIP3    H125886   5.483   7.115   2.680
 8647TIP3    H225887   5.504   7.214   2.793
 8648TIP3   OH225888   4.973   6.974   3.148
 8648TIP3    H125889   5.019   6.966   3.235
 8648TIP3    H225890   4.924   6.890   3.146
 8649TIP3   OH225891   5.737   7.023   2.402
 8649TIP3    H125892   5.811   6.964   2.383
 8649TIP3    H225893   5.759   7.046   2.495
 8650TIP3   OH225894   5.785   7.076   2.667
 8650TIP3    H125895   5.699   7.087   2.713
 8650TIP3    H225896   5.840   7.041   2.740
 8651TIP3   OH225897   6.554   6.341   3.956
 8651TIP3    H125898   6.471   6.350   3.907
 8651TIP3    H225899   6.571   6.245   3.949
 8652TIP3   OH225900   5.152   6.752   3.972
 8652TIP3    H125901   5.202   6.735   4.054
 8652TIP3    H225902   5.079   6.688   3.979
 8653TIP3   OH225903   5.552   5.576   3.759
 8653TIP3    H125904   5.463   5.544   3.731
 8653TIP3    H225905   5.525   5.654   3.812
 8654TIP3   OH225906   6.088   5.688   3.956
 8654TIP3    H125907   6.157   5.661   4.020
 8654TIP3    H225908   6.005   5.669   4.003
 8655TIP3   OH225909   6.324   6.121   3.876
 8655TIP3    H125910   6.274   6.116   3.961
 8655TIP3    H225911   6.299   6.208   3.842
 8656TIP3   OH225912   5.982   6.254   2.429
 8656TIP3    H125913   5.954   6.221   2.341
 8656TIP3    H225914   6.071   6.290   2.408
 8657TIP3   OH225915   5.697   5.623   2.731
 8657TIP3    H125916   5.663   5.619   2.823
 8657TIP3    H225917   5.658   5.540   2.696
 8658TIP3   OH225918   5.485   6.091   3.779
 8658TIP3    H125919   5.435   6.110   3.861
 8658TIP3    H225920   5.468   6.172   3.727
 8659TIP3   OH225921   5.367   5.978   3.291
 8659TIP3    H125922   5.275   5.949   3.312
 8659TIP3    H225923   5.379   5.935   3.204
 8660TIP3   OH225924   5.860   6.061   3.023
 8660TIP3    H125925   5.809   6.132   2.978
 8660TIP3    H225926   5.915   6.027   2.949
 8661TIP3   OH225927   6.033   6.338   4.105
 8661TIP3    H125928   6.011   6.265   4.167
 8661TIP3    H225929   6.127   6.352   4.128
 8662TIP3   OH225930   6.017   6.089   3.257
 8662TIP3    H125931   5.952   6.115   3.188
 8662TIP3    H225932   6.051   6.008   3.213
 8663TIP3   OH225933   5.303   6.116   3.986
 8663TIP3    H125934   5.335   6.177   4.055
 8663TIP3    H225935   5.291   6.033   4.036
 8664TIP3   OH225936   5.353   5.598   2.696
 8664TIP3    H125937   5.345   5.595   2.793
 8664TIP3    H225938   5.274   5.650   2.672
 8665TIP3   OH225939   4.898   5.642   3.564
 8665TIP3    H125940   4.972   5.672   3.621
 8665TIP3    H225941   4.943   5.605   3.486
 8666TIP3   OH225942   4.863   5.620   3.085
 8666TIP3    H125943   4.910   5.657   3.008
 8666TIP3    H225944   4.802   5.694   3.105
 8667TIP3   OH225945   6.023   6.333   3.677
 8667TIP3    H125946   6.060   6.262   3.619
 8667TIP3    H225947   5.995   6.279   3.754
 8668TIP3   OH225948   5.700   5.799   3.353
 8668TIP3    H125949   5.618   5.797   3.406
 8668TIP3    H225950   5.769   5.790   3.421
 8669TIP3   OH225951   5.131   5.855   3.359
 8669TIP3    H125952   5.036   5.862   3.331
 8669TIP3    H225953   5.153   5.762   3.339
 8670TIP3   OH225954   5.395   5.849   3.052
 8670TIP3    H125955   5.489   5.863   3.031
 8670TIP3    H225956   5.348   5.870   2.968
 8671TIP3   OH225957   6.170   5.871   3.543
 8671TIP3    H125958   6.154   5.883   3.640
 8671TIP3    H225959   6.098   5.810   3.521
 8672TIP3   OH225960   5.244   5.887   2.828
 8672TIP3    H125961   5.171   5.841   2.782
 8672TIP3    H225962   5.295   5.922   2.751
 8673TIP3   OH225963   6.361   7.564   3.776
 8673TIP3    H125964   6.361   7.587   3.682
 8673TIP3    H225965   6.443   7.608   3.807
 8674TIP3   OH225966   5.315   6.676   4.194
 8674TIP3    H125967   5.395   6.703   4.243
 8674TIP3    H225968   5.251   6.670   4.267
 8675TIP3   OH225969   5.777   6.130   3.453
 8675TIP3    H125970   5.849   6.084   3.407
 8675TIP3    H225971   5.778   6.086   3.540
 8676TIP3   OH225972   5.297   5.612   3.335
 8676TIP3    H125973   5.259   5.537   3.386
 8676TIP3    H225974   5.347   5.566   3.267
 8677TIP3   OH225975   5.755   6.033   3.731
 8677TIP3    H125976   5.664   6.062   3.753
 8677TIP3    H225977   5.811   6.089   3.788
 8678TIP3   OH225978   5.492   6.415   2.831
 8678TIP3    H125979   5.421   6.348   2.821
 8678TIP3    H225980   5.472   6.448   2.922
 8679TIP3   OH225981   6.394   6.649   3.461
 8679TIP3    H125982   6.419   6.700   3.382
 8679TIP3    H225983   6.308   6.609   3.435
 8680TIP3   OH225984   5.947   5.726   2.699
 8680TIP3    H125985   5.852   5.705   2.710
 8680TIP3    H225986   5.955   5.819   2.727
 8681TIP3   OH225987   5.887   6.732   3.832
 8681TIP3    H125988   5.923   6.712   3.920
 8681TIP3    H225989   5.852   6.821   3.842
 8682TIP3   OH225990   6.017   5.975   2.804
 8682TIP3    H125991   6.114   5.979   2.819
 8682TIP3    H225992   6.001   6.055   2.751
 8683TIP3   OH225993   5.186   6.440   3.508
 8683TIP3    H125994   5.225   6.408   3.424
 8683TIP3    H225995   5.227   6.380   3.573
 8684TIP3   OH225996   5.629   6.562   2.643
 8684TIP3    H125997   5.583   6.648   2.655
 8684TIP3    H225998   5.582   6.506   2.708
 8685TIP3   OH225999   5.067   6.357   4.125
 8685TIP3    H126000   5.083   6.341   4.220
 8685TIP3    H226001   4.998   6.290   4.106
 8686TIP3   OH226002   5.793   6.474   4.143
 8686TIP3    H126003   5.731   6.411   4.101
 8686TIP3    H226004   5.879   6.436   4.115
 8687TIP3   OH226005   6.048   6.995   3.729
 8687TIP3    H126006   5.952   6.992   3.743
 8687TIP3    H226007   6.077   7.045   3.807
 8688TIP3   OH226008   6.458   6.062   2.643
 8688TIP3    H126009   6.394   6.019   2.582
 8688TIP3    H226010   6.455   6.151   2.602
 8689TIP3   OH226011   6.678   6.925   3.719
 8689TIP3    H126012   6.580   6.918   3.711
 8689TIP3    H226013   6.704   6.895   3.630
 8690TIP3   OH226014   6.141   6.881   2.537
 8690TIP3    H126015   6.135   6.825   2.616
 8690TIP3    H226016   6.183   6.823   2.472
 8691TIP3   OH226017   6.156   6.514   3.375
 8691TIP3    H126018   6.063   6.489   3.391
 8691TIP3    H226019   6.190   6.432   3.335
 8692TIP3   OH226020   5.285   6.741   3.133
 8692TIP3    H126021   5.279   6.823   3.080
 8692TIP3    H226022   5.193   6.723   3.152
 8693TIP3   OH226023   4.849   6.044   2.842
 8693TIP3    H126024   4.894   6.128   2.865
 8693TIP3    H226025   4.772   6.047   2.903
 8694TIP3   OH226026   5.418   6.504   3.075
 8694TIP3    H126027   5.383   6.593   3.097
 8694TIP3    H226028   5.386   6.452   3.151
 8695TIP3   OH226029   5.556   7.083   3.604
 8695TIP3    H126030   5.601   7.155   3.554
 8695TIP3    H226031   5.631   7.045   3.652
 8696TIP3   OH226032   5.201   6.982   2.986
 8696TIP3    H126033   5.117   6.989   3.035
 8696TIP3    H226034   5.233   7.074   2.991
 8697TIP3   OH226035   5.940   6.719   3.564
 8697TIP3    H126036   5.928   6.717   3.662
 8697TIP3    H226037   6.021   6.667   3.555
 8698TIP3   OH226038   5.912   6.629   2.441
 8698TIP3    H126039   5.972   6.604   2.515
 8698TIP3    H226040   5.831   6.587   2.474
 8699TIP3   OH226041   6.189   7.250   3.615
 8699TIP3    H126042   6.110   7.193   3.609
 8699TIP3    H226043   6.172   7.313   3.542
 8700TIP3   OH226044   6.252   7.086   2.266
 8700TIP3    H126045   6.296   7.155   2.213
 8700TIP3    H226046   6.178   7.139   2.301
 8701TIP3   OH226047   5.274   5.863   4.129
 8701TIP3    H126048   5.177   5.863   4.141
 8701TIP3    H226049   5.302   5.804   4.201
 8702TIP3   OH226050   6.078   6.544   2.651
 8702TIP3    H126051   6.065   6.480   2.725
 8702TIP3    H226052   6.175   6.540   2.644
 8703TIP3   OH226053   4.992   6.944   3.763
 8703TIP3    H126054   5.046   6.871   3.798
 8703TIP3    H226055   5.019   7.016   3.821
 8704TIP3   OH226056   5.277   6.591   2.447
 8704TIP3    H126057   5.291   6.497   2.423
 8704TIP3    H226058   5.260   6.583   2.543
 8705TIP3   OH226059   5.227   6.598   2.717
 8705TIP3    H126060   5.296   6.566   2.776
 8705TIP3    H226061   5.231   6.695   2.730
 8706TIP3   OH226062   4.960   6.288   2.923
 8706TIP3    H126063   4.893   6.332   2.981
 8706TIP3    H226064   4.972   6.357   2.856
 8707TIP3   OH226065   6.121   5.920   3.810
 8707TIP3    H126066   6.195   5.963   3.856
 8707TIP3    H226067   6.104   5.842   3.867
 8708TIP3   OH226068   5.996   5.674   2.983
 8708TIP3    H126069   5.983   5.697   2.890
 8708TIP3    H226070   6.036   5.757   3.019
 8709TIP3   OH226071   5.494   6.795   2.662
 8709TIP3    H126072   5.406   6.813   2.702
 8709TIP3    H226073   5.513   6.881   2.623
 8710TIP3   OH226074   5.679   5.860   3.084
 8710TIP3    H126075   5.743   5.932   3.068
 8710TIP3    H226076   5.685   5.849   3.181
 8711TIP3   OH226077   5.954   6.175   3.888
 8711TIP3    H126078   5.976   6.228   3.967
 8711TIP3    H226079   6.005   6.093   3.904
 8712TIP3   OH226080   5.823   5.579   3.183
 8712TIP3    H126081   5.818   5.657   3.242
 8712TIP3    H226082   5.886   5.613   3.115
 8713TIP3   OH226083   5.241   6.870   2.738
 8713TIP3    H126084   5.209   6.940   2.677
 8713TIP3    H226085   5.223   6.911   2.825
 8714TIP3   OH226086   5.339   5.584   2.971
 8714TIP3    H126087   5.336   5.672   3.013
 8714TIP3    H226088   5.434   5.565   2.980
 8715TIP3   OH226089   6.591   6.085   3.846
 8715TIP3    H126090   6.499   6.064   3.870
 8715TIP3    H226091   6.578   6.129   3.760
 8716TIP3   OH226092   6.247   6.262   3.260
 8716TIP3    H126093   6.165   6.210   3.272
 8716TIP3    H226094   6.311   6.212   3.313
 8717TIP3   OH226095   4.958   6.494   2.726
 8717TIP3    H126096   5.029   6.560   2.737
 8717TIP3    H226097   5.001   6.435   2.660
 8718TIP3   OH226098   4.899   5.774   2.859
 8718TIP3    H126099   4.898   5.872   2.858
 8718TIP3    H226100   4.814   5.752   2.820
 8719TIP3   OH226101   6.212   7.228   3.205
 8719TIP3    H126102   6.170   7.275   3.129
 8719TIP3    H226103   6.306   7.249   3.187
 8720TIP3   OH226104   5.288   5.495   3.732
 8720TIP3    H126105   5.257   5.457   3.648
 8720TIP3    H226106   5.279   5.419   3.794
 8721TIP3   OH226107   4.824   6.715   3.111
 8721TIP3    H126108   4.761   6.742   3.179
 8721TIP3    H226109   4.787   6.757   3.030
 8722TIP3   OH226110   4.986   7.260   4.186
 8722TIP3    H126111   5.072   7.260   4.233
 8722TIP3    H226112   4.966   7.165   4.185
 8723TIP3   OH226113   5.461   7.216   4.230
 8723TIP3    H126114   5.556   7.197   4.238
 8723TIP3    H226115   5.436   7.154   4.159
 8724TIP3   OH226116   5.444   6.785   2.359
 8724TIP3    H126117   5.378   6.724   2.400
 8724TIP3    H226118   5.521   6.725   2.359
 8725TIP3   OH226119   6.101   7.126   3.965
 8725TIP3    H126120   6.095   7.056   4.034
 8725TIP3    H226121   6.180   7.176   3.995
 8726TIP3   OH226122   5.925   6.850   2.239
 8726TIP3    H126123   5.907   6.781   2.307
 8726TIP3    H226124   6.022   6.861   2.254
 8727TIP3   OH226125   5.114   6.664   4.386
 8727TIP3    H126126   5.130   6.568   4.395
 8727TIP3    H226127   5.027   6.664   4.341
 8728TIP3   OH226128   5.094   6.309   2.582
 8728TIP3    H126129   5.148   6.276   2.657
 8728TIP3    H226130   5.163   6.314   2.513
 8729TIP3   OH226131   5.719   6.749   4.161
 8729TIP3    H126132   5.680   6.767   4.074
 8729TIP3    H226133   5.752   6.656   4.151
 8730TIP3   OH226134   5.606   6.525   2.370
 8730TIP3    H126135   5.607   6.533   2.468
 8730TIP3    H226136   5.607   6.427   2.363
 8731TIP3   OH226137   6.212   6.760   3.766
 8731TIP3    H126138   6.290   6.801   3.724
 8731TIP3    H226139   6.145   6.829   3.750
 8732TIP3   OH226140   5.236   6.402   4.368
 8732TIP3    H126141   5.307   6.342   4.345
 8732TIP3    H226142   5.263   6.432   4.457
 8733TIP3   OH226143   5.296   6.219   2.800
 8733TIP3    H126144   5.269   6.181   2.885
 8733TIP3    H226145   5.334   6.141   2.754
 8734TIP3   OH226146   5.568   6.281   4.031
 8734TIP3    H126147   5.490   6.340   4.030
 8734TIP3    H226148   5.619   6.315   3.954
 8735TIP3   OH226149   5.401   6.013   2.641
 8735TIP3    H126150   5.377   6.018   2.546
 8735TIP3    H226151   5.499   6.014   2.635
 8736TIP3   OH226152   6.086   6.682   4.163
 8736TIP3    H126153   6.166   6.652   4.117
 8736TIP3    H226154   6.080   6.618   4.236
 8737TIP3   OH226155   6.214   6.345   2.305
 8737TIP3    H126156   6.199   6.295   2.222
 8737TIP3    H226157   6.182   6.433   2.278
 8738TIP3   OH226158   5.693   6.071   4.155
 8738TIP3    H126159   5.692   5.991   4.099
 8738TIP3    H226160   5.647   6.137   4.098
 8739TIP3   OH226161   5.695   5.859   3.964
 8739TIP3    H126162   5.722   5.895   3.878
 8739TIP3    H226163   5.602   5.834   3.946
 8740TIP3   OH226164   5.718   6.389   3.836
 8740TIP3    H126165   5.804   6.401   3.795
 8740TIP3    H226166   5.662   6.455   3.790
 8741TIP3   OH226167   6.300   6.356   4.215
 8741TIP3    H126168   6.347   6.273   4.235
 8741TIP3    H226169   6.371   6.412   4.180
 8742TIP3   OH226170   6.343   6.611   3.951
 8742TIP3    H126171   6.286   6.666   3.893
 8742TIP3    H226172   6.432   6.632   3.913
 8743TIP3   OH226173   5.570   6.177   4.389
 8743TIP3    H126174   5.503   6.107   4.405
 8743TIP3    H226175   5.604   6.150   4.301
 8744TIP3   OH226176   5.827   5.617   4.030
 8744TIP3    H126177   5.775   5.698   4.010
 8744TIP3    H226178   5.758   5.548   4.022
 8745TIP3   OH226179   5.952   6.121   4.248
 8745TIP3    H126180   5.939   6.104   4.343
 8745TIP3    H226181   5.862   6.097   4.216
 8746TIP3   OH226182   6.187   6.069   4.102
 8746TIP3    H126183   6.114   6.071   4.166
 8746TIP3    H226184   6.263   6.039   4.157
 8747TIP3   OH226185   6.416   6.013   4.250
 8747TIP3    H126186   6.432   5.917   4.266
 8747TIP3    H226187   6.414   6.050   4.340
 8748TIP3   OH226188   5.411   5.957   4.443
 8748TIP3    H126189   5.412   5.864   4.411
 8748TIP3    H226190   5.450   5.944   4.533
 8749TIP3   OH226191   5.923   5.632   4.288
 8749TIP3    H126192   5.986   5.557   4.286
 8749TIP3    H226193   5.881   5.622   4.200
 8750TIP3   OH226194   5.989   5.845   4.446
 8750TIP3    H126195   5.968   5.772   4.384
 8750TIP3    H226196   5.908   5.900   4.441
 8751TIP3   OH226197   5.209   7.073   2.549
 8751TIP3    H126198   5.304   7.065   2.528
 8751TIP3    H226199   5.180   7.126   2.472
 8752TIP3   OH226200   4.687   6.456   2.759
 8752TIP3    H126201   4.783   6.475   2.747
 8752TIP3    H226202   4.681   6.366   2.721
 8753TIP3   OH226203   4.605   7.065   3.181
 8753TIP3    H126204   4.538   7.004   3.143
 8753TIP3    H226205   4.649   7.006   3.246
 8754TIP3   OH226206   4.738   6.912   3.367
 8754TIP3    H126207   4.727   6.841   3.434
 8754TIP3    H226208   4.790   6.975   3.419
 8755TIP3   OH226209   6.463   7.325   3.166
 8755TIP3    H126210   6.495   7.349   3.255
 8755TIP3    H226211   6.538   7.352   3.110
 8756TIP3   OH226212   6.494   7.336   3.449
 8756TIP3    H126213   6.451   7.249   3.447
 8756TIP3    H226214   6.573   7.314   3.501
 8757TIP3   OH226215   6.538   7.014   4.021
 8757TIP3    H126216   6.469   7.024   4.089
 8757TIP3    H226217   6.583   7.101   4.025
 8758TIP3   OH226218   6.354   6.528   2.638
 8758TIP3    H126219   6.421   6.592   2.607
 8758TIP3    H226220   6.400   6.488   2.715
 8759TIP3   OH226221   6.483   6.393   2.841
 8759TIP3    H126222   6.417   6.352   2.900
 8759TIP3    H226223   6.549   6.429   2.903
 8760TIP3   OH226224   6.537   6.786   3.270
 8760TIP3    H126225   6.594   6.720   3.225
 8760TIP3    H226226   6.538   6.860   3.207
 8761TIP3   OH226227   6.368   7.087   3.468
 8761TIP3    H126228   6.296   7.126   3.521
 8761TIP3    H226229   6.319   7.040   3.398
 8762TIP3   OH226230   6.408   6.288   2.502
 8762TIP3    H126231   6.348   6.299   2.426
 8762TIP3    H226232   6.394   6.373   2.548
 8763TIP3   OH226233   6.284   5.971   2.453
 8763TIP3    H126234   6.260   6.008   2.368
 8763TIP3    H226235   6.264   5.876   2.440
 8764TIP3   OH226236   6.296   6.253   2.989
 8764TIP3    H126237   6.303   6.156   2.978
 8764TIP3    H226238   6.282   6.263   3.086
 8765TIP3   OH226239   4.922   6.328   3.736
 8765TIP3    H126240   4.920   6.291   3.646
 8765TIP3    H226241   5.019   6.326   3.754
 8766TIP3   OH226242   6.590   6.676   3.846
 8766TIP3    H126243   6.661   6.608   3.838
 8766TIP3    H226244   6.621   6.745   3.785
 8767TIP3   OH226245   6.771   6.474   3.860
 8767TIP3    H126246   6.699   6.421   3.900
 8767TIP3    H226247   6.846   6.411   3.868
 8768TIP3   OH226248   6.238   5.705   2.423
 8768TIP3    H126249   6.311   5.675   2.481
 8768TIP3    H226250   6.164   5.647   2.447
 8769TIP3   OH226251   6.297   5.969   2.880
 8769TIP3    H126252   6.337   5.880   2.894
 8769TIP3    H226253   6.354   6.001   2.808
 8770TIP3   OH226254   6.466   6.123   3.381
 8770TIP3    H126255   6.540   6.170   3.339
 8770TIP3    H226256   6.467   6.164   3.470
 8771TIP3   OH226257   6.514   6.269   3.610
 8771TIP3    H126258   6.441   6.311   3.660
 8771TIP3    H226259   6.560   6.349   3.575
 8772TIP3   OH226260   5.146   6.014   4.419
 8772TIP3    H126261   5.243   6.004   4.419
 8772TIP3    H226262   5.120   5.925   4.451
 8773TIP3   OH226263   6.971   5.875   4.165
 8773TIP3    H126264   7.035   5.811   4.126
 8773TIP3    H226265   6.945   5.927   4.086
 8774TIP3   OH226266   6.403   5.718   2.922
 8774TIP3    H126267   6.449   5.699   3.006
 8774TIP3    H226268   6.341   5.642   2.919
 8775TIP3   OH226269   5.103   5.703   3.739
 8775TIP3    H126270   5.163   5.627   3.750
 8775TIP3    H226271   5.167   5.776   3.733
 8776TIP3   OH226272   4.903   5.976   3.811
 8776TIP3    H126273   4.954   5.973   3.728
 8776TIP3    H226274   4.938   6.055   3.853
 8777TIP3   OH226275   6.847   6.015   3.964
 8777TIP3    H126276   6.766   6.060   3.994
 8777TIP3    H226277   6.808   5.946   3.906
 8778TIP3   OH226278   6.482   5.650   2.557
 8778TIP3    H126279   6.521   5.580   2.500
 8778TIP3    H226280   6.549   5.721   2.550
 8779TIP3   OH226281   4.890   5.477   3.314
 8779TIP3    H126282   4.798   5.472   3.345
 8779TIP3    H226283   4.883   5.537   3.237
 8780TIP3   OH226284   6.044   7.187   2.818
 8780TIP3    H126285   6.102   7.177   2.739
 8780TIP3    H226286   6.096   7.247   2.874
 8781TIP3   OH226287   5.112   5.568   4.132
 8781TIP3    H126288   5.059   5.552   4.212
 8781TIP3    H226289   5.043   5.597   4.070
 8782TIP3   OH226290   5.148   6.993   4.204
 8782TIP3    H126291   5.056   6.964   4.189
 8782TIP3    H226292   5.162   6.966   4.296
 8783TIP3   OH226293   5.329   7.023   3.753
 8783TIP3    H126294   5.283   7.100   3.714
 8783TIP3    H226295   5.416   7.036   3.709
 8784TIP3   OH226296   5.770   7.266   3.891
 8784TIP3    H126297   5.812   7.264   3.980
 8784TIP3    H226298   5.836   7.317   3.841
 8785TIP3   OH226299   5.951   7.419   3.752
 8785TIP3    H126300   6.021   7.367   3.712
 8785TIP3    H226301   6.003   7.476   3.813
 8786TIP3   OH226302   6.747   5.769   3.855
 8786TIP3    H126303   6.660   5.740   3.822
 8786TIP3    H226304   6.801   5.691   3.830
 8787TIP3   OH226305   5.003   7.279   3.777
 8787TIP3    H126306   4.912   7.312   3.757
 8787TIP3    H226307   5.017   7.319   3.863
 8788TIP3   OH226308   5.240   7.257   3.637
 8788TIP3    H126309   5.153   7.269   3.681
 8788TIP3    H226310   5.221   7.288   3.547
 8789TIP3   OH226311   5.666   7.284   3.434
 8789TIP3    H126312   5.595   7.303   3.370
 8789TIP3    H226313   5.678   7.371   3.478
 8790TIP3   OH226314   5.936   7.221   3.486
 8790TIP3    H126315   5.842   7.241   3.466
 8790TIP3    H226316   5.982   7.296   3.444
 8791TIP3   OH226317   6.137   7.412   3.399
 8791TIP3    H126318   6.126   7.497   3.350
 8791TIP3    H226319   6.168   7.352   3.327
 8792TIP3   OH226320   4.916   7.070   3.523
 8792TIP3    H126321   4.942   7.041   3.613
 8792TIP3    H226322   4.987   7.026   3.471
 8793TIP3   OH226323   5.111   6.943   3.382
 8793TIP3    H126324   5.125   6.859   3.431
 8793TIP3    H226325   5.203   6.978   3.379
 8794TIP3   OH226326   5.380   7.034   3.387
 8794TIP3    H126327   5.408   6.941   3.379
 8794TIP3    H226328   5.428   7.058   3.469
 8795TIP3   OH226329   5.950   5.689   3.471
 8795TIP3    H126330   5.907   5.619   3.524
 8795TIP3    H226331   6.023   5.641   3.429
 8796TIP3   OH226332   6.467   5.587   3.380
 8796TIP3    H126333   6.503   5.632   3.300
 8796TIP3    H226334   6.371   5.599   3.369
 8797TIP3   OH226335   6.567   5.668   3.137
 8797TIP3    H126336   6.640   5.615   3.101
 8797TIP3    H226337   6.604   5.759   3.125
 8798TIP3   OH226338   5.198   5.400   3.484
 8798TIP3    H126339   5.106   5.366   3.490
 8798TIP3    H226340   5.248   5.315   3.480
 8799TIP3   OH226341   4.984   5.273   3.135
 8799TIP3    H126342   5.015   5.330   3.063
 8799TIP3    H226343   4.959   5.338   3.204
 8800TIP3   OH226344   5.644   5.434   3.367
 8800TIP3    H126345   5.703   5.482   3.307
 8800TIP3    H226346   5.671   5.469   3.453
 8801TIP3   OH226347   6.188   5.578   3.346
 8801TIP3    H126348   6.188   5.535   3.260
 8801TIP3    H226349   6.179   5.501   3.407
 8802TIP3   OH226350   6.220   5.505   2.914
 8802TIP3    H126351   6.134   5.547   2.931
 8802TIP3    H226352   6.207   5.419   2.959
 8803TIP3   OH226353   4.704   6.846   2.908
 8803TIP3    H126354   4.618   6.812   2.877
 8803TIP3    H226355   4.693   6.940   2.888
 8804TIP3   OH226356   5.107   5.432   2.893
 8804TIP3    H126357   5.154   5.366   2.839
 8804TIP3    H226358   5.181   5.484   2.931
 8805TIP3   OH226359   5.615   5.609   2.995
 8805TIP3    H126360   5.673   5.559   3.056
 8805TIP3    H226361   5.638   5.700   3.022
 8806TIP3   OH226362   5.475   7.026   2.492
 8806TIP3    H126363   5.564   7.045   2.457
 8806TIP3    H226364   5.452   6.948   2.438
 8807TIP3   OH226365   6.193   7.148   2.588
 8807TIP3    H126366   6.181   7.051   2.576
 8807TIP3    H226367   6.149   7.182   2.507
 8808TIP3   OH226368   5.407   5.686   4.381
 8808TIP3    H126369   5.371   5.612   4.434
 8808TIP3    H226370   5.501   5.682   4.408
 8809TIP3   OH226371   5.659   5.680   4.497
 8809TIP3    H126372   5.743   5.649   4.460
 8809TIP3    H226373   5.643   5.613   4.566
 8810TIP3   OH226374   4.780   6.868   2.551
 8810TIP3    H126375   4.778   6.884   2.647
 8810TIP3    H226376   4.867   6.825   2.538
 8811TIP3   OH226377   6.484   5.744   4.283
 8811TIP3    H126378   6.501   5.712   4.374
 8811TIP3    H226379   6.574   5.738   4.244
 8812TIP3   OH226380   6.416   7.293   3.778
 8812TIP3    H126381   6.338   7.264   3.726
 8812TIP3    H226382   6.398   7.389   3.783
 8813TIP3   OH226383   7.679   6.658   2.549
 8813TIP3    H126384   7.650   6.750   2.535
 8813TIP3    H226385   7.602   6.611   2.514
 8814TIP3   OH226386   7.673   6.662   2.930
 8814TIP3    H126387   7.712   6.643   3.018
 8814TIP3    H226388   7.636   6.575   2.907
 8815TIP3   OH226389   6.984   6.557   3.291
 8815TIP3    H126390   7.006   6.490   3.360
 8815TIP3    H226391   7.056   6.620   3.306
 8816TIP3   OH226392   7.903   6.962   2.608
 8816TIP3    H126393   7.938   6.886   2.655
 8816TIP3    H226394   7.933   7.035   2.663
 8817TIP3   OH226395   6.951   6.968   3.006
 8817TIP3    H126396   6.947   6.870   3.011
 8817TIP3    H226397   7.046   6.983   3.014
 8818TIP3   OH226398   6.664   6.166   2.800
 8818TIP3    H126399   6.620   6.253   2.812
 8818TIP3    H226400   6.595   6.119   2.750
 8819TIP3   OH226401   6.716   6.459   2.975
 8819TIP3    H126402   6.769   6.383   3.006
 8819TIP3    H226403   6.778   6.506   2.917
 8820TIP3   OH226404   7.597   7.399   2.624
 8820TIP3    H126405   7.667   7.332   2.625
 8820TIP3    H226406   7.559   7.388   2.712
 8821TIP3   OH226407   7.485   6.892   2.970
 8821TIP3    H126408   7.531   6.813   2.936
 8821TIP3    H226409   7.565   6.946   2.991
 8822TIP3   OH226410   8.493   6.220   2.971
 8822TIP3    H126411   8.510   6.303   3.017
 8822TIP3    H226412   8.495   6.249   2.879
 8823TIP3   OH226413   7.891   6.392   3.008
 8823TIP3    H126414   7.938   6.309   3.030
 8823TIP3    H226415   7.858   6.371   2.919
 8824TIP3   OH226416   7.225   6.057   2.970
 8824TIP3    H126417   7.205   6.132   2.910
 8824TIP3    H226418   7.189   5.982   2.919
 8825TIP3   OH226419   7.934   6.144   2.596
 8825TIP3    H126420   8.009   6.127   2.658
 8825TIP3    H226421   7.984   6.179   2.519
 8826TIP3   OH226422   6.860   6.245   3.078
 8826TIP3    H126423   6.949   6.241   3.120
 8826TIP3    H226424   6.879   6.198   2.994
 8827TIP3   OH226425   7.312   6.449   2.859
 8827TIP3    H126426   7.407   6.429   2.878
 8827TIP3    H226427   7.281   6.363   2.825
 8828TIP3   OH226428   7.214   6.031   3.411
 8828TIP3    H126429   7.167   6.082   3.343
 8828TIP3    H226430   7.163   6.051   3.492
 8829TIP3   OH226431   7.553   6.874   2.410
 8829TIP3    H126432   7.529   6.879   2.317
 8829TIP3    H226433   7.526   6.963   2.441
 8830TIP3   OH226434   7.336   6.809   3.195
 8830TIP3    H126435   7.283   6.880   3.239
 8830TIP3    H226436   7.382   6.859   3.125
 8831TIP3   OH226437   8.147   6.146   2.774
 8831TIP3    H126438   8.107   6.119   2.859
 8831TIP3    H226439   8.190   6.231   2.799
 8832TIP3   OH226440   7.095   6.151   3.192
 8832TIP3    H126441   7.152   6.227   3.217
 8832TIP3    H226442   7.150   6.113   3.119
 8833TIP3   OH226443   7.180   7.012   3.306
 8833TIP3    H126444   7.154   7.098   3.265
 8833TIP3    H226445   7.098   6.993   3.356
 8834TIP3   OH226446   6.545   6.701   2.534
 8834TIP3    H126447   6.527   6.727   2.443
 8834TIP3    H226448   6.594   6.779   2.568
 8835TIP3   OH226449   8.298   6.102   3.135
 8835TIP3    H126450   8.210   6.139   3.114
 8835TIP3    H226451   8.354   6.139   3.064
 8836TIP3   OH226452   7.580   5.750   3.112
 8836TIP3    H126453   7.571   5.656   3.139
 8836TIP3    H226454   7.507   5.790   3.164
 8837TIP3   OH226455   7.805   7.023   2.361
 8837TIP3    H126456   7.766   6.939   2.336
 8837TIP3    H226457   7.830   7.005   2.454
 8838TIP3   OH226458   7.513   6.510   2.374
 8838TIP3    H126459   7.439   6.568   2.349
 8838TIP3    H226460   7.565   6.506   2.291
 8839TIP3   OH226461   7.480   6.305   2.082
 8839TIP3    H126462   7.547   6.360   2.128
 8839TIP3    H226463   7.539   6.242   2.036
 8840TIP3   OH226464   8.454   6.737   2.991
 8840TIP3    H126465   8.400   6.809   3.027
 8840TIP3    H226466   8.425   6.743   2.897
 8841TIP3   OH226467   7.855   6.582   2.355
 8841TIP3    H126468   7.806   6.605   2.437
 8841TIP3    H226469   7.944   6.559   2.392
 8842TIP3   OH226470   8.100   6.639   3.261
 8842TIP3    H126471   8.098   6.721   3.314
 8842TIP3    H226472   8.022   6.653   3.205
 8843TIP3   OH226473   7.107   6.607   2.773
 8843TIP3    H126474   7.056   6.544   2.721
 8843TIP3    H226475   7.184   6.553   2.803
 8844TIP3   OH226476   7.229   7.012   2.907
 8844TIP3    H126477   7.213   6.971   2.821
 8844TIP3    H226478   7.318   6.977   2.929
 8845TIP3   OH226479   7.229   6.572   3.105
 8845TIP3    H126480   7.278   6.554   3.022
 8845TIP3    H226481   7.275   6.653   3.139
 8846TIP3   OH226482   7.714   7.197   2.862
 8846TIP3    H126483   7.751   7.274   2.911
 8846TIP3    H226484   7.730   7.124   2.924
 8847TIP3   OH226485   7.373   7.158   3.487
 8847TIP3    H126486   7.308   7.230   3.498
 8847TIP3    H226487   7.316   7.090   3.444
 8848TIP3   OH226488   7.696   6.460   2.170
 8848TIP3    H126489   7.759   6.512   2.226
 8848TIP3    H226490   7.730   6.481   2.080
 8849TIP3   OH226491   7.110   6.700   3.532
 8849TIP3    H126492   7.117   6.784   3.582
 8849TIP3    H226493   7.021   6.670   3.561
 8850TIP3   OH226494   7.457   7.146   2.442
 8850TIP3    H126495   7.488   7.217   2.500
 8850TIP3    H226496   7.386   7.189   2.393
 8851TIP3   OH226497   8.212   5.703   2.212
 8851TIP3    H126498   8.134   5.710   2.271
 8851TIP3    H226499   8.239   5.794   2.204
 8852TIP3   OH226500   6.738   6.826   3.476
 8852TIP3    H126501   6.677   6.799   3.405
 8852TIP3    H226502   6.778   6.741   3.504
 8853TIP3   OH226503   6.604   7.019   3.105
 8853TIP3    H126504   6.699   7.006   3.092
 8853TIP3    H226505   6.604   7.093   3.168
 8854TIP3   OH226506   7.573   7.245   3.320
 8854TIP3    H126507   7.582   7.343   3.324
 8854TIP3    H226508   7.483   7.228   3.354
 8855TIP3   OH226509   7.277   7.416   2.255
 8855TIP3    H126510   7.272   7.368   2.171
 8855TIP3    H226511   7.365   7.458   2.251
 8856TIP3   OH226512   6.767   7.232   2.637
 8856TIP3    H126513   6.818   7.226   2.721
 8856TIP3    H226514   6.722   7.146   2.637
 8857TIP3   OH226515   8.362   6.601   3.455
 8857TIP3    H126516   8.298   6.628   3.389
 8857TIP3    H226517   8.390   6.514   3.420
 8858TIP3   OH226518   6.946   7.005   3.450
 8858TIP3    H126519   6.991   7.007   3.537
 8858TIP3    H226520   6.874   6.941   3.466
 8859TIP3   OH226521   7.345   5.827   3.248
 8859TIP3    H126522   7.253   5.809   3.224
 8859TIP3    H226523   7.335   5.910   3.298
 8860TIP3   OH226524   7.885   5.942   3.442
 8860TIP3    H126525   7.956   5.918   3.505
 8860TIP3    H226526   7.803   5.924   3.493
 8861TIP3   OH226527   8.120   6.374   3.353
 8861TIP3    H126528   8.074   6.369   3.440
 8861TIP3    H226529   8.103   6.466   3.326
 8862TIP3   OH226530   7.782   6.505   1.919
 8862TIP3    H126531   7.743   6.480   1.833
 8862TIP3    H226532   7.858   6.558   1.891
 8863TIP3   OH226533   7.492   5.879   2.221
 8863TIP3    H126534   7.455   5.876   2.311
 8863TIP3    H226535   7.454   5.797   2.185
 8864TIP3   OH226536   7.269   6.350   3.257
 8864TIP3    H126537   7.288   6.399   3.341
 8864TIP3    H226538   7.250   6.427   3.199
 8865TIP3   OH226539   7.161   6.226   2.762
 8865TIP3    H126540   7.067   6.201   2.777
 8865TIP3    H226541   7.194   6.155   2.706
 8866TIP3   OH226542   7.652   6.309   2.506
 8866TIP3    H126543   7.603   6.381   2.462
 8866TIP3    H226544   7.710   6.278   2.434
 8867TIP3   OH226545   7.800   6.334   2.754
 8867TIP3    H126546   7.742   6.368   2.682
 8867TIP3    H226547   7.835   6.256   2.706
 8868TIP3   OH226548   7.069   6.380   3.490
 8868TIP3    H126549   7.149   6.436   3.496
 8868TIP3    H226550   7.097   6.303   3.541
 8869TIP3   OH226551   7.160   5.856   2.182
 8869TIP3    H126552   7.140   5.842   2.277
 8869TIP3    H226553   7.080   5.906   2.154
 8870TIP3   OH226554   6.703   5.893   3.067
 8870TIP3    H126555   6.789   5.931   3.087
 8870TIP3    H226556   6.714   5.861   2.975
 8871TIP3   OH226557   6.658   5.878   2.573
 8871TIP3    H126558   6.699   5.919   2.493
 8871TIP3    H226559   6.595   5.949   2.596
 8872TIP3   OH226560   7.812   6.595   3.170
 8872TIP3    H126561   7.843   6.518   3.116
 8872TIP3    H226562   7.804   6.555   3.258
 8873TIP3   OH226563   7.488   6.060   2.845
 8873TIP3    H126564   7.417   6.055   2.910
 8873TIP3    H226565   7.568   6.047   2.899
 8874TIP3   OH226566   6.925   6.109   2.844
 8874TIP3    H126567   6.830   6.122   2.817
 8874TIP3    H226568   6.940   6.016   2.822
 8875TIP3   OH226569   7.989   6.130   3.027
 8875TIP3    H126570   7.967   6.140   3.123
 8875TIP3    H226571   7.917   6.071   3.000
 8876TIP3   OH226572   7.104   6.935   3.685
 8876TIP3    H126573   7.181   6.973   3.730
 8876TIP3    H226574   7.038   6.940   3.757
 8877TIP3   OH226575   7.570   6.384   2.934
 8877TIP3    H126576   7.647   6.346   2.888
 8877TIP3    H226577   7.577   6.344   3.023
 8878TIP3   OH226578   7.102   5.865   2.811
 8878TIP3    H126579   7.059   5.796   2.866
 8878TIP3    H226580   7.163   5.810   2.759
 8879TIP3   OH226581   7.544   6.287   3.227
 8879TIP3    H126582   7.454   6.325   3.236
 8879TIP3    H226583   7.594   6.342   3.289
 8880TIP3   OH226584   7.286   6.667   2.317
 8880TIP3    H126585   7.193   6.671   2.289
 8880TIP3    H226586   7.278   6.701   2.409
 8881TIP3   OH226587   8.172   6.841   2.993
 8881TIP3    H126588   8.205   6.817   2.903
 8881TIP3    H226589   8.078   6.818   2.982
 8882TIP3   OH226590   7.746   5.977   2.192
 8882TIP3    H126591   7.649   5.961   2.198
 8882TIP3    H226592   7.755   6.073   2.211
 8883TIP3   OH226593   7.680   6.974   3.311
 8883TIP3    H126594   7.706   6.946   3.400
 8883TIP3    H226595   7.643   7.062   3.327
 8884TIP3   OH226596   7.812   6.230   2.290
 8884TIP3    H126597   7.908   6.234   2.308
 8884TIP3    H226598   7.798   6.308   2.234
 8885TIP3   OH226599   6.973   6.685   3.003
 8885TIP3    H126600   7.023   6.667   2.921
 8885TIP3    H226601   7.029   6.641   3.069
 8886TIP3   OH226602   7.435   6.819   2.135
 8886TIP3    H126603   7.385   6.903   2.143
 8886TIP3    H226604   7.388   6.763   2.200
 8887TIP3   OH226605   6.853   6.620   3.620
 8887TIP3    H126606   6.890   6.608   3.709
 8887TIP3    H226607   6.802   6.538   3.609
 8888TIP3   OH226608   7.842   7.234   3.249
 8888TIP3    H126609   7.746   7.232   3.236
 8888TIP3    H226610   7.847   7.280   3.336
 8889TIP3   OH226611   7.933   6.760   2.882
 8889TIP3    H126612   7.839   6.733   2.879
 8889TIP3    H226613   7.973   6.693   2.824
 8890TIP3   OH226614   7.085   6.997   2.614
 8890TIP3    H126615   7.078   7.081   2.565
 8890TIP3    H226616   6.994   6.980   2.638
 8891TIP3   OH226617   7.208   6.757   2.557
 8891TIP3    H126618   7.178   6.849   2.576
 8891TIP3    H226619   7.181   6.713   2.640
 8892TIP3   OH226620   7.350   7.335   3.090
 8892TIP3    H126621   7.386   7.400   3.025
 8892TIP3    H226622   7.430   7.313   3.138
 8893TIP3   OH226623   6.999   7.232   2.475
 8893TIP3    H126624   6.914   7.243   2.522
 8893TIP3    H226625   7.032   7.324   2.482
 8894TIP3   OH226626   7.743   6.973   3.042
 8894TIP3    H126627   7.731   6.967   3.139
 8894TIP3    H226628   7.813   6.908   3.026
 8895TIP3   OH226629   7.628   6.855   1.919
 8895TIP3    H126630   7.716   6.856   1.959
 8895TIP3    H226631   7.571   6.832   1.995
 8896TIP3   OH226632   7.060   6.096   3.642
 8896TIP3    H126633   7.016   6.158   3.703
 8896TIP3    H226634   7.110   6.042   3.706
 8897TIP3   OH226635   7.894   6.778   2.170
 8897TIP3    H126636   7.855   6.720   2.239
 8897TIP3    H226637   7.980   6.735   2.159
 8898TIP3   OH226638   6.789   7.202   3.253
 8898TIP3    H126639   6.847   7.131   3.285
 8898TIP3    H226640   6.825   7.277   3.303
 8899TIP3   OH226641   7.066   6.849   1.936
 8899TIP3    H126642   7.093   6.760   1.907
 8899TIP3    H226643   7.053   6.834   2.032
 8900TIP3   OH226644   7.029   6.856   2.216
 8900TIP3    H126645   7.086   6.857   2.294
 8900TIP3    H226646   7.017   6.953   2.204
 8901TIP3   OH226647   6.813   6.599   2.460
 8901TIP3    H126648   6.722   6.600   2.493
 8901TIP3    H226649   6.801   6.585   2.365
 8902TIP3   OH226650   7.918   6.167   3.283
 8902TIP3    H126651   7.965   6.230   3.339
 8902TIP3    H226652   7.899   6.095   3.346
 8903TIP3   OH226653   7.791   5.933   2.471
 8903TIP3    H126654   7.779   5.954   2.377
 8903TIP3    H226655   7.831   6.015   2.506
 8904TIP3   OH226656   7.288   7.045   2.165
 8904TIP3    H126657   7.198   7.067   2.195
 8904TIP3    H226658   7.303   7.120   2.105
 8905TIP3   OH226659   7.459   6.121   2.578
 8905TIP3    H126660   7.527   6.188   2.555
 8905TIP3    H226661   7.476   6.109   2.674
 8906TIP3   OH226662   7.620   5.834   2.666
 8906TIP3    H126663   7.633   5.901   2.736
 8906TIP3    H226664   7.681   5.869   2.597
 8907TIP3   OH226665   7.030   7.125   2.223
 8907TIP3    H126666   7.002   7.198   2.163
 8907TIP3    H226667   7.019   7.169   2.310
 8908TIP3   OH226668   7.131   5.826   2.454
 8908TIP3    H126669   7.123   5.910   2.499
 8908TIP3    H226670   7.228   5.811   2.461
 8909TIP3   OH226671   8.391   6.348   3.348
 8909TIP3    H126672   8.293   6.346   3.358
 8909TIP3    H226673   8.401   6.300   3.265
 8910TIP3   OH226674   8.027   6.518   2.744
 8910TIP3    H126675   7.953   6.458   2.758
 8910TIP3    H226676   8.099   6.476   2.795
 8911TIP3   OH226677   6.741   6.763   2.199
 8911TIP3    H126678   6.815   6.820   2.225
 8911TIP3    H226679   6.789   6.700   2.141
 8912TIP3   OH226680   6.705   6.039   2.348
 8912TIP3    H126681   6.763   6.113   2.322
 8912TIP3    H226682   6.630   6.050   2.290
 8913TIP3   OH226683   7.067   5.753   3.224
 8913TIP3    H126684   7.049   5.716   3.134
 8913TIP3    H226685   7.070   5.672   3.279
 8914TIP3   OH226686   6.624   6.972   2.599
 8914TIP3    H126687   6.558   7.000   2.663
 8914TIP3    H226688   6.590   7.013   2.516
 8915TIP3   OH226689   6.780   7.515   3.673
 8915TIP3    H126690   6.865   7.518   3.722
 8915TIP3    H226691   6.763   7.420   3.670
 8916TIP3   OH226692   7.239   7.045   1.844
 8916TIP3    H126693   7.183   6.973   1.881
 8916TIP3    H226694   7.313   6.993   1.807
 8917TIP3   OH226695   7.902   7.366   3.488
 8917TIP3    H126696   7.954   7.318   3.556
 8917TIP3    H226697   7.963   7.440   3.471
 8918TIP3   OH226698   6.905   6.917   3.881
 8918TIP3    H126699   6.925   6.822   3.881
 8918TIP3    H226700   6.821   6.920   3.830
 8919TIP3   OH226701   6.869   6.573   2.056
 8919TIP3    H126702   6.877   6.490   2.108
 8919TIP3    H226703   6.953   6.572   2.004
 8920TIP3   OH226704   7.354   6.751   1.874
 8920TIP3    H126705   7.379   6.771   1.966
 8920TIP3    H226706   7.383   6.658   1.867
 8921TIP3   OH226707   8.004   7.009   3.258
 8921TIP3    H126708   8.062   7.042   3.188
 8921TIP3    H226709   7.933   7.077   3.258
 8922TIP3   OH226710   7.032   6.650   3.853
 8922TIP3    H126711   7.113   6.605   3.825
 8922TIP3    H226712   7.060   6.684   3.941
 8923TIP3   OH226713   7.313   6.509   3.469
 8923TIP3    H126714   7.277   6.594   3.501
 8923TIP3    H226715   7.409   6.524   3.480
 8924TIP3   OH226716   7.210   6.282   2.165
 8924TIP3    H126717   7.165   6.265   2.081
 8924TIP3    H226718   7.304   6.280   2.135
 8925TIP3   OH226719   7.860   6.940   3.641
 8925TIP3    H126720   7.945   6.921   3.600
 8925TIP3    H226721   7.860   6.881   3.718
 8926TIP3   OH226722   7.492   6.064   3.404
 8926TIP3    H126723   7.518   6.141   3.349
 8926TIP3    H226724   7.397   6.082   3.421
 8927TIP3   OH226725   7.524   6.618   3.281
 8927TIP3    H126726   7.606   6.666   3.267
 8927TIP3    H226727   7.457   6.689   3.270
 8928TIP3   OH226728   8.134   6.621   3.736
 8928TIP3    H126729   8.139   6.530   3.707
 8928TIP3    H226730   8.174   6.669   3.663
 8929TIP3   OH226731   8.116   6.869   3.461
 8929TIP3    H126732   8.061   6.921   3.399
 8929TIP3    H226733   8.203   6.879   3.415
 8930TIP3   OH226734   7.346   6.465   3.864
 8930TIP3    H126735   7.325   6.370   3.860
 8930TIP3    H226736   7.419   6.471   3.797
 8931TIP3   OH226737   7.628   5.861   3.522
 8931TIP3    H126738   7.581   5.939   3.483
 8931TIP3    H226739   7.560   5.792   3.513
 8932TIP3   OH226740   7.991   6.338   3.586
 8932TIP3    H126741   7.906   6.352   3.632
 8932TIP3    H226742   8.046   6.297   3.655
 8933TIP3   OH226743   8.242   6.277   3.743
 8933TIP3    H126744   8.239   6.180   3.755
 8933TIP3    H226745   8.223   6.311   3.833
 8934TIP3   OH226746   7.210   6.209   3.926
 8934TIP3    H126747   7.234   6.118   3.903
 8934TIP3    H226748   7.252   6.217   4.014
 8935TIP3   OH226749   7.714   5.882   3.782
 8935TIP3    H126750   7.781   5.812   3.777
 8935TIP3    H226751   7.676   5.877   3.692
 8936TIP3   OH226752   7.784   6.103   3.930
 8936TIP3    H126753   7.762   6.030   3.870
 8936TIP3    H226754   7.701   6.156   3.927
 8937TIP3   OH226755   6.997   7.330   2.043
 8937TIP3    H126756   7.093   7.315   2.032
 8937TIP3    H226757   6.979   7.377   1.959
 8938TIP3   OH226758   6.478   6.711   2.247
 8938TIP3    H126759   6.572   6.738   2.232
 8938TIP3    H226760   6.479   6.620   2.211
 8939TIP3   OH226761   6.398   7.321   2.669
 8939TIP3    H126762   6.336   7.258   2.630
 8939TIP3    H226763   6.445   7.264   2.734
 8940TIP3   OH226764   6.533   7.169   2.855
 8940TIP3    H126765   6.526   7.098   2.922
 8940TIP3    H226766   6.589   7.232   2.904
 8941TIP3   OH226767   8.057   6.240   1.941
 8941TIP3    H126768   8.045   6.268   1.850
 8941TIP3    H226769   8.046   6.143   1.933
 8942TIP3   OH226770   8.088   6.505   2.471
 8942TIP3    H126771   8.104   6.410   2.476
 8942TIP3    H226772   8.086   6.533   2.565
 8943TIP3   OH226773   6.721   6.581   3.226
 8943TIP3    H126774   6.719   6.551   3.133
 8943TIP3    H226775   6.818   6.583   3.242
 8944TIP3   OH226776   8.342   6.907   3.318
 8944TIP3    H126777   8.434   6.880   3.338
 8944TIP3    H226778   8.358   6.972   3.247
 8945TIP3   OH226779   8.025   5.967   1.931
 8945TIP3    H126780   8.081   5.913   1.988
 8945TIP3    H226781   7.945   5.912   1.920
 8946TIP3   OH226782   8.083   6.219   2.376
 8946TIP3    H126783   8.123   6.129   2.385
 8946TIP3    H226784   8.137   6.255   2.304
 8947TIP3   OH226785   8.256   6.399   2.848
 8947TIP3    H126786   8.300   6.471   2.800
 8947TIP3    H226787   8.268   6.431   2.941
 8948TIP3   OH226788   8.300   6.527   3.083
 8948TIP3    H126789   8.233   6.569   3.140
 8948TIP3    H226790   8.359   6.603   3.063
 8949TIP3   OH226791   6.949   6.263   3.877
 8949TIP3    H126792   7.045   6.259   3.902
 8949TIP3    H226793   6.917   6.179   3.918
 8950TIP3   OH226794   8.183   5.970   2.419
 8950TIP3    H126795   8.244   5.946   2.492
 8950TIP3    H226796   8.125   5.891   2.416
 8951TIP3   OH226797   6.911   5.967   3.283
 8951TIP3    H126798   6.960   5.882   3.272
 8951TIP3    H226799   6.977   6.028   3.243
 8952TIP3   OH226800   6.727   6.214   3.319
 8952TIP3    H126801   6.761   6.235   3.228
 8952TIP3    H226802   6.723   6.304   3.359
 8953TIP3   OH226803   6.685   5.753   2.814
 8953TIP3    H126804   6.592   5.730   2.831
 8953TIP3    H226805   6.680   5.800   2.729
 8954TIP3   OH226806   6.938   7.210   3.718
 8954TIP3    H126807   6.845   7.206   3.691
 8954TIP3    H226808   6.933   7.225   3.813
 8955TIP3   OH226809   7.119   7.260   3.210
 8955TIP3    H126810   7.079   7.348   3.203
 8955TIP3    H226811   7.206   7.280   3.171
 8956TIP3   OH226812   7.620   7.512   3.351
 8956TIP3    H126813   7.575   7.536   3.433
 8956TIP3    H226814   7.671   7.592   3.331
 8957TIP3   OH226815   8.527   6.010   3.356
 8957TIP3    H126816   8.452   6.051   3.310
 8957TIP3    H226817   8.570   5.960   3.285
 8958TIP3   OH226818   6.792   7.532   3.262
 8958TIP3    H126819   6.702   7.571   3.249
 8958TIP3    H226820   6.819   7.575   3.344
 8959TIP3   OH226821   7.028   7.510   3.126
 8959TIP3    H126822   6.938   7.517   3.165
 8959TIP3    H226823   7.013   7.540   3.035
 8960TIP3   OH226824   7.448   7.518   2.921
 8960TIP3    H126825   7.432   7.578   2.846
 8960TIP3    H226826   7.480   7.582   2.988
 8961TIP3   OH226827   6.711   7.324   3.011
 8961TIP3    H126828   6.740   7.300   3.101
 8961TIP3    H226829   6.784   7.283   2.960
 8962TIP3   OH226830   6.907   7.201   2.869
 8962TIP3    H126831   6.921   7.116   2.917
 8962TIP3    H226832   6.999   7.236   2.868
 8963TIP3   OH226833   7.171   7.290   2.877
 8963TIP3    H126834   7.203   7.198   2.870
 8963TIP3    H226835   7.217   7.316   2.958
 8964TIP3   OH226836   7.735   5.940   2.939
 8964TIP3    H126837   7.700   5.876   3.003
 8964TIP3    H226838   7.819   5.900   2.911
 8965TIP3   OH226839   8.272   5.827   2.857
 8965TIP3    H126840   8.304   5.882   2.782
 8965TIP3    H226841   8.178   5.850   2.859
 8966TIP3   OH226842   8.376   5.925   2.618
 8966TIP3    H126843   8.449   5.871   2.582
 8966TIP3    H226844   8.413   6.014   2.618
 8967TIP3   OH226845   6.995   5.659   2.969
 8967TIP3    H126846   6.903   5.625   2.973
 8967TIP3    H226847   7.044   5.574   2.966
 8968TIP3   OH226848   6.784   5.529   2.622
 8968TIP3    H126849   6.814   5.583   2.546
 8968TIP3    H226850   6.760   5.597   2.687
 8969TIP3   OH226851   7.437   5.695   2.857
 8969TIP3    H126852   7.494   5.740   2.792
 8969TIP3    H226853   7.477   5.725   2.941
 8970TIP3   OH226854   7.984   5.838   2.839
 8970TIP3    H126855   7.989   5.797   2.751
 8970TIP3    H226856   7.972   5.758   2.896
 8971TIP3   OH226857   8.012   5.757   2.401
 8971TIP3    H126858   7.925   5.800   2.416
 8971TIP3    H226859   7.998   5.671   2.446
 8972TIP3   OH226860   6.496   7.103   2.401
 8972TIP3    H126861   6.411   7.074   2.365
 8972TIP3    H226862   6.493   7.197   2.377
 8973TIP3   OH226863   6.899   5.679   2.384
 8973TIP3    H126864   6.943   5.616   2.324
 8973TIP3    H226865   6.975   5.730   2.417
 8974TIP3   OH226866   7.403   5.871   2.487
 8974TIP3    H126867   7.469   5.828   2.543
 8974TIP3    H226868   7.422   5.965   2.510
 8975TIP3   OH226869   7.265   7.272   2.004
 8975TIP3    H126870   7.330   7.331   1.960
 8975TIP3    H226871   7.254   7.203   1.935
 8976TIP3   OH226872   7.203   5.923   3.846
 8976TIP3    H126873   7.165   5.866   3.915
 8976TIP3    H226874   7.296   5.927   3.879
 8977TIP3   OH226875   7.445   5.931   3.975
 8977TIP3    H126876   7.536   5.922   3.941
 8977TIP3    H226877   7.443   5.862   4.044
 8978TIP3   OH226878   6.574   7.122   2.039
 8978TIP3    H126879   6.587   7.143   2.132
 8978TIP3    H226880   6.659   7.077   2.016
 8979TIP3   OH226881   8.276   6.000   3.771
 8979TIP3    H126882   8.292   5.971   3.863
 8979TIP3    H226883   8.365   5.992   3.732
 8980TIP3   OH226884   0.957   6.999   4.659
 8980TIP3    H126885   0.981   7.086   4.695
 8980TIP3    H226886   0.974   7.013   4.564
 8981TIP3   OH226887   0.384   6.891   4.269
 8981TIP3    H126888   0.446   6.909   4.342
 8981TIP3    H226889   0.419   6.951   4.201
 8982TIP3   OH226890   1.027   7.218   4.829
 8982TIP3    H126891   0.941   7.259   4.807
 8982TIP3    H226892   1.033   7.239   4.923
 8983TIP3   OH226893   0.578   6.950   4.454
 8983TIP3    H126894   0.598   6.868   4.499
 8983TIP3    H226895   0.643   7.014   4.489
 8984TIP3   OH226896   0.753   6.916   4.831
 8984TIP3    H126897   0.669   6.945   4.793
 8984TIP3    H226898   0.816   6.935   4.758
 8985TIP3   OH226899   0.670   7.925   4.808
 8985TIP3    H126900   0.648   7.838   4.771
 8985TIP3    H226901   0.690   7.978   4.728
 8986TIP3   OH226902   0.879   7.556   4.655
 8986TIP3    H126903   0.793   7.603   4.661
 8986TIP3    H226904   0.905   7.579   4.563
 8987TIP3   OH226905   0.680   6.485   3.908
 8987TIP3    H126906   0.598   6.505   3.958
 8987TIP3    H226907   0.692   6.568   3.858
 8988TIP3   OH226908   0.826   7.389   5.124
 8988TIP3    H126909   0.742   7.421   5.090
 8988TIP3    H226910   0.818   7.292   5.110
 8989TIP3   OH226911   0.642   7.697   4.648
 8989TIP3    H126912   0.679   7.750   4.573
 8989TIP3    H226913   0.550   7.687   4.623
 8990TIP3   OH226914   0.714   7.110   3.807
 8990TIP3    H126915   0.647   7.069   3.747
 8990TIP3    H226916   0.708   7.202   3.772
 8991TIP3   OH226917   0.919   7.948   4.902
 8991TIP3    H126918   0.823   7.957   4.882
 8991TIP3    H226919   0.953   7.937   4.811
 8992TIP3   OH226920   0.819   7.119   5.049
 8992TIP3    H126921   0.733   7.082   5.073
 8992TIP3    H226922   0.831   7.078   4.962
 8993TIP3   OH226923   0.485   7.294   4.434
 8993TIP3    H126924   0.423   7.221   4.445
 8993TIP3    H226925   0.566   7.258   4.476
 8994TIP3   OH226926   0.486   7.382   3.473
 8994TIP3    H126927   0.434   7.337   3.404
 8994TIP3    H226928   0.462   7.474   3.460
 8995TIP3   OH226929   0.593   7.027   5.505
 8995TIP3    H126930   0.646   6.945   5.486
 8995TIP3    H226931   0.663   7.087   5.537
 8996TIP3   OH226932   0.610   7.558   3.814
 8996TIP3    H126933   0.682   7.620   3.790
 8996TIP3    H226934   0.646   7.519   3.897
 8997TIP3   OH226935   0.740   7.435   4.019
 8997TIP3    H126936   0.676   7.387   4.077
 8997TIP3    H226937   0.803   7.472   4.085
 8998TIP3   OH226938   0.786   7.833   4.462
 8998TIP3    H126939   0.839   7.774   4.405
 8998TIP3    H226940   0.766   7.908   4.403
 8999TIP3   OH226941   0.675   7.341   3.663
 8999TIP3    H126942   0.604   7.343   3.595
 8999TIP3    H226943   0.644   7.416   3.719
 9000TIP3   OH226944   0.542   7.020   3.615
 9000TIP3    H126945   0.489   7.058   3.543
 9000TIP3    H226946   0.526   6.925   3.601
 9001TIP3   OH226947   0.576   7.288   4.172
 9001TIP3    H126948   0.555   7.196   4.147
 9001TIP3    H226949   0.538   7.294   4.262
 9002TIP3   OH226950   0.828   7.708   5.024
 9002TIP3    H126951   0.907   7.653   5.012
 9002TIP3    H226952   0.846   7.784   4.966
 9003TIP3   OH226953   1.037   7.526   5.027
 9003TIP3    H126954   0.959   7.485   5.072
 9003TIP3    H226955   1.104   7.459   5.050
 9004TIP3   OH226956   0.503   6.751   3.598
 9004TIP3    H126957   0.577   6.728   3.658
 9004TIP3    H226958   0.431   6.693   3.632
 9005TIP3   OH226959   0.554   7.019   4.079
 9005TIP3    H126960   0.591   6.929   4.089
 9005TIP3    H226961   0.588   7.044   3.992
 9006TIP3   OH226962   0.709   7.183   4.562
 9006TIP3    H126963   0.793   7.208   4.517
 9006TIP3    H226964   0.722   7.229   4.647
 9007TIP3   OH226965   0.769   7.333   4.788
 9007TIP3    H126966   0.685   7.358   4.831
 9007TIP3    H226967   0.799   7.418   4.750
 9008TIP3   OH226968   1.220   6.920   5.335
 9008TIP3    H126969   1.285   6.856   5.299
 9008TIP3    H226970   1.198   6.974   5.256
 9009TIP3   OH226971   0.662   6.759   4.093
 9009TIP3    H126972   0.702   6.748   4.181
 9009TIP3    H226973   0.595   6.688   4.094
 9010TIP3   OH226974   1.091   7.064   5.134
 9010TIP3    H126975   1.006   7.102   5.162
 9010TIP3    H226976   1.059   6.985   5.085
 9011TIP3   OH226977   0.737   6.694   3.734
 9011TIP3    H126978   0.775   6.625   3.676
 9011TIP3    H226979   0.805   6.765   3.730
 9012TIP3   OH226980   0.997   6.817   5.028
 9012TIP3    H126981   0.906   6.800   4.997
 9012TIP3    H226982   1.034   6.727   5.021
 9013TIP3   OH226983   0.743   6.617   4.553
 9013TIP3    H126984   0.778   6.663   4.474
 9013TIP3    H226985   0.647   6.636   4.544
 9014TIP3   OH226986   0.819   6.717   4.316
 9014TIP3    H126987   0.891   6.665   4.274
 9014TIP3    H226988   0.853   6.808   4.298
 9015TIP3   OH226989   0.482   6.659   4.517
 9015TIP3    H126990   0.407   6.668   4.457
 9015TIP3    H226991   0.459   6.578   4.568
 9016TIP3   OH226992   0.477   6.543   4.086
 9016TIP3    H126993   0.388   6.571   4.060
 9016TIP3    H226994   0.456   6.461   4.135
 9017TIP3   OH226995   0.739   6.798   5.461
 9017TIP3    H126996   0.755   6.762   5.552
 9017TIP3    H226997   0.827   6.786   5.421
 9018TIP3   OH226998   1.939   7.694   3.726
 9018TIP3    H126999   1.905   7.780   3.694
 9018TIP3    H227000   1.867   7.637   3.694
 9019TIP3   OH227001   1.942   7.710   4.100
 9019TIP3    H127002   1.973   7.684   4.189
 9019TIP3    H227003   1.898   7.629   4.069
 9020TIP3   OH227004   1.234   7.606   4.464
 9020TIP3    H127005   1.273   7.538   4.521
 9020TIP3    H227006   1.310   7.664   4.449
 9021TIP3   OH227007   2.157   8.009   3.788
 9021TIP3    H127008   2.153   7.938   3.855
 9021TIP3    H227009   2.208   8.077   3.835
 9022TIP3   OH227010   1.279   7.940   4.292
 9022TIP3    H127011   1.234   7.866   4.247
 9022TIP3    H227012   1.349   7.962   4.227
 9023TIP3   OH227013   0.915   7.217   3.972
 9023TIP3    H127014   0.866   7.300   3.989
 9023TIP3    H227015   0.843   7.163   3.933
 9024TIP3   OH227016   0.967   7.506   4.157
 9024TIP3    H127017   1.018   7.427   4.183
 9024TIP3    H227018   1.032   7.554   4.102
 9025TIP3   OH227019   1.751   7.924   4.145
 9025TIP3    H127020   1.800   7.848   4.108
 9025TIP3    H227021   1.827   7.980   4.171
 9026TIP3   OH227022   2.748   7.257   4.146
 9026TIP3    H127023   2.779   7.339   4.188
 9026TIP3    H227024   2.772   7.273   4.053
 9027TIP3   OH227025   2.146   7.437   4.178
 9027TIP3    H127026   2.189   7.352   4.199
 9027TIP3    H227027   2.114   7.420   4.088
 9028TIP3   OH227028   1.487   7.097   4.143
 9028TIP3    H127029   1.466   7.169   4.080
 9028TIP3    H227030   1.440   7.023   4.100
 9029TIP3   OH227031   2.181   7.190   3.764
 9029TIP3    H127032   2.251   7.175   3.831
 9029TIP3    H227033   2.235   7.224   3.690
 9030TIP3   OH227034   1.118   7.297   4.254
 9030TIP3    H127035   1.202   7.277   4.298
 9030TIP3    H227036   1.128   7.243   4.172
 9031TIP3   OH227037   1.556   7.495   4.052
 9031TIP3    H127038   1.650   7.471   4.061
 9031TIP3    H227039   1.517   7.412   4.017
 9032TIP3   OH227040   2.823   7.466   4.314
 9032TIP3    H127041   2.737   7.510   4.297
 9032TIP3    H227042   2.837   7.492   4.407
 9033TIP3   OH227043   1.477   7.085   4.583
 9033TIP3    H127044   1.424   7.119   4.507
 9033TIP3    H227045   1.410   7.081   4.652
 9034TIP3   OH227046   1.827   7.894   3.578
 9034TIP3    H127047   1.766   7.892   3.503
 9034TIP3    H227048   1.835   7.989   3.596
 9035TIP3   OH227049   1.588   7.865   4.373
 9035TIP3    H127050   1.513   7.922   4.392
 9035TIP3    H227051   1.622   7.904   4.290
 9036TIP3   OH227052   2.385   7.196   3.942
 9036TIP3    H127053   2.375   7.145   4.023
 9036TIP3    H227054   2.437   7.273   3.971
 9037TIP3   OH227055   1.356   7.194   4.363
 9037TIP3    H127056   1.418   7.269   4.382
 9037TIP3    H227057   1.402   7.154   4.285
 9038TIP3   OH227058   1.409   8.083   4.485
 9038TIP3    H127059   1.380   8.076   4.392
 9038TIP3    H227060   1.323   8.070   4.528
 9039TIP3   OH227061   0.818   7.710   3.720
 9039TIP3    H127062   0.775   7.725   3.634
 9039TIP3    H227063   0.830   7.803   3.747
 9040TIP3   OH227064   2.541   7.157   4.312
 9040TIP3    H127065   2.454   7.183   4.278
 9040TIP3    H227066   2.602   7.189   4.242
 9041TIP3   OH227067   1.834   6.796   4.295
 9041TIP3    H127068   1.820   6.701   4.314
 9041TIP3    H227069   1.756   6.834   4.342
 9042TIP3   OH227070   2.187   8.024   3.507
 9042TIP3    H127071   2.151   7.944   3.465
 9042TIP3    H227072   2.194   7.998   3.601
 9043TIP3   OH227073   2.467   8.166   4.294
 9043TIP3    H127074   2.454   8.087   4.237
 9043TIP3    H227075   2.495   8.234   4.229
 9044TIP3   OH227076   1.769   7.556   3.557
 9044TIP3    H127077   1.688   7.608   3.541
 9044TIP3    H227078   1.810   7.557   3.468
 9045TIP3   OH227079   1.725   7.349   3.263
 9045TIP3    H127080   1.791   7.400   3.312
 9045TIP3    H227081   1.783   7.285   3.216
 9046TIP3   OH227082   2.672   7.808   4.138
 9046TIP3    H127083   2.587   7.857   4.144
 9046TIP3    H227084   2.700   7.833   4.048
 9047TIP3   OH227085   2.116   7.637   3.526
 9047TIP3    H127086   2.060   7.658   3.605
 9047TIP3    H227087   2.200   7.613   3.570
 9048TIP3   OH227088   2.348   7.682   4.437
 9048TIP3    H127089   2.347   7.766   4.488
 9048TIP3    H227090   2.262   7.687   4.393
 9049TIP3   OH227091   1.352   7.641   3.929
 9049TIP3    H127092   1.310   7.582   3.863
 9049TIP3    H227093   1.427   7.586   3.962
 9050TIP3   OH227094   1.485   8.006   4.137
 9050TIP3    H127095   1.442   8.010   4.049
 9050TIP3    H227096   1.580   8.005   4.115
 9051TIP3   OH227097   1.480   7.618   4.292
 9051TIP3    H127098   1.512   7.591   4.203
 9051TIP3    H227099   1.525   7.704   4.306
 9052TIP3   OH227100   1.660   8.093   4.614
 9052TIP3    H127101   1.608   8.171   4.637
 9052TIP3    H227102   1.601   8.055   4.546
 9053TIP3   OH227103   1.952   7.501   3.349
 9053TIP3    H127104   2.010   7.562   3.398
 9053TIP3    H227105   1.981   7.517   3.256
 9054TIP3   OH227106   1.371   7.720   4.717
 9054TIP3    H127107   1.382   7.801   4.769
 9054TIP3    H227108   1.276   7.700   4.736
 9055TIP3   OH227109   2.469   6.742   3.397
 9055TIP3    H127110   2.388   6.763   3.446
 9055TIP3    H227111   2.483   6.825   3.347
 9056TIP3   OH227112   1.216   7.483   3.740
 9056TIP3    H127113   1.149   7.528   3.684
 9056TIP3    H227114   1.171   7.400   3.759
 9057TIP3   OH227115   1.014   7.876   4.655
 9057TIP3    H127116   0.939   7.870   4.591
 9057TIP3    H227117   1.039   7.782   4.665
 9058TIP3   OH227118   2.602   7.643   4.614
 9058TIP3    H127119   2.518   7.653   4.566
 9058TIP3    H227120   2.619   7.548   4.604
 9059TIP3   OH227121   1.204   8.079   4.673
 9059TIP3    H127122   1.234   8.010   4.734
 9059TIP3    H227123   1.119   8.036   4.646
 9060TIP3   OH227124   1.597   6.875   4.423
 9060TIP3    H127125   1.510   6.842   4.394
 9060TIP3    H227126   1.570   6.957   4.468
 9061TIP3   OH227127   2.134   6.991   4.619
 9061TIP3    H127128   2.205   6.961   4.680
 9061TIP3    H227129   2.052   6.968   4.668
 9062TIP3   OH227130   2.369   7.419   4.531
 9062TIP3    H127131   2.320   7.416   4.617
 9062TIP3    H227132   2.346   7.508   4.498
 9063TIP3   OH227133   2.031   7.528   3.092
 9063TIP3    H127134   1.999   7.509   3.002
 9063TIP3    H227135   2.084   7.608   3.076
 9064TIP3   OH227136   1.743   6.922   3.395
 9064TIP3    H127137   1.708   6.919   3.486
 9064TIP3    H227138   1.703   6.841   3.359
 9065TIP3   OH227139   1.529   7.394   4.439
 9065TIP3    H127140   1.483   7.416   4.523
 9065TIP3    H227141   1.515   7.477   4.387
 9066TIP3   OH227142   1.412   7.278   3.956
 9066TIP3    H127143   1.319   7.252   3.974
 9066TIP3    H227144   1.424   7.237   3.867
 9067TIP3   OH227145   1.907   7.360   3.688
 9067TIP3    H127146   1.854   7.429   3.642
 9067TIP3    H227147   1.961   7.325   3.614
 9068TIP3   OH227148   2.088   7.641   4.757
 9068TIP3    H127149   2.068   7.574   4.825
 9068TIP3    H227150   2.181   7.662   4.781
 9069TIP3   OH227151   2.060   7.390   3.922
 9069TIP3    H127152   1.998   7.416   3.851
 9069TIP3    H227153   2.096   7.310   3.878
 9070TIP3   OH227154   1.361   7.419   4.660
 9070TIP3    H127155   1.343   7.500   4.711
 9070TIP3    H227156   1.302   7.354   4.699
 9071TIP3   OH227157   1.400   6.899   3.360
 9071TIP3    H127158   1.388   6.897   3.457
 9071TIP3    H227159   1.321   6.952   3.334
 9072TIP3   OH227160   0.944   6.938   4.235
 9072TIP3    H127161   1.022   6.972   4.284
 9072TIP3    H227162   0.980   6.913   4.149
 9073TIP3   OH227163   0.910   6.921   3.749
 9073TIP3    H127164   0.955   6.960   3.671
 9073TIP3    H227165   0.848   6.993   3.769
 9074TIP3   OH227166   2.070   7.635   4.344
 9074TIP3    H127167   2.104   7.563   4.285
 9074TIP3    H227168   2.039   7.580   4.420
 9075TIP3   OH227169   1.746   7.100   4.016
 9075TIP3    H127170   1.664   7.098   4.069
 9075TIP3    H227171   1.814   7.091   4.085
 9076TIP3   OH227172   1.174   7.157   4.024
 9076TIP3    H127173   1.080   7.168   3.996
 9076TIP3    H227174   1.194   7.065   3.999
 9077TIP3   OH227175   1.440   7.150   3.716
 9077TIP3    H127176   1.533   7.165   3.691
 9077TIP3    H227177   1.391   7.172   3.633
 9078TIP3   OH227178   2.231   7.177   4.222
 9078TIP3    H127179   2.197   7.189   4.314
 9078TIP3    H227180   2.165   7.114   4.187
 9079TIP3   OH227181   1.290   7.184   3.493
 9079TIP3    H127182   1.217   7.141   3.446
 9079TIP3    H227183   1.341   7.220   3.417
 9080TIP3   OH227184   1.373   8.021   4.881
 9080TIP3    H127185   1.451   8.007   4.941
 9080TIP3    H227186   1.301   7.985   4.939
 9081TIP3   OH227187   1.823   7.429   4.115
 9081TIP3    H127188   1.894   7.390   4.063
 9081TIP3    H227189   1.830   7.382   4.200
 9082TIP3   OH227190   1.346   6.912   3.998
 9082TIP3    H127191   1.307   6.836   4.047
 9082TIP3    H227192   1.386   6.869   3.922
 9083TIP3   OH227193   1.798   7.321   4.414
 9083TIP3    H127194   1.709   7.359   4.421
 9083TIP3    H227195   1.855   7.387   4.459
 9084TIP3   OH227196   1.540   7.700   3.509
 9084TIP3    H127197   1.462   7.641   3.494
 9084TIP3    H227198   1.514   7.745   3.592
 9085TIP3   OH227199   2.435   7.946   4.129
 9085TIP3    H127200   2.463   7.996   4.049
 9085TIP3    H227201   2.351   7.905   4.100
 9086TIP3   OH227202   1.993   7.026   3.363
 9086TIP3    H127203   1.897   7.004   3.374
 9086TIP3    H227204   1.999   7.119   3.391
 9087TIP3   OH227205   1.947   8.057   4.494
 9087TIP3    H127206   1.980   8.007   4.570
 9087TIP3    H227207   1.862   8.091   4.527
 9088TIP3   OH227208   2.062   7.275   3.469
 9088TIP3    H127209   2.158   7.281   3.483
 9088TIP3    H227210   2.042   7.355   3.418
 9089TIP3   OH227211   1.212   7.699   4.162
 9089TIP3    H127212   1.259   7.688   4.077
 9089TIP3    H227213   1.270   7.650   4.223
 9090TIP3   OH227214   1.643   7.883   3.334
 9090TIP3    H127215   1.609   7.956   3.391
 9090TIP3    H227216   1.607   7.807   3.385
 9091TIP3   OH227217   1.117   7.635   4.784
 9091TIP3    H127218   1.109   7.621   4.881
 9091TIP3    H227219   1.036   7.591   4.753
 9092TIP3   OH227220   1.845   7.761   4.808
 9092TIP3    H127221   1.780   7.708   4.758
 9092TIP3    H227222   1.930   7.727   4.772
 9093TIP3   OH227223   2.504   7.369   3.299
 9093TIP3    H127224   2.442   7.324   3.236
 9093TIP3    H227225   2.498   7.459   3.261
 9094TIP3   OH227226   2.724   8.205   4.384
 9094TIP3    H127227   2.627   8.217   4.373
 9094TIP3    H227228   2.749   8.191   4.289
 9095TIP3   OH227229   2.200   7.819   4.032
 9095TIP3    H127230   2.108   7.792   4.053
 9095TIP3    H227231   2.234   7.735   3.994
 9096TIP3   OH227232   0.898   7.344   3.506
 9096TIP3    H127233   0.940   7.430   3.526
 9096TIP3    H227234   0.819   7.348   3.565
 9097TIP3   OH227235   1.464   7.820   3.745
 9097TIP3    H127236   1.415   7.899   3.773
 9097TIP3    H227237   1.438   7.758   3.816
 9098TIP3   OH227238   1.993   8.018   4.224
 9098TIP3    H127239   1.982   8.030   4.321
 9098TIP3    H227240   2.076   7.970   4.219
 9099TIP3   OH227241   1.995   7.844   3.079
 9099TIP3    H127242   2.026   7.836   3.172
 9099TIP3    H227243   1.914   7.898   3.091
 9100TIP3   OH227244   1.338   7.162   4.826
 9100TIP3    H127245   1.242   7.177   4.815
 9100TIP3    H227246   1.336   7.075   4.871
 9101TIP3   OH227247   2.121   7.819   3.325
 9101TIP3    H127248   2.116   7.750   3.395
 9101TIP3    H227249   2.218   7.823   3.309
 9102TIP3   OH227250   1.321   7.845   3.152
 9102TIP3    H127251   1.354   7.754   3.138
 9102TIP3    H227252   1.327   7.855   3.247
 9103TIP3   OH227253   1.017   7.587   3.582
 9103TIP3    H127254   0.950   7.623   3.644
 9103TIP3    H227255   1.019   7.661   3.517
 9104TIP3   OH227256   2.157   7.231   4.483
 9104TIP3    H127257   2.242   7.266   4.515
 9104TIP3    H227258   2.147   7.149   4.536
 9105TIP3   OH227259   2.041   6.975   3.647
 9105TIP3    H127260   2.027   6.997   3.553
 9105TIP3    H227261   2.080   7.058   3.682
 9106TIP3   OH227262   1.726   7.160   3.747
 9106TIP3    H127263   1.790   7.232   3.731
 9106TIP3    H227264   1.731   7.151   3.844
 9107TIP3   OH227265   1.998   7.473   4.550
 9107TIP3    H127266   2.029   7.525   4.627
 9107TIP3    H227267   2.052   7.392   4.555
 9108TIP3   OH227268   1.868   6.880   3.846
 9108TIP3    H127269   1.860   6.959   3.903
 9108TIP3    H227270   1.931   6.913   3.778
 9109TIP3   OH227271   1.383   6.885   3.637
 9109TIP3    H127272   1.380   6.975   3.674
 9109TIP3    H227273   1.479   6.868   3.644
 9110TIP3   OH227274   2.635   7.377   4.533
 9110TIP3    H127275   2.537   7.377   4.539
 9110TIP3    H227276   2.646   7.326   4.451
 9111TIP3   OH227277   2.286   7.571   3.923
 9111TIP3    H127278   2.210   7.512   3.935
 9111TIP3    H227279   2.357   7.523   3.971
 9112TIP3   OH227280   1.005   7.801   3.396
 9112TIP3    H127281   1.032   7.895   3.387
 9112TIP3    H227282   1.060   7.757   3.329
 9113TIP3   OH227283   0.944   7.075   3.522
 9113TIP3    H127284   0.945   7.172   3.524
 9113TIP3    H227285   0.855   7.057   3.489
 9114TIP3   OH227286   1.333   6.795   4.396
 9114TIP3    H127287   1.302   6.761   4.309
 9114TIP3    H227288   1.322   6.717   4.453
 9115TIP3   OH227289   1.162   7.943   5.025
 9115TIP3    H127290   1.179   7.850   5.049
 9115TIP3    H227291   1.066   7.938   5.003
 9116TIP3   OH227292   1.133   7.606   3.248
 9116TIP3    H127293   1.179   7.570   3.326
 9116TIP3    H227294   1.206   7.604   3.183
 9117TIP3   OH227295   1.780   8.020   4.848
 9117TIP3    H127296   1.750   8.039   4.757
 9117TIP3    H227297   1.815   7.929   4.838
 9118TIP3   OH227298   1.598   7.785   3.055
 9118TIP3    H127299   1.613   7.802   3.149
 9118TIP3    H227300   1.623   7.691   3.047
 9119TIP3   OH227301   2.255   8.050   4.429
 9119TIP3    H127302   2.325   8.105   4.387
 9119TIP3    H227303   2.179   8.109   4.422
 9120TIP3   OH227304   1.299   7.702   5.033
 9120TIP3    H127305   1.327   7.610   5.043
 9120TIP3    H227306   1.318   7.735   5.124
 9121TIP3   OH227307   1.336   7.516   3.463
 9121TIP3    H127308   1.306   7.475   3.546
 9121TIP3    H227309   1.375   7.440   3.415
 9122TIP3   OH227310   1.616   7.584   4.712
 9122TIP3    H127311   1.535   7.637   4.703
 9122TIP3    H227312   1.666   7.610   4.631
 9123TIP3   OH227313   1.447   7.312   3.307
 9123TIP3    H127314   1.421   7.314   3.212
 9123TIP3    H227315   1.544   7.315   3.299
 9124TIP3   OH227316   2.135   7.978   4.825
 9124TIP3    H127317   2.216   7.953   4.779
 9124TIP3    H227318   2.133   7.914   4.899
 9125TIP3   OH227319   2.271   7.649   2.965
 9125TIP3    H127320   2.241   7.598   2.888
 9125TIP3    H227321   2.246   7.739   2.935
 9126TIP3   OH227322   1.728   7.161   4.647
 9126TIP3    H127323   1.769   7.207   4.571
 9126TIP3    H227324   1.642   7.135   4.609
 9127TIP3   OH227325   1.757   7.696   4.509
 9127TIP3    H127326   1.840   7.700   4.459
 9127TIP3    H227327   1.702   7.761   4.462
 9128TIP3   OH227328   2.346   7.660   4.878
 9128TIP3    H127329   2.395   7.577   4.891
 9128TIP3    H227330   2.416   7.719   4.847
 9129TIP3   OH227331   2.387   7.909   4.618
 9129TIP3    H127332   2.331   7.964   4.557
 9129TIP3    H227333   2.476   7.930   4.580
 9130TIP3   OH227334   1.871   6.920   4.697
 9130TIP3    H127335   1.818   6.999   4.676
 9130TIP3    H227336   1.805   6.848   4.685
 9131TIP3   OH227337   2.023   7.433   4.921
 9131TIP3    H127338   2.049   7.417   5.014
 9131TIP3    H227339   1.941   7.383   4.914
 9132TIP3   OH227340   2.244   7.373   4.763
 9132TIP3    H127341   2.172   7.381   4.829
 9132TIP3    H227342   2.319   7.343   4.818
 9133TIP3   OH227343   2.464   7.314   4.916
 9133TIP3    H127344   2.479   7.218   4.932
 9133TIP3    H227345   2.460   7.350   5.007
 9134TIP3   OH227346   1.512   7.248   5.052
 9134TIP3    H127347   1.486   7.151   5.080
 9134TIP3    H227348   1.546   7.271   5.150
 9135TIP3   OH227349   1.969   6.934   4.954
 9135TIP3    H127350   2.033   6.860   4.952
 9135TIP3    H227351   1.928   6.924   4.865
 9136TIP3   OH227352   2.010   7.158   5.100
 9136TIP3    H127353   2.013   7.082   5.037
 9136TIP3    H227354   1.919   7.152   5.130
 9137TIP3   OH227355   0.741   7.711   3.424
 9137TIP3    H127356   0.827   7.750   3.399
 9137TIP3    H227357   0.735   7.633   3.366
 9138TIP3   OH227358   2.615   8.336   4.659
 9138TIP3    H127359   2.540   8.318   4.720
 9138TIP3    H227360   2.661   8.408   4.704
 9139TIP3   OH227361   2.394   7.817   3.310
 9139TIP3    H127362   2.464   7.878   3.276
 9139TIP3    H227363   2.440   7.779   3.388
 9140TIP3   OH227364   2.529   7.690   3.509
 9140TIP3    H127365   2.465   7.649   3.570
 9140TIP3    H227366   2.597   7.726   3.569
 9141TIP3   OH227367   2.571   8.083   3.938
 9141TIP3    H127368   2.634   8.024   3.891
 9141TIP3    H227369   2.573   8.164   3.886
 9142TIP3   OH227370   2.466   7.603   3.150
 9142TIP3    H127371   2.395   7.608   3.081
 9142TIP3    H227372   2.436   7.677   3.208
 9143TIP3   OH227373   2.342   7.274   3.103
 9143TIP3    H127374   2.287   7.311   3.033
 9143TIP3    H227375   2.318   7.179   3.096
 9144TIP3   OH227376   2.344   7.551   3.656
 9144TIP3    H127377   2.350   7.454   3.646
 9144TIP3    H227378   2.329   7.562   3.752
 9145TIP3   OH227379   0.968   7.622   4.405
 9145TIP3    H127380   0.961   7.590   4.312
 9145TIP3    H227381   1.065   7.627   4.415
 9146TIP3   OH227382   2.631   7.973   4.513
 9146TIP3    H127383   2.704   7.908   4.501
 9146TIP3    H227384   2.657   8.045   4.452
 9147TIP3   OH227385   2.818   7.778   4.519
 9147TIP3    H127386   2.743   7.730   4.561
 9147TIP3    H227387   2.890   7.714   4.538
 9148TIP3   OH227388   2.281   7.008   3.088
 9148TIP3    H127389   2.353   6.976   3.146
 9148TIP3    H227390   2.206   6.951   3.110
 9149TIP3   OH227391   2.341   7.270   3.545
 9149TIP3    H127392   2.381   7.180   3.561
 9149TIP3    H227393   2.399   7.301   3.473
 9150TIP3   OH227394   2.499   7.439   4.043
 9150TIP3    H127395   2.585   7.464   4.001
 9150TIP3    H227396   2.514   7.476   4.132
 9151TIP3   OH227397   2.572   7.586   4.272
 9151TIP3    H127398   2.495   7.620   4.322
 9151TIP3    H227399   2.605   7.668   4.229
 9152TIP3   OH227400   1.204   7.311   5.071
 9152TIP3    H127401   1.299   7.300   5.089
 9152TIP3    H227402   1.168   7.228   5.109
 9153TIP3   OH227403   3.021   7.179   4.828
 9153TIP3    H127404   3.082   7.114   4.788
 9153TIP3    H227405   2.992   7.231   4.750
 9154TIP3   OH227406   2.448   7.019   3.584
 9154TIP3    H127407   2.496   7.002   3.668
 9154TIP3    H227408   2.387   6.943   3.583
 9155TIP3   OH227409   1.151   7.005   4.411
 9155TIP3    H127410   1.211   6.928   4.413
 9155TIP3    H227411   1.214   7.077   4.395
 9156TIP3   OH227412   0.956   7.276   4.484
 9156TIP3    H127413   0.998   7.269   4.396
 9156TIP3    H227414   0.968   7.369   4.504
 9157TIP3   OH227415   2.890   7.315   4.630
 9157TIP3    H127416   2.805   7.357   4.650
 9157TIP3    H227417   2.859   7.240   4.575
 9158TIP3   OH227418   2.525   6.950   3.219
 9158TIP3    H127419   2.564   6.879   3.165
 9158TIP3    H227420   2.594   7.019   3.215
 9159TIP3   OH227421   0.935   6.783   3.981
 9159TIP3    H127422   0.842   6.774   4.008
 9159TIP3    H227423   0.927   6.841   3.902
 9160TIP3   OH227424   1.160   6.877   4.800
 9160TIP3    H127425   1.103   6.857   4.876
 9160TIP3    H227426   1.092   6.904   4.734
 9161TIP3   OH227427   2.792   7.076   4.514
 9161TIP3    H127428   2.701   7.062   4.481
 9161TIP3    H227429   2.828   6.984   4.506
 9162TIP3   OH227430   1.995   6.993   4.136
 9162TIP3    H127431   1.954   6.921   4.187
 9162TIP3    H227432   2.069   6.947   4.091
 9163TIP3   OH227433   2.515   6.877   4.038
 9163TIP3    H127434   2.551   6.927   3.962
 9163TIP3    H227435   2.420   6.893   4.030
 9164TIP3   OH227436   2.612   6.974   3.801
 9164TIP3    H127437   2.686   6.921   3.764
 9164TIP3    H227438   2.647   7.065   3.787
 9165TIP3   OH227439   1.244   6.702   4.150
 9165TIP3    H127440   1.151   6.670   4.152
 9165TIP3    H227441   1.291   6.616   4.145
 9166TIP3   OH227442   1.037   6.575   3.802
 9166TIP3    H127443   1.062   6.631   3.727
 9166TIP3    H227444   1.006   6.641   3.867
 9167TIP3   OH227445   1.691   6.733   4.030
 9167TIP3    H127446   1.748   6.781   3.967
 9167TIP3    H227447   1.719   6.772   4.115
 9168TIP3   OH227448   2.232   6.882   4.013
 9168TIP3    H127449   2.235   6.839   3.926
 9168TIP3    H227450   2.221   6.804   4.072
 9169TIP3   OH227451   2.265   6.807   3.577
 9169TIP3    H127452   2.179   6.849   3.594
 9169TIP3    H227453   2.252   6.720   3.622
 9170TIP3   OH227454   1.151   6.731   3.559
 9170TIP3    H127455   1.198   6.668   3.502
 9170TIP3    H227456   1.225   6.784   3.595
 9171TIP3   OH227457   1.659   6.910   3.658
 9171TIP3    H127458   1.718   6.861   3.719
 9171TIP3    H227459   1.682   7.002   3.684
 9172TIP3   OH227460   1.454   6.980   5.055
 9172TIP3    H127461   1.414   6.905   5.102
 9172TIP3    H227462   1.547   6.968   5.081
 9173TIP3   OH227463   1.715   6.973   5.153
 9173TIP3    H127464   1.794   6.926   5.120
 9173TIP3    H227465   1.694   6.915   5.229
 9174TIP3   OH227466   2.529   7.045   4.947
 9174TIP3    H127467   2.546   7.012   5.038
 9174TIP3    H227468   2.618   7.038   4.907
 9175TIP3   OH227469   3.735   7.951   3.212
 9175TIP3    H127470   3.698   8.037   3.183
 9175TIP3    H227471   3.660   7.893   3.187
 9176TIP3   OH227472   3.734   7.966   3.590
 9176TIP3    H127473   3.770   7.943   3.678
 9176TIP3    H227474   3.692   7.882   3.564
 9177TIP3   OH227475   3.028   7.859   3.952
 9177TIP3    H127476   3.058   7.791   4.015
 9177TIP3    H227477   3.104   7.919   3.953
 9178TIP3   OH227478   3.951   8.268   3.278
 9178TIP3    H127479   3.949   8.196   3.343
 9178TIP3    H227480   4.007   8.333   3.322
 9179TIP3   OH227481   3.062   8.209   3.758
 9179TIP3    H127482   3.030   8.123   3.725
 9179TIP3    H227483   3.144   8.222   3.706
 9180TIP3   OH227484   2.711   7.473   3.454
 9180TIP3    H127485   2.665   7.555   3.475
 9180TIP3    H227486   2.638   7.421   3.415
 9181TIP3   OH227487   2.763   7.762   3.638
 9181TIP3    H127488   2.813   7.683   3.669
 9181TIP3    H227489   2.835   7.817   3.602
 9182TIP3   OH227490   3.548   8.183   3.627
 9182TIP3    H127491   3.597   8.105   3.596
 9182TIP3    H227492   3.624   8.238   3.655
 9183TIP3   OH227493   4.544   7.513   3.632
 9183TIP3    H127494   4.575   7.596   3.675
 9183TIP3    H227495   4.570   7.529   3.540
 9184TIP3   OH227496   3.944   7.695   3.664
 9184TIP3    H127497   3.986   7.610   3.687
 9184TIP3    H227498   3.911   7.676   3.574
 9185TIP3   OH227499   3.284   7.353   3.630
 9185TIP3    H127500   3.262   7.426   3.568
 9185TIP3    H227501   3.235   7.279   3.588
 9186TIP3   OH227502   3.978   7.447   3.250
 9186TIP3    H127503   4.047   7.431   3.319
 9186TIP3    H227504   4.035   7.480   3.178
 9187TIP3   OH227505   2.914   7.556   3.738
 9187TIP3    H127506   2.996   7.536   3.787
 9187TIP3    H227507   2.928   7.500   3.659
 9188TIP3   OH227508   3.354   7.753   3.533
 9188TIP3    H127509   3.448   7.729   3.547
 9188TIP3    H227510   3.315   7.668   3.504
 9189TIP3   OH227511   4.619   7.722   3.801
 9189TIP3    H127512   4.533   7.766   3.784
 9189TIP3    H227513   4.635   7.749   3.893
 9190TIP3   OH227514   3.278   7.338   4.066
 9190TIP3    H127515   3.217   7.374   3.999
 9190TIP3    H227516   3.225   7.353   4.148
 9191TIP3   OH227517   3.614   8.153   3.070
 9191TIP3    H127518   3.567   8.158   2.986
 9191TIP3    H227519   3.643   8.245   3.085
 9192TIP3   OH227520   3.381   8.120   3.858
 9192TIP3    H127521   3.314   8.183   3.889
 9192TIP3    H227522   3.413   8.165   3.777
 9193TIP3   OH227523   4.180   7.452   3.429
 9193TIP3    H127524   4.170   7.404   3.512
 9193TIP3    H227525   4.234   7.529   3.457
 9194TIP3   OH227526   3.149   7.453   3.849
 9194TIP3    H127527   3.211   7.525   3.873
 9194TIP3    H227528   3.200   7.411   3.775
 9195TIP3   OH227529   3.209   8.331   3.967
 9195TIP3    H127530   3.164   8.322   3.881
 9195TIP3    H227531   3.130   8.328   4.026
 9196TIP3   OH227532   2.603   7.961   3.202
 9196TIP3    H127533   2.568   7.976   3.111
 9196TIP3    H227534   2.618   8.053   3.228
 9197TIP3   OH227535   4.338   7.414   3.798
 9197TIP3    H127536   4.251   7.441   3.765
 9197TIP3    H227537   4.399   7.446   3.728
 9198TIP3   OH227538   3.628   7.052   3.780
 9198TIP3    H127539   3.615   6.958   3.802
 9198TIP3    H227540   3.552   7.091   3.828
 9199TIP3   OH227541   3.983   8.283   2.996
 9199TIP3    H127542   3.953   8.201   2.950
 9199TIP3    H227543   3.992   8.254   3.088
 9200TIP3   OH227544   4.265   8.421   3.781
 9200TIP3    H127545   4.252   8.343   3.724
 9200TIP3    H227546   4.293   8.489   3.717
 9201TIP3   OH227547   3.562   7.810   3.042
 9201TIP3    H127548   3.483   7.866   3.026
 9201TIP3    H227549   3.609   7.817   2.957
 9202TIP3   OH227550   3.534   7.594   2.761
 9202TIP3    H127551   3.597   7.650   2.811
 9202TIP3    H227552   3.597   7.542   2.706
 9203TIP3   OH227553   4.468   8.063   3.625
 9203TIP3    H127554   4.383   8.113   3.630
 9203TIP3    H227555   4.497   8.089   3.534
 9204TIP3   OH227556   3.912   7.890   3.012
 9204TIP3    H127557   3.857   7.912   3.091
 9204TIP3    H227558   3.997   7.867   3.055
 9205TIP3   OH227559   4.144   7.939   3.924
 9205TIP3    H127560   4.143   8.023   3.974
 9205TIP3    H227561   4.057   7.944   3.880
 9206TIP3   OH227562   3.149   7.894   3.415
 9206TIP3    H127563   3.113   7.833   3.348
 9206TIP3    H227564   3.226   7.844   3.451
 9207TIP3   OH227565   3.283   8.262   3.620
 9207TIP3    H127566   3.244   8.263   3.531
 9207TIP3    H227567   3.379   8.259   3.602
 9208TIP3   OH227568   3.274   7.875   3.776
 9208TIP3    H127569   3.311   7.849   3.689
 9208TIP3    H227570   3.320   7.960   3.794
 9209TIP3   OH227571   3.463   8.332   4.098
 9209TIP3    H127572   3.421   8.417   4.120
 9209TIP3    H227573   3.391   8.292   4.045
 9210TIP3   OH227574   3.746   7.759   2.836
 9210TIP3    H127575   3.807   7.819   2.885
 9210TIP3    H227576   3.775   7.776   2.743
 9211TIP3   OH227577   3.172   7.982   4.204
 9211TIP3    H127578   3.178   8.069   4.248
 9211TIP3    H227579   3.079   7.959   4.222
 9212TIP3   OH227580   4.266   6.999   2.883
 9212TIP3    H127581   4.184   7.020   2.933
 9212TIP3    H227582   4.280   7.082   2.833
 9213TIP3   OH227583   3.018   7.733   3.209
 9213TIP3    H127584   2.944   7.781   3.165
 9213TIP3    H227585   2.971   7.663   3.256
 9214TIP3   OH227586   2.808   8.126   4.137
 9214TIP3    H127587   2.736   8.106   4.074
 9214TIP3    H227588   2.840   8.037   4.162
 9215TIP3   OH227589   4.397   7.900   4.101
 9215TIP3    H127590   4.313   7.908   4.052
 9215TIP3    H227591   4.414   7.804   4.092
 9216TIP3   OH227592   2.994   8.331   4.142
 9216TIP3    H127593   3.049   8.290   4.212
 9216TIP3    H227594   2.923   8.263   4.131
 9217TIP3   OH227595   3.392   7.133   3.911
 9217TIP3    H127596   3.304   7.101   3.882
 9217TIP3    H227597   3.365   7.211   3.962
 9218TIP3   OH227598   3.929   7.247   4.106
 9218TIP3    H127599   3.999   7.218   4.168
 9218TIP3    H227600   3.847   7.226   4.154
 9219TIP3   OH227601   4.163   7.676   4.023
 9219TIP3    H127602   4.113   7.673   4.108
 9219TIP3    H227603   4.141   7.764   3.988
 9220TIP3   OH227604   3.825   7.785   2.580
 9220TIP3    H127605   3.794   7.767   2.489
 9220TIP3    H227606   3.889   7.857   2.562
 9221TIP3   OH227607   3.325   7.652   3.927
 9221TIP3    H127608   3.275   7.670   4.009
 9221TIP3    H227609   3.307   7.734   3.875
 9222TIP3   OH227610   3.206   7.536   3.445
 9222TIP3    H127611   3.114   7.507   3.467
 9222TIP3    H227612   3.218   7.491   3.359
 9223TIP3   OH227613   3.705   7.616   3.171
 9223TIP3    H127614   3.651   7.685   3.126
 9223TIP3    H227615   3.762   7.584   3.098
 9224TIP3   OH227616   3.878   7.893   4.253
 9224TIP3    H127617   3.854   7.821   4.317
 9224TIP3    H227618   3.971   7.907   4.277
 9225TIP3   OH227619   3.857   7.645   3.408
 9225TIP3    H127620   3.795   7.672   3.338
 9225TIP3    H227621   3.894   7.565   3.364
 9226TIP3   OH227622   3.146   7.675   4.136
 9226TIP3    H127623   3.172   7.737   4.205
 9226TIP3    H227624   3.133   7.592   4.188
 9227TIP3   OH227625   2.737   7.198   3.717
 9227TIP3    H127626   2.813   7.228   3.772
 9227TIP3    H227627   2.779   7.163   3.637
 9228TIP3   OH227628   2.703   7.178   3.235
 9228TIP3    H127629   2.752   7.216   3.159
 9228TIP3    H227630   2.642   7.252   3.255
 9229TIP3   OH227631   3.865   7.893   3.829
 9229TIP3    H127632   3.900   7.821   3.770
 9229TIP3    H227633   3.836   7.839   3.906
 9230TIP3   OH227634   3.539   7.362   3.501
 9230TIP3    H127635   3.460   7.356   3.558
 9230TIP3    H227636   3.611   7.347   3.565
 9231TIP3   OH227637   2.971   7.413   3.508
 9231TIP3    H127638   2.876   7.420   3.482
 9231TIP3    H227639   2.992   7.319   3.491
 9232TIP3   OH227640   3.234   7.407   3.207
 9232TIP3    H127641   3.331   7.419   3.197
 9232TIP3    H227642   3.197   7.439   3.123
 9233TIP3   OH227643   4.028   7.434   3.707
 9233TIP3    H127644   3.997   7.446   3.799
 9233TIP3    H227645   3.962   7.371   3.672
 9234TIP3   OH227646   3.094   7.432   2.964
 9234TIP3    H127647   3.010   7.386   2.986
 9234TIP3    H227648   3.064   7.477   2.882
 9235TIP3   OH227649   3.161   8.230   4.344
 9235TIP3    H127650   3.239   8.258   4.397
 9235TIP3    H227651   3.095   8.217   4.416
 9236TIP3   OH227652   3.617   7.688   3.603
 9236TIP3    H127653   3.690   7.644   3.557
 9236TIP3    H227654   3.619   7.643   3.690
 9237TIP3   OH227655   3.138   7.169   3.483
 9237TIP3    H127656   3.100   7.095   3.535
 9237TIP3    H227657   3.193   7.121   3.420
 9238TIP3   OH227658   3.595   7.589   3.883
 9238TIP3    H127659   3.504   7.621   3.903
 9238TIP3    H227660   3.651   7.646   3.938
 9239TIP3   OH227661   3.334   7.957   2.994
 9239TIP3    H127662   3.256   7.899   2.980
 9239TIP3    H227663   3.309   8.004   3.077
 9240TIP3   OH227664   4.231   8.203   3.615
 9240TIP3    H127665   4.259   8.253   3.535
 9240TIP3    H227666   4.147   8.162   3.586
 9241TIP3   OH227667   3.783   7.287   2.853
 9241TIP3    H127668   3.691   7.300   2.875
 9241TIP3    H227669   3.821   7.376   2.871
 9242TIP3   OH227670   3.740   8.315   3.982
 9242TIP3    H127671   3.775   8.260   4.054
 9242TIP3    H227672   3.653   8.341   4.018
 9243TIP3   OH227673   3.866   7.530   2.947
 9243TIP3    H127674   3.961   7.539   2.969
 9243TIP3    H227675   3.848   7.613   2.899
 9244TIP3   OH227676   3.006   7.950   3.649
 9244TIP3    H127677   3.059   7.941   3.567
 9244TIP3    H227678   3.063   7.908   3.715
 9245TIP3   OH227679   3.441   8.144   2.826
 9245TIP3    H127680   3.401   8.216   2.881
 9245TIP3    H227681   3.407   8.067   2.875
 9246TIP3   OH227682   2.912   7.905   4.275
 9246TIP3    H127683   2.924   7.889   4.371
 9246TIP3    H227684   2.839   7.843   4.256
 9247TIP3   OH227685   3.637   8.021   4.299
 9247TIP3    H127686   3.573   7.967   4.250
 9247TIP3    H227687   3.723   7.984   4.266
 9248TIP3   OH227688   4.297   7.626   2.789
 9248TIP3    H127689   4.236   7.582   2.725
 9248TIP3    H227690   4.295   7.716   2.748
 9249TIP3   OH227691   4.521   8.466   3.869
 9249TIP3    H127692   4.424   8.474   3.861
 9249TIP3    H227693   4.545   8.448   3.775
 9250TIP3   OH227694   3.995   8.076   3.517
 9250TIP3    H127695   3.904   8.049   3.539
 9250TIP3    H227696   4.031   7.992   3.481
 9251TIP3   OH227697   2.693   7.601   2.995
 9251TIP3    H127698   2.733   7.689   3.012
 9251TIP3    H227699   2.613   7.607   3.051
 9252TIP3   OH227700   3.257   8.076   3.231
 9252TIP3    H127701   3.217   8.156   3.269
 9252TIP3    H227702   3.232   8.012   3.300
 9253TIP3   OH227703   3.788   8.276   3.712
 9253TIP3    H127704   3.776   8.287   3.809
 9253TIP3    H227705   3.872   8.228   3.708
 9254TIP3   OH227706   3.791   8.101   2.568
 9254TIP3    H127707   3.824   8.091   2.660
 9254TIP3    H227708   3.712   8.157   2.581
 9255TIP3   OH227709   3.115   7.420   4.279
 9255TIP3    H127710   3.018   7.421   4.292
 9255TIP3    H227711   3.143   7.363   4.353
 9256TIP3   OH227712   3.917   8.077   2.815
 9256TIP3    H127713   3.914   8.006   2.883
 9256TIP3    H227714   4.013   8.080   2.796
 9257TIP3   OH227715   3.106   8.098   2.645
 9257TIP3    H127716   3.152   8.014   2.622
 9257TIP3    H227717   3.142   8.119   2.731
 9258TIP3   OH227718   2.811   7.845   3.070
 9258TIP3    H127719   2.741   7.879   3.129
 9258TIP3    H227720   2.814   7.918   3.004
 9259TIP3   OH227721   3.955   7.483   3.967
 9259TIP3    H127722   4.037   7.522   4.004
 9259TIP3    H227723   3.943   7.402   4.021
 9260TIP3   OH227724   3.835   7.237   3.137
 9260TIP3    H127725   3.832   7.260   3.043
 9260TIP3    H227726   3.879   7.316   3.176
 9261TIP3   OH227727   3.514   7.424   3.234
 9261TIP3    H127728   3.584   7.491   3.219
 9261TIP3    H227729   3.524   7.408   3.331
 9262TIP3   OH227730   3.794   7.731   4.037
 9262TIP3    H127731   3.819   7.782   4.117
 9262TIP3    H227732   3.846   7.650   4.047
 9263TIP3   OH227733   3.663   7.137   3.331
 9263TIP3    H127734   3.667   7.210   3.396
 9263TIP3    H227735   3.725   7.171   3.263
 9264TIP3   OH227736   3.173   7.151   3.106
 9264TIP3    H127737   3.177   7.225   3.168
 9264TIP3    H227738   3.266   7.120   3.114
 9265TIP3   OH227739   4.430   7.634   4.021
 9265TIP3    H127740   4.332   7.633   4.028
 9265TIP3    H227741   4.441   7.583   3.939
 9266TIP3   OH227742   4.083   7.829   3.411
 9266TIP3    H127743   4.007   7.768   3.424
 9266TIP3    H227744   4.155   7.782   3.458
 9267TIP3   OH227745   2.803   8.059   2.884
 9267TIP3    H127746   2.826   8.153   2.873
 9267TIP3    H227747   2.856   8.016   2.814
 9268TIP3   OH227748   2.752   7.336   3.010
 9268TIP3    H127749   2.736   7.433   3.012
 9268TIP3    H227750   2.670   7.304   2.971
 9269TIP3   OH227751   3.128   7.051   3.883
 9269TIP3    H127752   3.098   7.015   3.797
 9269TIP3    H227753   3.118   6.974   3.942
 9270TIP3   OH227754   2.956   8.199   4.522
 9270TIP3    H127755   2.977   8.104   4.531
 9270TIP3    H227756   2.866   8.195   4.483
 9271TIP3   OH227757   2.926   7.860   2.734
 9271TIP3    H127758   2.977   7.832   2.812
 9271TIP3    H227759   2.998   7.866   2.668
 9272TIP3   OH227760   3.580   8.285   4.340
 9272TIP3    H127761   3.546   8.297   4.249
 9272TIP3    H227762   3.615   8.194   4.334
 9273TIP3   OH227763   3.377   8.036   2.552
 9273TIP3    H127764   3.418   8.059   2.637
 9273TIP3    H227765   3.409   7.946   2.537
 9274TIP3   OH227766   4.052   8.304   3.916
 9274TIP3    H127767   4.121   8.360   3.874
 9274TIP3    H227768   3.975   8.362   3.910
 9275TIP3   OH227769   3.081   7.950   4.521
 9275TIP3    H127770   3.156   7.895   4.499
 9275TIP3    H227771   3.107   7.984   4.610
 9276TIP3   OH227772   3.129   7.765   2.956
 9276TIP3    H127773   3.097   7.752   3.048
 9276TIP3    H227774   3.166   7.678   2.935
 9277TIP3   OH227775   3.410   7.839   4.180
 9277TIP3    H127776   3.331   7.897   4.181
 9277TIP3    H227777   3.460   7.875   4.104
 9278TIP3   OH227778   3.286   7.477   2.766
 9278TIP3    H127779   3.248   7.517   2.682
 9278TIP3    H227780   3.372   7.528   2.767
 9279TIP3   OH227781   3.931   8.228   4.312
 9279TIP3    H127782   4.012   8.202   4.266
 9279TIP3    H227783   3.928   8.165   4.387
 9280TIP3   OH227784   4.059   7.905   2.455
 9280TIP3    H127785   4.036   7.854   2.375
 9280TIP3    H227786   4.039   7.996   2.424
 9281TIP3   OH227787   3.533   7.629   4.305
 9281TIP3    H127788   3.533   7.549   4.248
 9281TIP3    H227789   3.488   7.695   4.248
 9282TIP3   OH227790   3.535   7.417   4.114
 9282TIP3    H127791   3.563   7.453   4.028
 9282TIP3    H227792   3.442   7.392   4.096
 9283TIP3   OH227793   3.556   7.953   3.988
 9283TIP3    H127794   3.640   7.958   3.939
 9283TIP3    H227795   3.501   8.019   3.941
 9284TIP3   OH227796   4.142   7.913   4.365
 9284TIP3    H127797   4.188   7.829   4.380
 9284TIP3    H227798   4.213   7.969   4.330
 9285TIP3   OH227799   4.185   8.167   4.107
 9285TIP3    H127800   4.129   8.221   4.046
 9285TIP3    H227801   4.273   8.187   4.068
 9286TIP3   OH227802   3.411   7.734   4.539
 9286TIP3    H127803   3.344   7.665   4.555
 9286TIP3    H227804   3.445   7.708   4.451
 9287TIP3   OH227805   3.667   7.176   4.183
 9287TIP3    H127806   3.616   7.257   4.161
 9287TIP3    H227807   3.599   7.106   4.173
 9288TIP3   OH227808   3.792   7.679   4.399
 9288TIP3    H127809   3.778   7.662   4.494
 9288TIP3    H227810   3.703   7.655   4.366
 9289TIP3   OH227811   4.032   7.631   4.254
 9289TIP3    H127812   3.957   7.630   4.317
 9289TIP3    H227813   4.107   7.600   4.309
 9290TIP3   OH227814   4.261   7.572   4.402
 9290TIP3    H127815   4.275   7.476   4.417
 9290TIP3    H227816   4.257   7.607   4.493
 9291TIP3   OH227817   3.251   7.515   4.594
 9291TIP3    H127818   3.253   7.422   4.561
 9291TIP3    H227819   3.289   7.503   4.683
 9292TIP3   OH227820   3.761   7.187   4.441
 9292TIP3    H127821   3.827   7.115   4.437
 9292TIP3    H227822   3.721   7.181   4.352
 9293TIP3   OH227823   3.829   7.402   4.598
 9293TIP3    H127824   3.808   7.329   4.535
 9293TIP3    H227825   3.749   7.458   4.592
 9294TIP3   OH227826   2.540   7.962   2.927
 9294TIP3    H127827   2.619   8.007   2.891
 9294TIP3    H227828   2.525   7.890   2.863
 9295TIP3   OH227829   4.400   8.581   4.140
 9295TIP3    H127830   4.328   8.576   4.207
 9295TIP3    H227831   4.444   8.663   4.164
 9296TIP3   OH227832   4.189   8.075   2.796
 9296TIP3    H127833   4.259   8.134   2.762
 9296TIP3    H227834   4.236   8.037   2.874
 9297TIP3   OH227835   4.325   7.948   2.995
 9297TIP3    H127836   4.262   7.907   3.059
 9297TIP3    H227837   4.395   7.983   3.053
 9298TIP3   OH227838   4.364   8.338   3.420
 9298TIP3    H127839   4.430   8.279   3.377
 9298TIP3    H227840   4.373   8.420   3.370
 9299TIP3   OH227841   4.261   7.859   2.638
 9299TIP3    H127842   4.190   7.865   2.569
 9299TIP3    H227843   4.233   7.934   2.695
 9300TIP3   OH227844   4.131   7.533   2.595
 9300TIP3    H127845   4.089   7.568   2.516
 9300TIP3    H227846   4.109   7.438   2.588
 9301TIP3   OH227847   4.138   7.808   3.143
 9301TIP3    H127848   4.150   7.712   3.135
 9301TIP3    H227849   4.124   7.819   3.240
 9302TIP3   OH227850   2.763   7.887   3.888
 9302TIP3    H127851   2.760   7.851   3.798
 9302TIP3    H227852   2.861   7.886   3.904
 9303TIP3   OH227853   4.429   8.231   3.999
 9303TIP3    H127854   4.501   8.165   3.988
 9303TIP3    H227855   4.455   8.302   3.937
 9304TIP3   OH227856   4.613   8.034   4.008
 9304TIP3    H127857   4.538   7.985   4.048
 9304TIP3    H227858   4.686   7.971   4.026
 9305TIP3   OH227859   4.076   7.267   2.581
 9305TIP3    H127860   4.154   7.236   2.632
 9305TIP3    H227861   4.009   7.200   2.600
 9306TIP3   OH227862   4.137   7.526   3.030
 9306TIP3    H127863   4.177   7.437   3.046
 9306TIP3    H227864   4.196   7.558   2.960
 9307TIP3   OH227865   4.295   7.697   3.529
 9307TIP3    H127866   4.381   7.721   3.487
 9307TIP3    H227867   4.311   7.733   3.618
 9308TIP3   OH227868   4.367   7.842   3.759
 9308TIP3    H127869   4.291   7.876   3.809
 9308TIP3    H227870   4.401   7.923   3.715
 9309TIP3   OH227871   2.985   7.568   4.563
 9309TIP3    H127872   3.083   7.561   4.567
 9309TIP3    H227873   2.960   7.481   4.600
 9310TIP3   OH227874   4.817   7.436   4.315
 9310TIP3    H127875   4.878   7.371   4.275
 9310TIP3    H227876   4.788   7.488   4.237
 9311TIP3   OH227877   4.242   7.276   3.072
 9311TIP3    H127878   4.292   7.260   3.155
 9311TIP3    H227879   4.183   7.198   3.072
 9312TIP3   OH227880   2.944   7.261   3.891
 9312TIP3    H127881   3.005   7.184   3.901
 9312TIP3    H227882   3.008   7.334   3.884
 9313TIP3   OH227883   2.744   7.534   3.963
 9313TIP3    H127884   2.795   7.530   3.879
 9313TIP3    H227885   2.776   7.616   4.002
 9314TIP3   OH227886   4.686   7.571   4.117
 9314TIP3    H127887   4.601   7.613   4.137
 9314TIP3    H227888   4.656   7.496   4.062
 9315TIP3   OH227889   4.321   7.208   2.704
 9315TIP3    H127890   4.362   7.137   2.651
 9315TIP3    H227891   4.390   7.277   2.703
 9316TIP3   OH227892   2.732   7.040   3.466
 9316TIP3    H127893   2.639   7.031   3.495
 9316TIP3    H227894   2.723   7.097   3.387
 9317TIP3   OH227895   2.952   7.121   4.281
 9317TIP3    H127896   2.900   7.112   4.362
 9317TIP3    H227897   2.884   7.155   4.219
 9318TIP3   OH227898   4.588   7.332   4.001
 9318TIP3    H127899   4.497   7.318   3.968
 9318TIP3    H227900   4.624   7.241   3.993
 9319TIP3   OH227901   3.784   7.245   3.613
 9319TIP3    H127902   3.747   7.176   3.670
 9319TIP3    H227903   3.864   7.202   3.576
 9320TIP3   OH227904   4.311   7.133   3.524
 9320TIP3    H127905   4.348   7.183   3.448
 9320TIP3    H227906   4.216   7.150   3.516
 9321TIP3   OH227907   4.408   7.230   3.287
 9321TIP3    H127908   4.482   7.177   3.251
 9321TIP3    H227909   4.444   7.321   3.273
 9322TIP3   OH227910   3.040   6.958   3.634
 9322TIP3    H127911   2.947   6.924   3.639
 9322TIP3    H227912   3.088   6.872   3.632
 9323TIP3   OH227913   2.826   6.831   3.288
 9323TIP3    H127914   2.857   6.887   3.214
 9323TIP3    H227915   2.801   6.898   3.355
 9324TIP3   OH227916   3.483   6.994   3.517
 9324TIP3    H127917   3.541   7.039   3.454
 9324TIP3    H227918   3.516   7.027   3.602
 9325TIP3   OH227919   4.027   7.138   3.499
 9325TIP3    H127920   4.034   7.092   3.414
 9325TIP3    H227921   4.017   7.061   3.560
 9326TIP3   OH227922   4.061   7.062   3.065
 9326TIP3    H127923   3.973   7.099   3.083
 9326TIP3    H227924   4.052   6.975   3.110
 9327TIP3   OH227925   2.949   6.990   3.043
 9327TIP3    H127926   2.995   6.921   2.992
 9327TIP3    H227927   3.025   7.043   3.075
 9328TIP3   OH227928   3.445   7.175   3.138
 9328TIP3    H127929   3.504   7.112   3.183
 9328TIP3    H227930   3.481   7.259   3.172
 9329TIP3   OH227931   3.248   7.242   4.529
 9329TIP3    H127932   3.212   7.169   4.584
 9329TIP3    H227933   3.342   7.240   4.557
 9330TIP3   OH227934   3.499   7.238   4.646
 9330TIP3    H127935   3.584   7.210   4.608
 9330TIP3    H227936   3.485   7.168   4.714
 9331TIP3   OH227937   4.325   7.302   4.433
 9331TIP3    H127938   4.342   7.270   4.524
 9331TIP3    H227939   4.414   7.295   4.393
 9332TIP3   OH227940   5.531   8.207   2.698
 9332TIP3    H127941   5.493   8.294   2.672
 9332TIP3    H227942   5.458   8.150   2.667
 9333TIP3   OH227943   5.530   8.223   3.076
 9333TIP3    H127944   5.565   8.201   3.165
 9333TIP3    H227945   5.488   8.139   3.050
 9334TIP3   OH227946   4.822   8.117   3.442
 9334TIP3    H127947   4.854   8.048   3.504
 9334TIP3    H227948   4.901   8.173   3.434
 9335TIP3   OH227949   5.747   8.524   2.764
 9335TIP3    H127950   5.744   8.452   2.830
 9335TIP3    H227951   5.803   8.589   2.809
 9336TIP3   OH227952   4.860   8.463   3.249
 9336TIP3    H127953   4.826   8.380   3.211
 9336TIP3    H227954   4.940   8.478   3.194
 9337TIP3   OH227955   4.506   7.726   2.942
 9337TIP3    H127956   4.462   7.811   2.962
 9337TIP3    H227957   4.432   7.678   2.900
 9338TIP3   OH227958   4.559   8.018   3.123
 9338TIP3    H127959   4.609   7.939   3.155
 9338TIP3    H227960   4.631   8.073   3.088
 9339TIP3   OH227961   5.343   8.439   3.115
 9339TIP3    H127962   5.392   8.362   3.083
 9339TIP3    H227963   5.420   8.494   3.143
 9340TIP3   OH227964   6.338   7.771   3.119
 9340TIP3    H127965   6.370   7.852   3.162
 9340TIP3    H227966   6.367   7.785   3.027
 9341TIP3   OH227967   5.738   7.952   3.151
 9341TIP3    H127968   5.781   7.867   3.174
 9341TIP3    H227969   5.707   7.932   3.061
 9342TIP3   OH227970   5.080   7.611   3.117
 9342TIP3    H127971   5.059   7.683   3.054
 9342TIP3    H227972   5.030   7.537   3.074
 9343TIP3   OH227973   5.774   7.700   2.737
 9343TIP3    H127974   5.843   7.687   2.806
 9343TIP3    H227975   5.828   7.737   2.665
 9344TIP3   OH227976   4.710   7.812   3.226
 9344TIP3    H127977   4.793   7.794   3.274
 9344TIP3    H227978   4.725   7.758   3.146
 9345TIP3   OH227979   5.149   8.009   3.023
 9345TIP3    H127980   5.243   7.986   3.034
 9345TIP3    H227981   5.111   7.925   2.990
 9346TIP3   OH227982   6.414   7.978   3.289
 9346TIP3    H127983   6.327   8.022   3.274
 9346TIP3    H227984   6.433   8.006   3.380
 9347TIP3   OH227985   5.074   7.594   3.553
 9347TIP3    H127986   5.013   7.631   3.486
 9347TIP3    H227987   5.021   7.610   3.634
 9348TIP3   OH227988   5.410   8.410   2.559
 9348TIP3    H127989   5.364   8.413   2.473
 9348TIP3    H227990   5.439   8.503   2.570
 9349TIP3   OH227991   5.178   8.375   3.345
 9349TIP3    H127992   5.112   8.440   3.375
 9349TIP3    H227993   5.212   8.420   3.264
 9350TIP3   OH227994   5.976   7.709   2.917
 9350TIP3    H127995   5.963   7.666   3.002
 9350TIP3    H227996   6.030   7.786   2.942
 9351TIP3   OH227997   4.945   7.709   3.336
 9351TIP3    H127998   5.007   7.782   3.360
 9351TIP3    H227999   4.995   7.669   3.261
 9352TIP3   OH228000   5.004   8.590   3.455
 9352TIP3    H128001   4.961   8.579   3.367
 9352TIP3    H228002   4.924   8.585   3.512
 9353TIP3   OH228003   4.397   8.218   2.688
 9353TIP3    H128004   4.365   8.233   2.596
 9353TIP3    H228005   4.414   8.309   2.714
 9354TIP3   OH228006   6.134   7.667   3.284
 9354TIP3    H128007   6.048   7.699   3.252
 9354TIP3    H228008   6.196   7.702   3.216
 9355TIP3   OH228009   5.424   7.309   3.267
 9355TIP3    H128010   5.411   7.215   3.289
 9355TIP3    H228011   5.348   7.349   3.315
 9356TIP3   OH228012   5.778   8.540   2.482
 9356TIP3    H128013   5.749   8.459   2.436
 9356TIP3    H228014   5.787   8.511   2.575
 9357TIP3   OH228015   6.060   8.681   3.266
 9357TIP3    H128016   6.049   8.601   3.211
 9357TIP3    H228017   6.090   8.747   3.200
 9358TIP3   OH228018   5.361   8.068   2.529
 9358TIP3    H128019   5.280   8.122   2.513
 9358TIP3    H228020   5.404   8.072   2.442
 9359TIP3   OH228021   5.317   7.862   2.237
 9359TIP3    H128022   5.383   7.914   2.287
 9359TIP3    H228023   5.376   7.800   2.189
 9360TIP3   OH228024   6.259   8.315   3.109
 9360TIP3    H128025   6.176   8.368   3.116
 9360TIP3    H228026   6.289   8.343   3.019
 9361TIP3   OH228027   5.708   8.148   2.500
 9361TIP3    H128028   5.653   8.170   2.578
 9361TIP3    H228029   5.793   8.125   2.543
 9362TIP3   OH228030   5.940   8.195   3.412
 9362TIP3    H128031   5.940   8.278   3.464
 9362TIP3    H228032   5.854   8.202   3.367
 9363TIP3   OH228033   4.945   8.155   2.903
 9363TIP3    H128034   4.904   8.094   2.838
 9363TIP3    H228035   5.020   8.101   2.937
 9364TIP3   OH228036   5.079   8.521   3.109
 9364TIP3    H128037   5.041   8.520   3.020
 9364TIP3    H228038   5.176   8.518   3.092
 9365TIP3   OH228039   5.067   8.132   3.263
 9365TIP3    H128040   5.104   8.105   3.177
 9365TIP3    H228041   5.114   8.217   3.282
 9366TIP3   OH228042   5.257   8.587   3.587
 9366TIP3    H128043   5.219   8.674   3.610
 9366TIP3    H228044   5.184   8.551   3.533
 9367TIP3   OH228045   5.544   8.013   2.323
 9367TIP3    H128046   5.604   8.073   2.373
 9367TIP3    H228047   5.573   8.029   2.230
 9368TIP3   OH228048   4.970   8.238   3.693
 9368TIP3    H128049   4.975   8.326   3.736
 9368TIP3    H228050   4.875   8.217   3.708
 9369TIP3   OH228051   6.057   7.254   2.367
 9369TIP3    H128052   5.980   7.282   2.421
 9369TIP3    H228053   6.077   7.337   2.319
 9370TIP3   OH228054   4.809   7.997   2.713
 9370TIP3    H128055   4.741   8.039   2.657
 9370TIP3    H228056   4.768   7.912   2.733
 9371TIP3   OH228057   4.603   8.382   3.624
 9371TIP3    H128058   4.536   8.360   3.558
 9371TIP3    H228059   4.638   8.294   3.651
 9372TIP3   OH228060   6.194   8.157   3.587
 9372TIP3    H128061   6.110   8.166   3.540
 9372TIP3    H228062   6.211   8.061   3.579
 9373TIP3   OH228063   4.786   8.590   3.633
 9373TIP3    H128064   4.844   8.549   3.700
 9373TIP3    H228065   4.719   8.520   3.620
 9374TIP3   OH228066   5.189   7.389   3.398
 9374TIP3    H128067   5.100   7.358   3.370
 9374TIP3    H228068   5.162   7.469   3.448
 9375TIP3   OH228069   5.726   7.502   3.592
 9375TIP3    H128070   5.796   7.475   3.655
 9375TIP3    H228071   5.644   7.483   3.642
 9376TIP3   OH228072   5.957   7.931   3.508
 9376TIP3    H128073   5.909   7.929   3.593
 9376TIP3    H228074   5.937   8.020   3.474
 9377TIP3   OH228075   5.622   8.040   2.066
 9377TIP3    H128076   5.591   8.023   1.975
 9377TIP3    H228077   5.680   8.117   2.050
 9378TIP3   OH228078   5.342   7.432   2.372
 9378TIP3    H128079   5.305   7.432   2.463
 9378TIP3    H228080   5.295   7.354   2.335
 9379TIP3   OH228081   5.120   7.909   3.413
 9379TIP3    H128082   5.072   7.928   3.496
 9379TIP3    H228083   5.102   7.990   3.361
 9380TIP3   OH228084   5.005   7.791   2.929
 9380TIP3    H128085   4.912   7.765   2.949
 9380TIP3    H228086   5.016   7.749   2.841
 9381TIP3   OH228087   5.498   7.872   2.659
 9381TIP3    H128088   5.446   7.942   2.615
 9381TIP3    H228089   5.553   7.839   2.585
 9382TIP3   OH228090   5.674   8.149   3.739
 9382TIP3    H128091   5.652   8.077   3.803
 9382TIP3    H228092   5.768   8.165   3.763
 9383TIP3   OH228093   5.653   7.901   2.895
 9383TIP3    H128094   5.590   7.929   2.825
 9383TIP3    H228095   5.688   7.821   2.850
 9384TIP3   OH228096   4.941   7.932   3.623
 9384TIP3    H128097   4.975   7.994   3.690
 9384TIP3    H228098   4.930   7.850   3.675
 9385TIP3   OH228099   4.993   7.412   2.334
 9385TIP3    H128100   4.981   7.411   2.431
 9385TIP3    H228101   4.915   7.464   2.307
 9386TIP3   OH228102   4.534   7.453   3.205
 9386TIP3    H128103   4.608   7.487   3.260
 9386TIP3    H228104   4.578   7.424   3.124
 9387TIP3   OH228105   4.498   7.434   2.723
 9387TIP3    H128106   4.545   7.470   2.645
 9387TIP3    H228107   4.439   7.509   2.743
 9388TIP3   OH228108   5.660   8.149   3.316
 9388TIP3    H128109   5.695   8.078   3.257
 9388TIP3    H228110   5.631   8.095   3.393
 9389TIP3   OH228111   5.336   7.613   2.989
 9389TIP3    H128112   5.256   7.612   3.045
 9389TIP3    H228113   5.407   7.603   3.054
 9390TIP3   OH228114   4.767   7.670   2.997
 9390TIP3    H128115   4.673   7.676   2.969
 9390TIP3    H228116   4.791   7.578   2.975
 9391TIP3   OH228117   5.032   7.662   2.689
 9391TIP3    H128118   5.126   7.679   2.668
 9391TIP3    H228119   4.985   7.685   2.606
 9392TIP3   OH228120   5.824   7.690   3.192
 9392TIP3    H128121   5.794   7.702   3.285
 9392TIP3    H228122   5.757   7.629   3.159
 9393TIP3   OH228123   4.882   7.698   2.465
 9393TIP3    H128124   4.811   7.653   2.416
 9393TIP3    H228125   4.934   7.736   2.391
 9394TIP3   OH228126   4.956   8.487   3.831
 9394TIP3    H128127   5.035   8.513   3.882
 9394TIP3    H228128   4.892   8.475   3.904
 9395TIP3   OH228129   5.414   7.943   3.088
 9395TIP3    H128130   5.488   7.903   3.041
 9395TIP3    H228131   5.418   7.899   3.175
 9396TIP3   OH228132   4.933   7.427   2.972
 9396TIP3    H128133   4.897   7.351   3.021
 9396TIP3    H228134   4.983   7.383   2.902
 9397TIP3   OH228135   5.391   7.843   3.373
 9397TIP3    H128136   5.301   7.878   3.391
 9397TIP3    H228137   5.448   7.902   3.426
 9398TIP3   OH228138   5.130   8.212   2.480
 9398TIP3    H128139   5.052   8.155   2.465
 9398TIP3    H228140   5.105   8.258   2.564
 9399TIP3   OH228141   6.026   8.459   3.104
 9399TIP3    H128142   6.054   8.509   3.023
 9399TIP3    H228143   5.942   8.419   3.075
 9400TIP3   OH228144   5.580   7.551   2.310
 9400TIP3    H128145   5.489   7.525   2.338
 9400TIP3    H228146   5.594   7.637   2.354
 9401TIP3   OH228147   5.538   8.570   3.469
 9401TIP3    H128148   5.573   8.518   3.543
 9401TIP3    H228149   5.454   8.602   3.506
 9402TIP3   OH228150   5.655   7.783   2.440
 9402TIP3    H128151   5.751   7.792   2.457
 9402TIP3    H228152   5.635   7.865   2.390
 9403TIP3   OH228153   4.801   8.204   3.136
 9403TIP3    H128154   4.852   8.197   3.052
 9403TIP3    H228155   4.862   8.165   3.200
 9404TIP3   OH228156   5.238   8.401   2.314
 9404TIP3    H128157   5.197   8.472   2.368
 9404TIP3    H228158   5.203   8.322   2.362
 9405TIP3   OH228159   4.706   8.164   3.764
 9405TIP3    H128160   4.722   8.148   3.859
 9405TIP3    H228161   4.637   8.099   3.745
 9406TIP3   OH228162   5.435   8.275   3.786
 9406TIP3    H128163   5.372   8.223   3.733
 9406TIP3    H228164   5.521   8.240   3.754
 9407TIP3   OH228165   6.092   7.883   2.275
 9407TIP3    H128166   6.032   7.837   2.211
 9407TIP3    H228167   6.087   7.973   2.235
 9408TIP3   OH228168   6.316   8.722   3.357
 9408TIP3    H128169   6.219   8.731   3.346
 9408TIP3    H228170   6.342   8.705   3.264
 9409TIP3   OH228171   5.792   8.333   3.003
 9409TIP3    H128172   5.700   8.306   3.026
 9409TIP3    H228173   5.826   8.249   2.967
 9410TIP3   OH228174   4.489   7.857   2.480
 9410TIP3    H128175   4.534   7.942   2.498
 9410TIP3    H228176   4.411   7.864   2.539
 9411TIP3   OH228177   5.055   8.333   2.717
 9411TIP3    H128178   5.016   8.413   2.755
 9411TIP3    H228179   5.029   8.268   2.786
 9412TIP3   OH228180   5.584   8.531   3.199
 9412TIP3    H128181   5.572   8.544   3.296
 9412TIP3    H228182   5.670   8.487   3.196
 9413TIP3   OH228183   5.587   8.355   2.056
 9413TIP3    H128184   5.620   8.348   2.148
 9413TIP3    H228185   5.509   8.412   2.067
 9414TIP3   OH228186   4.912   7.676   3.766
 9414TIP3    H128187   4.815   7.677   3.779
 9414TIP3    H228188   4.941   7.620   3.840
 9415TIP3   OH228189   5.713   8.334   2.302
 9415TIP3    H128190   5.709   8.263   2.370
 9415TIP3    H228191   5.809   8.336   2.283
 9416TIP3   OH228192   4.901   8.354   2.133
 9416TIP3    H128193   4.943   8.269   2.109
 9416TIP3    H228194   4.940   8.371   2.219
 9417TIP3   OH228195   4.606   8.099   2.556
 9417TIP3    H128196   4.537   8.134   2.616
 9417TIP3    H228197   4.611   8.171   2.490
 9418TIP3   OH228198   5.752   7.739   3.452
 9418TIP3    H128199   5.832   7.780   3.489
 9418TIP3    H228200   5.741   7.659   3.508
 9419TIP3   OH228201   5.638   7.489   2.619
 9419TIP3    H128202   5.621   7.521   2.529
 9419TIP3    H228203   5.677   7.569   2.661
 9420TIP3   OH228204   5.316   7.673   2.720
 9420TIP3    H128205   5.380   7.745   2.705
 9420TIP3    H228206   5.322   7.663   2.817
 9421TIP3   OH228207   5.590   7.987   3.524
 9421TIP3    H128208   5.616   8.039   3.603
 9421TIP3    H228209   5.643   7.907   3.535
 9422TIP3   OH228210   5.462   7.392   2.819
 9422TIP3    H128211   5.461   7.466   2.882
 9422TIP3    H228212   5.524   7.428   2.751
 9423TIP3   OH228213   4.976   7.398   2.609
 9423TIP3    H128214   4.972   7.487   2.649
 9423TIP3    H228215   5.072   7.381   2.618
 9424TIP3   OH228216   6.226   7.891   3.509
 9424TIP3    H128217   6.128   7.889   3.514
 9424TIP3    H228218   6.239   7.842   3.426
 9425TIP3   OH228219   5.878   8.085   2.897
 9425TIP3    H128220   5.803   8.025   2.910
 9425TIP3    H228221   5.950   8.039   2.945
 9426TIP3   OH228222   4.597   8.314   2.370
 9426TIP3    H128223   4.624   8.407   2.358
 9426TIP3    H228224   4.653   8.267   2.305
 9427TIP3   OH228225   4.535   7.587   2.499
 9427TIP3    H128226   4.537   7.685   2.499
 9427TIP3    H228227   4.455   7.569   2.449
 9428TIP3   OH228228   4.923   7.308   3.370
 9428TIP3    H128229   4.894   7.272   3.283
 9428TIP3    H228230   4.914   7.231   3.429
 9429TIP3   OH228231   4.752   8.455   4.012
 9429TIP3    H128232   4.774   8.360   4.019
 9429TIP3    H228233   4.663   8.452   3.970
 9430TIP3   OH228234   4.724   8.115   2.224
 9430TIP3    H128235   4.775   8.082   2.300
 9430TIP3    H228236   4.796   8.120   2.158
 9431TIP3   OH228237   5.374   8.538   3.828
 9431TIP3    H128238   5.341   8.552   3.737
 9431TIP3    H228239   5.410   8.448   3.821
 9432TIP3   OH228240   5.174   8.295   2.038
 9432TIP3    H128241   5.213   8.315   2.124
 9432TIP3    H228242   5.206   8.204   2.022
 9433TIP3   OH228243   5.848   8.563   3.401
 9433TIP3    H128244   5.917   8.618   3.359
 9433TIP3    H228245   5.773   8.623   3.397
 9434TIP3   OH228246   4.876   8.207   4.008
 9434TIP3    H128247   4.953   8.155   3.982
 9434TIP3    H228248   4.903   8.240   4.096
 9435TIP3   OH228249   4.925   8.029   2.434
 9435TIP3    H128250   4.900   7.988   2.519
 9435TIP3    H228251   4.967   7.954   2.386
 9436TIP3   OH228252   5.203   8.092   3.665
 9436TIP3    H128253   5.127   8.154   3.667
 9436TIP3    H228254   5.256   8.129   3.590
 9437TIP3   OH228255   5.040   7.825   2.281
 9437TIP3    H128256   5.014   7.828   2.186
 9437TIP3    H228257   5.137   7.830   2.273
 9438TIP3   OH228258   5.728   8.487   3.799
 9438TIP3    H128259   5.810   8.464   3.755
 9438TIP3    H228260   5.726   8.424   3.873
 9439TIP3   OH228261   5.859   8.162   1.940
 9439TIP3    H128262   5.833   8.112   1.860
 9439TIP3    H228263   5.838   8.253   1.910
 9440TIP3   OH228264   5.328   7.885   3.793
 9440TIP3    H128265   5.330   7.806   3.735
 9440TIP3    H228266   5.284   7.951   3.735
 9441TIP3   OH228267   5.332   7.672   3.601
 9441TIP3    H128268   5.360   7.711   3.517
 9441TIP3    H228269   5.239   7.648   3.582
 9442TIP3   OH228270   5.352   8.208   3.475
 9442TIP3    H128271   5.437   8.215   3.429
 9442TIP3    H228272   5.297   8.275   3.429
 9443TIP3   OH228273   5.938   8.171   3.852
 9443TIP3    H128274   5.987   8.088   3.866
 9443TIP3    H228275   6.008   8.230   3.821
 9444TIP3   OH228276   5.981   8.423   3.589
 9444TIP3    H128277   5.925   8.477   3.530
 9444TIP3    H228278   6.070   8.444   3.551
 9445TIP3   OH228279   5.206   7.991   4.026
 9445TIP3    H128280   5.139   7.921   4.042
 9445TIP3    H228281   5.240   7.965   3.938
 9446TIP3   OH228282   5.463   7.432   3.670
 9446TIP3    H128283   5.413   7.513   3.648
 9446TIP3    H228284   5.394   7.363   3.660
 9447TIP3   OH228285   5.589   7.935   3.886
 9447TIP3    H128286   5.577   7.920   3.981
 9447TIP3    H228287   5.499   7.912   3.854
 9448TIP3   OH228288   5.827   7.886   3.739
 9448TIP3    H128289   5.753   7.887   3.803
 9448TIP3    H228290   5.902   7.857   3.795
 9449TIP3   OH228291   6.053   7.827   3.888
 9449TIP3    H128292   6.069   7.732   3.904
 9449TIP3    H228293   6.052   7.864   3.979
 9450TIP3   OH228294   5.046   7.771   4.081
 9450TIP3    H128295   5.050   7.679   4.048
 9450TIP3    H228296   5.085   7.760   4.170
 9451TIP3   OH228297   5.556   7.443   3.929
 9451TIP3    H128298   5.623   7.372   3.923
 9451TIP3    H228299   5.517   7.437   3.839
 9452TIP3   OH228300   5.624   7.658   4.086
 9452TIP3    H128301   5.603   7.586   4.023
 9452TIP3    H228302   5.544   7.715   4.079
 9453TIP3   OH228303   4.334   8.218   2.414
 9453TIP3    H128304   4.413   8.263   2.379
 9453TIP3    H228305   4.322   8.145   2.350
 9454TIP3   OH228306   6.203   8.855   3.630
 9454TIP3    H128307   6.131   8.835   3.694
 9454TIP3    H228308   6.260   8.912   3.683
 9455TIP3   OH228309   5.985   8.329   2.285
 9455TIP3    H128310   6.052   8.392   2.251
 9455TIP3    H228311   6.033   8.293   2.362
 9456TIP3   OH228312   6.124   8.206   2.486
 9456TIP3    H128313   6.059   8.164   2.547
 9456TIP3    H228314   6.190   8.244   2.547
 9457TIP3   OH228315   6.152   8.589   2.903
 9457TIP3    H128316   6.221   8.532   2.864
 9457TIP3    H228317   6.166   8.674   2.860
 9458TIP3   OH228318   6.053   8.115   2.126
 9458TIP3    H128319   5.983   8.122   2.057
 9458TIP3    H228320   6.028   8.191   2.182
 9459TIP3   OH228321   5.933   7.788   2.077
 9459TIP3    H128322   5.881   7.828   2.006
 9459TIP3    H228323   5.908   7.694   2.067
 9460TIP3   OH228324   5.936   8.065   2.630
 9460TIP3    H128325   5.946   7.969   2.622
 9460TIP3    H228326   5.921   8.077   2.726
 9461TIP3   OH228327   4.559   8.146   3.374
 9461TIP3    H128328   4.557   8.109   3.284
 9461TIP3    H228329   4.656   8.144   3.391
 9462TIP3   OH228330   6.226   8.487   3.485
 9462TIP3    H128331   6.299   8.423   3.477
 9462TIP3    H228332   6.254   8.559   3.425
 9463TIP3   OH228333   6.412   8.292   3.500
 9463TIP3    H128334   6.336   8.243   3.539
 9463TIP3    H228335   6.484   8.226   3.516
 9464TIP3   OH228336   5.876   7.522   2.067
 9464TIP3    H128337   5.957   7.496   2.115
 9464TIP3    H228338   5.811   7.458   2.100
 9465TIP3   OH228339   5.932   7.782   2.518
 9465TIP3    H128340   5.973   7.694   2.533
 9465TIP3    H228341   5.990   7.816   2.447
 9466TIP3   OH228342   6.090   7.953   3.015
 9466TIP3    H128343   6.176   7.978   2.974
 9466TIP3    H228344   6.106   7.988   3.105
 9467TIP3   OH228345   6.162   8.097   3.246
 9467TIP3    H128346   6.086   8.132   3.297
 9467TIP3    H228347   6.194   8.177   3.200
 9468TIP3   OH228348   4.780   7.824   4.050
 9468TIP3    H128349   4.878   7.818   4.053
 9468TIP3    H228350   4.756   7.737   4.087
 9469TIP3   OH228351   6.611   7.690   3.802
 9469TIP3    H128352   6.673   7.625   3.763
 9469TIP3    H228353   6.585   7.743   3.724
 9470TIP3   OH228354   6.039   7.533   2.558
 9470TIP3    H128355   6.090   7.518   2.641
 9470TIP3    H228356   5.979   7.456   2.560
 9471TIP3   OH228357   4.740   7.518   3.379
 9471TIP3    H128358   4.800   7.442   3.388
 9471TIP3    H228359   4.803   7.591   3.371
 9472TIP3   OH228360   4.540   7.791   3.449
 9472TIP3    H128361   4.591   7.787   3.365
 9472TIP3    H228362   4.574   7.871   3.489
 9473TIP3   OH228363   6.484   7.828   3.603
 9473TIP3    H128364   6.397   7.870   3.623
 9473TIP3    H228365   6.454   7.753   3.549
 9474TIP3   OH228366   6.118   7.464   2.192
 9474TIP3    H128367   6.160   7.394   2.138
 9474TIP3    H228368   6.187   7.534   2.191
 9475TIP3   OH228369   4.528   7.292   2.951
 9475TIP3    H128370   4.436   7.288   2.981
 9475TIP3    H228371   4.522   7.352   2.874
 9476TIP3   OH228372   4.748   7.377   3.767
 9476TIP3    H128373   4.696   7.368   3.849
 9476TIP3    H228374   4.680   7.412   3.706
 9477TIP3   OH228375   6.384   7.589   3.489
 9477TIP3    H128376   6.294   7.575   3.455
 9477TIP3    H228377   6.421   7.498   3.480
 9478TIP3   OH228378   5.582   7.503   3.101
 9478TIP3    H128379   5.544   7.433   3.157
 9478TIP3    H228380   5.661   7.460   3.064
 9479TIP3   OH228381   6.107   7.383   3.006
 9479TIP3    H128382   6.145   7.437   2.934
 9479TIP3    H228383   6.013   7.410   3.005
 9480TIP3   OH228384   6.204   7.488   2.773
 9480TIP3    H128385   6.279   7.435   2.739
 9480TIP3    H228386   6.240   7.579   2.760
 9481TIP3   OH228387   4.836   7.213   3.121
 9481TIP3    H128388   4.744   7.181   3.126
 9481TIP3    H228389   4.885   7.128   3.118
 9482TIP3   OH228390   4.622   7.088   2.772
 9482TIP3    H128391   4.653   7.145   2.699
 9482TIP3    H228392   4.597   7.154   2.840
 9483TIP3   OH228393   5.283   7.247   3.005
 9483TIP3    H128394   5.338   7.297   2.943
 9483TIP3    H228395   5.310   7.283   3.091
 9484TIP3   OH228396   5.820   7.395   2.988
 9484TIP3    H128397   5.831   7.352   2.903
 9484TIP3    H228398   5.811   7.317   3.048
 9485TIP3   OH228399   5.855   7.320   2.549
 9485TIP3    H128400   5.772   7.367   2.573
 9485TIP3    H228401   5.843   7.235   2.598
 9486TIP3   OH228402   4.743   7.245   2.533
 9486TIP3    H128403   4.791   7.182   2.476
 9486TIP3    H228404   4.817   7.299   2.569
 9487TIP3   OH228405   5.253   7.423   2.633
 9487TIP3    H128406   5.312   7.377   2.695
 9487TIP3    H228407   5.272   7.516   2.658
 9488TIP3   OH228408   5.044   7.497   4.015
 9488TIP3    H128409   5.008   7.425   4.071
 9488TIP3    H228410   5.138   7.496   4.043
 9489TIP3   OH228411   5.294   7.494   4.133
 9489TIP3    H128412   5.380   7.468   4.094
 9489TIP3    H228413   5.282   7.424   4.200
 9490TIP3   OH228414   6.121   7.558   3.920
 9490TIP3    H128415   6.139   7.526   4.011
 9490TIP3    H228416   6.211   7.553   3.880
 9491TIP3   OH228417   6.612   8.365   2.914
 9491TIP3    H128418   6.667   8.326   2.984
 9491TIP3    H228419   6.680   8.405   2.855
 9492TIP3   OH228420   6.297   7.987   2.427
 9492TIP3    H128421   6.249   8.069   2.448
 9492TIP3    H228422   6.225   7.936   2.385
 9493TIP3   OH228423   6.362   8.277   2.612
 9493TIP3    H128424   6.408   8.198   2.648
 9493TIP3    H228425   6.426   8.308   2.547
 9494TIP3   OH228426   6.826   7.865   2.617
 9494TIP3    H128427   6.813   7.930   2.545
 9494TIP3    H228428   6.793   7.784   2.571
 9495TIP3   OH228429   6.502   8.068   2.713
 9495TIP3    H128430   6.584   8.052   2.765
 9495TIP3    H228431   6.518   8.008   2.637
 9496TIP3   OH228432   6.861   7.843   3.049
 9496TIP3    H128433   6.804   7.883   2.980
 9496TIP3    H228434   6.806   7.860   3.128
 9497TIP3   OH228435   6.726   7.968   2.842
 9497TIP3    H128436   6.791   8.039   2.861
 9497TIP3    H228437   6.767   7.928   2.762
 9498TIP3   OH228438   6.196   8.477   2.192
 9498TIP3    H128439   6.175   8.507   2.102
 9498TIP3    H228440   6.239   8.557   2.226
 9499TIP3   OH228441   7.198   7.564   2.750
 9499TIP3    H128442   7.206   7.473   2.786
 9499TIP3    H228443   7.127   7.600   2.807
 9500TIP3   OH228444   6.726   8.500   3.183
 9500TIP3    H128445   6.711   8.585   3.226
 9500TIP3    H228446   6.636   8.461   3.195
 9501TIP3   OH228447   6.585   8.233   2.147
 9501TIP3    H128448   6.578   8.324   2.179
 9501TIP3    H228449   6.533   8.184   2.211
 9502TIP3   OH228450   6.386   8.633   3.115
 9502TIP3    H128451   6.327   8.611   3.041
 9502TIP3    H228452   6.422   8.547   3.141
 9503TIP3   OH228453   6.975   7.648   2.889
 9503TIP3    H128454   6.887   7.618   2.858
 9503TIP3    H228455   6.946   7.723   2.946
 9504TIP3   OH228456   7.500   7.713   3.109
 9504TIP3    H128457   7.523   7.748   3.196
 9504TIP3    H228458   7.402   7.707   3.117
 9505TIP3   OH228459   6.915   8.150   2.907
 9505TIP3    H128460   6.864   8.190   2.982
 9505TIP3    H228461   6.937   8.227   2.853
 9506TIP3   OH228462   6.778   8.028   2.394
 9506TIP3    H128463   6.690   7.999   2.428
 9506TIP3    H228464   6.752   8.071   2.311
 9507TIP3   OH228465   6.751   8.198   3.123
 9507TIP3    H128466   6.741   8.260   3.197
 9507TIP3    H228467   6.736   8.112   3.167
 9508TIP3   OH228468   6.764   7.636   1.814
 9508TIP3    H128469   6.764   7.636   1.912
 9508TIP3    H228470   6.688   7.693   1.795
 9509TIP3   OH228471   6.331   7.710   2.689
 9509TIP3    H128472   6.402   7.742   2.748
 9509TIP3    H228473   6.379   7.677   2.612
 9510TIP3   OH228474   6.295   7.691   2.209
 9510TIP3    H128475   6.343   7.723   2.130
 9510TIP3    H228476   6.237   7.768   2.226
 9511TIP3   OH228477   7.082   7.809   2.534
 9511TIP3    H128478   7.000   7.813   2.587
 9511TIP3    H228479   7.142   7.863   2.586
 9512TIP3   OH228480   6.551   7.915   2.489
 9512TIP3    H128481   6.457   7.926   2.462
 9512TIP3    H228482   6.571   7.823   2.464
 9513TIP3   OH228483   6.625   7.938   1.984
 9513TIP3    H128484   6.563   7.894   1.923
 9513TIP3    H228485   6.632   8.027   1.948
 9514TIP3   OH228486   6.731   7.676   2.448
 9514TIP3    H128487   6.697   7.598   2.497
 9514TIP3    H228488   6.802   7.636   2.396
 9515TIP3   OH228489   6.480   8.413   3.258
 9515TIP3    H128490   6.493   8.393   3.353
 9515TIP3    H228491   6.408   8.352   3.234
 9516TIP3   OH228492   6.276   8.107   1.968
 9516TIP3    H128493   6.314   8.194   1.985
 9516TIP3    H228494   6.196   8.111   2.025
 9517TIP3   OH228495   6.709   7.933   3.258
 9517TIP3    H128496   6.612   7.931   3.270
 9517TIP3    H228497   6.738   7.877   3.333
 9518TIP3   OH228498   6.740   7.650   2.089
 9518TIP3    H128499   6.724   7.741   2.119
 9518TIP3    H228500   6.833   7.638   2.117
 9519TIP3   OH228501   6.321   7.837   1.977
 9519TIP3    H128502   6.323   7.935   1.981
 9519TIP3    H228503   6.231   7.822   1.945
 9520TIP3   OH228504   6.713   7.564   2.858
 9520TIP3    H128505   6.688   7.527   2.771
 9520TIP3    H228506   6.708   7.486   2.917
 9521TIP3   OH228507   6.557   8.718   3.484
 9521TIP3    H128508   6.590   8.626   3.483
 9521TIP3    H228509   6.469   8.708   3.443
 9522TIP3   OH228510   6.681   8.465   3.487
 9522TIP3    H128511   6.755   8.404   3.475
 9522TIP3    H228512   6.696   8.494   3.579
 9523TIP3   OH228513   7.093   8.147   3.293
 9523TIP3    H128514   7.132   8.063   3.267
 9523TIP3    H228515   7.049   8.174   3.211
 9524TIP3   OH228516   7.102   7.967   3.063
 9524TIP3    H128517   7.072   7.997   2.975
 9524TIP3    H228518   7.021   7.916   3.087
 9525TIP3   OH228519   6.954   8.271   3.505
 9525TIP3    H128520   6.913   8.186   3.530
 9525TIP3    H228521   7.021   8.242   3.440
 9526TIP3   OH228522   7.232   7.699   3.135
 9526TIP3    H128523   7.166   7.764   3.158
 9526TIP3    H228524   7.183   7.615   3.145
 9527TIP3   OH228525   6.846   8.024   3.567
 9527TIP3    H128526   6.845   7.931   3.536
 9527TIP3    H228527   6.877   8.011   3.659
 9528TIP3   OH228528   7.319   7.857   3.552
 9528TIP3    H128529   7.390   7.814   3.504
 9528TIP3    H228530   7.352   7.949   3.551
 9529TIP3   OH228531   6.110   8.477   1.882
 9529TIP3    H128532   6.182   8.530   1.847
 9529TIP3    H228533   6.108   8.401   1.821
 9530TIP3   OH228534   6.351   8.406   2.860
 9530TIP3    H128535   6.350   8.364   2.771
 9530TIP3    H228536   6.448   8.399   2.880
 9531TIP3   OH228537   6.579   8.080   3.534
 9531TIP3    H128538   6.677   8.076   3.540
 9531TIP3    H228539   6.556   7.993   3.573
 9532TIP3   OH228540   6.529   7.772   2.869
 9532TIP3    H128541   6.592   7.696   2.876
 9532TIP3    H228542   6.591   7.847   2.867
 9533TIP3   OH228543   6.334   8.047   2.935
 9533TIP3    H128544   6.386   8.044   2.853
 9533TIP3    H228545   6.371   8.125   2.978
 9534TIP3   OH228546   6.323   7.547   2.436
 9534TIP3    H128547   6.231   7.547   2.467
 9534TIP3    H228548   6.318   7.608   2.359
 9535TIP3   OH228549   6.542   7.639   3.257
 9535TIP3    H128550   6.489   7.627   3.338
 9535TIP3    H228551   6.473   7.668   3.194
 9536TIP3   OH228552   6.632   7.471   2.608
 9536TIP3    H128553   6.540   7.436   2.612
 9536TIP3    H228554   6.682   7.387   2.605
 9537TIP3   OH228555   6.417   7.342   2.262
 9537TIP3    H128556   6.447   7.394   2.186
 9537TIP3    H228557   6.395   7.411   2.327
 9538TIP3   OH228558   7.053   7.494   2.524
 9538TIP3    H128559   7.113   7.534   2.459
 9538TIP3    H228560   7.093   7.528   2.607
 9539TIP3   OH228561   6.527   7.491   2.017
 9539TIP3    H128562   6.577   7.429   1.960
 9539TIP3    H228563   6.599   7.548   2.051
 9540TIP3   OH228564   7.003   7.666   2.157
 9540TIP3    H128565   7.055   7.591   2.122
 9540TIP3    H228566   7.064   7.739   2.138
 9541TIP3   OH228567   6.831   7.752   3.492
 9541TIP3    H128568   6.793   7.681   3.547
 9541TIP3    H228569   6.924   7.750   3.525
 9542TIP3   OH228570   7.073   7.754   3.619
 9542TIP3    H128571   7.163   7.783   3.590
 9542TIP3    H228572   7.092   7.664   3.649
 9543TIP3   OH228573   2.274   0.941   7.517
 9543TIP3    H128574   2.265   0.875   7.587
 9543TIP3    H228575   2.303   1.019   7.565
 9544TIP3   OH228576   1.926   1.394   7.535
 9544TIP3    H128577   1.991   1.337   7.488
 9544TIP3    H228578   1.935   1.360   7.625
 9545TIP3   OH228579   1.958   0.886   7.329
 9545TIP3    H128580   1.891   0.836   7.281
 9545TIP3    H228581   1.927   0.978   7.320
 9546TIP3   OH228582   2.097   1.238   7.402
 9546TIP3    H128583   2.127   1.154   7.361
 9546TIP3    H228584   2.139   1.301   7.339
 9547TIP3   OH228585   2.203   1.022   7.265
 9547TIP3    H128586   2.152   0.948   7.229
 9547TIP3    H228587   2.233   0.983   7.350
 9548TIP3   OH228588   2.206   0.596   7.271
 9548TIP3    H128589   2.149   0.593   7.348
 9548TIP3    H228590   2.287   0.554   7.304
 9549TIP3   OH228591   1.838   1.154   7.304
 9549TIP3    H128592   1.872   1.204   7.378
 9549TIP3    H228593   1.743   1.172   7.307
 9550TIP3   OH228594   2.368   1.039   6.687
 9550TIP3    H128595   2.376   1.136   6.673
 9550TIP3    H228596   2.461   1.010   6.677
 9551TIP3   OH228597   1.665   1.361   7.160
 9551TIP3    H128598   1.626   1.358   7.071
 9551TIP3    H228599   1.640   1.449   7.192
 9552TIP3   OH228600   1.886   1.258   6.804
 9552TIP3    H128601   1.948   1.190   6.770
 9552TIP3    H228602   1.919   1.273   6.895
 9553TIP3   OH228603   1.924   1.311   7.074
 9553TIP3    H128604   1.836   1.316   7.117
 9553TIP3    H228605   1.971   1.259   7.141
 9554TIP3   OH228606   2.120   0.486   6.828
 9554TIP3    H128607   2.098   0.447   6.743
 9554TIP3    H228608   2.205   0.528   6.810
 9555TIP3   OH228609   1.821   0.844   6.995
 9555TIP3    H128610   1.766   0.921   7.017
 9555TIP3    H228611   1.811   0.790   7.076
 9556TIP3   OH228612   2.610   0.308   7.033
 9556TIP3    H128613   2.547   0.251   6.983
 9556TIP3    H228614   2.590   0.395   6.990
 9557TIP3   OH228615   2.308   1.114   6.953
 9557TIP3    H128616   2.278   1.045   7.014
 9557TIP3    H228617   2.319   1.067   6.869
 9558TIP3   OH228618   2.060   0.849   6.852
 9558TIP3    H128619   2.118   0.815   6.924
 9558TIP3    H228620   1.973   0.845   6.898
 9559TIP3   OH228621   2.401   1.313   6.673
 9559TIP3    H128622   2.447   1.382   6.622
 9559TIP3    H228623   2.322   1.362   6.702
 9560TIP3   OH228624   2.223   0.779   7.062
 9560TIP3    H128625   2.206   0.713   7.132
 9560TIP3    H228626   2.321   0.772   7.055
 9561TIP3   OH228627   1.638   1.038   7.054
 9561TIP3    H128628   1.581   1.044   7.131
 9561TIP3    H228629   1.648   1.132   7.029
 9562TIP3   OH228630   2.354   1.473   7.649
 9562TIP3    H128631   2.308   1.517   7.574
 9562TIP3    H228632   2.445   1.473   7.616
 9563TIP3   OH228633   1.586   1.005   6.771
 9563TIP3    H128634   1.599   0.976   6.864
 9563TIP3    H228635   1.664   0.965   6.728
 9564TIP3   OH228636   2.030   1.065   6.673
 9564TIP3    H128637   2.070   1.000   6.734
 9564TIP3    H228638   2.090   1.062   6.596
 9565TIP3   OH228639   2.366   0.568   6.711
 9565TIP3    H128640   2.349   0.529   6.623
 9565TIP3    H228641   2.332   0.659   6.694
 9566TIP3   OH228642   1.366   1.317   6.938
 9566TIP3    H128643   1.458   1.320   6.908
 9566TIP3    H228644   1.320   1.373   6.873
 9567TIP3   OH228645   2.628   1.535   7.591
 9567TIP3    H128646   2.632   1.616   7.644
 9567TIP3    H228647   2.662   1.566   7.506
 9568TIP3   OH228648   2.503   0.757   7.042
 9568TIP3    H128649   2.569   0.824   7.013
 9568TIP3    H228650   2.547   0.719   7.121
 9569TIP3   OH228651   2.628   0.623   7.245
 9569TIP3    H128652   2.559   0.589   7.306
 9569TIP3    H228653   2.691   0.666   7.306
 9570TIP3   OH228654   2.661   1.025   7.682
 9570TIP3    H128655   2.725   0.955   7.659
 9570TIP3    H228656   2.677   1.090   7.611
 9571TIP3   OH228657   2.566   0.536   6.890
 9571TIP3    H128658   2.496   0.542   6.821
 9571TIP3    H228659   2.538   0.611   6.947
 9572TIP3   OH228660   2.437   0.192   6.845
 9572TIP3    H128661   2.399   0.272   6.806
 9572TIP3    H228662   2.376   0.125   6.814
 9573TIP3   OH228663   2.439   0.486   7.403
 9573TIP3    H128664   2.465   0.394   7.394
 9573TIP3    H228665   2.441   0.501   7.498
 9574TIP3   OH228666   2.189   1.420   7.224
 9574TIP3    H128667   2.240   1.407   7.141
 9574TIP3    H228668   2.244   1.483   7.273
 9575TIP3   OH228669   1.629   1.265   6.890
 9575TIP3    H128670   1.720   1.278   6.857
 9575TIP3    H228671   1.600   1.190   6.835
 9576TIP3   OH228672   2.340   1.382   6.996
 9576TIP3    H128673   2.333   1.284   6.985
 9576TIP3    H228674   2.296   1.412   6.914
 9577TIP3   OH228675   3.831   0.898   6.947
 9577TIP3    H128676   3.803   0.989   6.925
 9577TIP3    H228677   3.755   0.848   6.911
 9578TIP3   OH228678   3.833   0.899   7.335
 9578TIP3    H128679   3.865   0.874   7.423
 9578TIP3    H228680   3.790   0.817   7.305
 9579TIP3   OH228681   3.128   0.814   7.669
 9579TIP3    H128682   3.115   0.782   7.760
 9579TIP3    H228683   3.224   0.803   7.654
 9580TIP3   OH228684   4.077   1.201   7.013
 9580TIP3    H128685   4.060   1.132   7.078
 9580TIP3    H228686   4.107   1.276   7.068
 9581TIP3   OH228687   3.103   1.209   7.424
 9581TIP3    H128688   3.091   1.111   7.417
 9581TIP3    H228689   3.199   1.215   7.410
 9582TIP3   OH228690   2.798   0.405   7.208
 9582TIP3    H128691   2.752   0.490   7.225
 9582TIP3    H228692   2.728   0.359   7.157
 9583TIP3   OH228693   2.854   0.707   7.373
 9583TIP3    H128694   2.894   0.626   7.413
 9583TIP3    H228695   2.925   0.737   7.316
 9584TIP3   OH228696   3.729   1.664   7.029
 9584TIP3    H128697   3.771   1.593   6.977
 9584TIP3    H228698   3.711   1.620   7.113
 9585TIP3   OH228699   3.630   1.124   7.378
 9585TIP3    H128700   3.668   1.045   7.334
 9585TIP3    H228701   3.714   1.169   7.402
 9586TIP3   OH228702   4.048   0.624   7.425
 9586TIP3    H128703   4.064   0.533   7.453
 9586TIP3    H228704   4.012   0.614   7.335
 9587TIP3   OH228705   3.365   0.249   7.348
 9587TIP3    H128706   3.344   0.334   7.304
 9587TIP3    H228707   3.282   0.200   7.337
 9588TIP3   OH228708   4.037   0.397   7.047
 9588TIP3    H128709   4.096   0.352   7.111
 9588TIP3    H228710   4.094   0.399   6.969
 9589TIP3   OH228711   2.980   0.491   7.468
 9589TIP3    H128712   3.060   0.485   7.525
 9589TIP3    H228713   3.004   0.424   7.403
 9590TIP3   OH228714   3.447   0.687   7.281
 9590TIP3    H128715   3.542   0.663   7.295
 9590TIP3    H228716   3.409   0.601   7.255
 9591TIP3   OH228717   4.681   0.638   7.573
 9591TIP3    H128718   4.605   0.691   7.542
 9591TIP3    H228719   4.737   0.705   7.615
 9592TIP3   OH228720   3.724   1.120   6.813
 9592TIP3    H128721   3.679   1.103   6.729
 9592TIP3    H228722   3.678   1.201   6.842
 9593TIP3   OH228723   3.494   1.056   7.605
 9593TIP3    H128724   3.427   1.122   7.631
 9593TIP3    H228725   3.534   1.098   7.525
 9594TIP3   OH228726   3.231   0.430   7.544
 9594TIP3    H128727   3.300   0.485   7.588
 9594TIP3    H228728   3.283   0.354   7.516
 9595TIP3   OH228729   3.305   1.231   7.705
 9595TIP3    H128730   3.271   1.305   7.651
 9595TIP3    H228731   3.238   1.226   7.777
 9596TIP3   OH228732   2.704   0.929   6.938
 9596TIP3    H128733   2.662   0.953   6.853
 9596TIP3    H228734   2.734   1.016   6.970
 9597TIP3   OH228735   4.146   1.446   7.176
 9597TIP3    H128736   4.056   1.436   7.216
 9597TIP3    H228737   4.136   1.532   7.130
 9598TIP3   OH228738   3.845   1.488   6.851
 9598TIP3    H128739   3.895   1.405   6.832
 9598TIP3    H228740   3.907   1.553   6.810
 9599TIP3   OH228741   3.989   1.273   6.761
 9599TIP3    H128742   3.942   1.195   6.729
 9599TIP3    H228743   4.028   1.240   6.844
 9600TIP3   OH228744   4.368   1.356   7.521
 9600TIP3    H128745   4.358   1.277   7.463
 9600TIP3    H228746   4.352   1.429   7.457
 9601TIP3   OH228747   3.663   0.754   6.778
 9601TIP3    H128748   3.581   0.805   6.760
 9601TIP3    H228749   3.704   0.751   6.690
 9602TIP3   OH228750   3.617   0.530   6.497
 9602TIP3    H128751   3.686   0.584   6.540
 9602TIP3    H228752   3.672   0.468   6.446
 9603TIP3   OH228753   4.566   0.999   7.368
 9603TIP3    H128754   4.481   1.048   7.371
 9603TIP3    H228755   4.595   1.020   7.277
 9604TIP3   OH228756   4.008   0.833   6.747
 9604TIP3    H128757   3.954   0.856   6.826
 9604TIP3    H228758   4.094   0.813   6.791
 9605TIP3   OH228759   4.242   0.873   7.668
 9605TIP3    H128760   4.235   0.953   7.723
 9605TIP3    H228761   4.155   0.874   7.623
 9606TIP3   OH228762   3.243   0.826   7.162
 9606TIP3    H128763   3.205   0.767   7.095
 9606TIP3    H228764   3.319   0.774   7.196
 9607TIP3   OH228765   3.370   1.240   7.315
 9607TIP3    H128766   3.347   1.207   7.227
 9607TIP3    H228767   3.459   1.202   7.328
 9608TIP3   OH228768   3.381   0.815   7.522
 9608TIP3    H128769   3.404   0.787   7.431
 9608TIP3    H228770   3.422   0.904   7.528
 9609TIP3   OH228771   3.907   1.440   7.299
 9609TIP3    H128772   3.888   1.518   7.352
 9609TIP3    H228773   3.888   1.365   7.359
 9610TIP3   OH228774   3.518   1.384   7.795
 9610TIP3    H128775   3.460   1.452   7.833
 9610TIP3    H228776   3.453   1.316   7.768
 9611TIP3   OH228777   3.848   0.688   6.575
 9611TIP3    H128778   3.905   0.751   6.625
 9611TIP3    H228779   3.876   0.708   6.482
 9612TIP3   OH228780   3.597   1.364   6.853
 9612TIP3    H128781   3.676   1.421   6.861
 9612TIP3    H228782   3.534   1.422   6.809
 9613TIP3   OH228783   3.309   1.566   7.846
 9613TIP3    H128784   3.302   1.575   7.749
 9613TIP3    H228785   3.243   1.497   7.861
 9614TIP3   OH228786   3.113   0.667   6.959
 9614TIP3    H128787   3.043   0.717   6.910
 9614TIP3    H228788   3.061   0.593   6.992
 9615TIP3   OH228789   4.169   1.303   6.175
 9615TIP3    H128790   4.182   1.400   6.165
 9615TIP3    H228791   4.261   1.271   6.164
 9616TIP3   OH228792   2.743   1.253   7.510
 9616TIP3    H128793   2.838   1.245   7.495
 9616TIP3    H228794   2.733   1.339   7.553
 9617TIP3   OH228795   4.604   1.701   7.571
 9617TIP3    H128796   4.606   1.604   7.583
 9617TIP3    H228797   4.520   1.723   7.615
 9618TIP3   OH228798   3.737   1.489   7.689
 9618TIP3    H128799   3.721   1.583   7.712
 9618TIP3    H228800   3.656   1.448   7.728
 9619TIP3   OH228801   3.481   1.616   6.654
 9619TIP3    H128802   3.427   1.597   6.575
 9619TIP3    H228803   3.443   1.700   6.685
 9620TIP3   OH228804   2.914   1.464   7.038
 9620TIP3    H128805   2.958   1.450   7.125
 9620TIP3    H228806   2.860   1.383   7.032
 9621TIP3   OH228807   3.679   1.519   6.291
 9621TIP3    H128808   3.737   1.448   6.256
 9621TIP3    H228809   3.712   1.528   6.383
 9622TIP3   OH228810   3.729   1.565   6.560
 9622TIP3    H128811   3.639   1.576   6.599
 9622TIP3    H228812   3.776   1.523   6.634
 9623TIP3   OH228813   4.495   0.816   7.819
 9623TIP3    H128814   4.412   0.851   7.784
 9623TIP3    H228815   4.470   0.723   7.829
 9624TIP3   OH228816   4.290   0.618   7.790
 9624TIP3    H128817   4.237   0.631   7.870
 9624TIP3    H228818   4.257   0.689   7.731
 9625TIP3   OH228819   3.931   0.726   6.321
 9625TIP3    H128820   3.890   0.709   6.234
 9625TIP3    H228821   4.009   0.778   6.295
 9626TIP3   OH228822   3.426   0.584   7.654
 9626TIP3    H128823   3.437   0.616   7.744
 9626TIP3    H228824   3.417   0.667   7.603
 9627TIP3   OH228825   3.307   0.465   7.192
 9627TIP3    H128826   3.212   0.444   7.204
 9627TIP3    H228827   3.322   0.434   7.100
 9628TIP3   OH228828   3.794   0.554   6.914
 9628TIP3    H128829   3.747   0.627   6.867
 9628TIP3    H228830   3.860   0.527   6.847
 9629TIP3   OH228831   3.939   0.618   7.172
 9629TIP3    H128832   3.881   0.663   7.107
 9629TIP3    H228833   3.962   0.537   7.120
 9630TIP3   OH228834   2.857   0.200   6.985
 9630TIP3    H128835   2.835   0.168   6.897
 9630TIP3    H228836   2.776   0.251   7.007
 9631TIP3   OH228837   3.963   0.827   7.577
 9631TIP3    H128838   4.000   0.756   7.521
 9631TIP3    H228839   3.944   0.776   7.659
 9632TIP3   OH228840   3.058   0.342   7.236
 9632TIP3    H128841   2.966   0.377   7.223
 9632TIP3    H228842   3.047   0.255   7.195
 9633TIP3   OH228843   3.353   0.357   6.947
 9633TIP3    H128844   3.446   0.345   6.918
 9633TIP3    H228845   3.302   0.348   6.864
 9634TIP3   OH228846   3.188   0.341   6.719
 9634TIP3    H128847   3.105   0.389   6.708
 9634TIP3    H228848   3.243   0.382   6.649
 9635TIP3   OH228849   4.302   2.053   7.663
 9635TIP3    H128850   4.300   2.078   7.569
 9635TIP3    H228851   4.381   2.101   7.695
 9636TIP3   OH228852   3.706   0.623   7.340
 9636TIP3    H128853   3.789   0.589   7.306
 9636TIP3    H228854   3.709   0.594   7.434
 9637TIP3   OH228855   3.722   0.553   7.600
 9637TIP3    H128856   3.640   0.506   7.626
 9637TIP3    H228857   3.765   0.568   7.686
 9638TIP3   OH228858   3.434   0.901   6.729
 9638TIP3    H128859   3.360   0.839   6.715
 9638TIP3    H228860   3.413   0.936   6.819
 9639TIP3   OH228861   4.330   1.140   7.355
 9639TIP3    H128862   4.354   1.190   7.274
 9639TIP3    H228863   4.246   1.096   7.328
 9640TIP3   OH228864   3.864   0.281   6.550
 9640TIP3    H128865   3.807   0.234   6.615
 9640TIP3    H228866   3.903   0.349   6.609
 9641TIP3   OH228867   3.847   1.226   7.720
 9641TIP3    H128868   3.825   1.170   7.795
 9641TIP3    H228869   3.794   1.306   7.733
 9642TIP3   OH228870   3.967   0.477   6.709
 9642TIP3    H128871   4.064   0.489   6.719
 9642TIP3    H228872   3.941   0.556   6.657
 9643TIP3   OH228873   3.124   0.939   7.391
 9643TIP3    H128874   3.166   0.895   7.314
 9643TIP3    H228875   3.141   0.877   7.464
 9644TIP3   OH228876   3.577   1.053   6.553
 9644TIP3    H128877   3.528   1.139   6.555
 9644TIP3    H228878   3.521   0.999   6.612
 9645TIP3   OH228879   4.003   1.487   7.627
 9645TIP3    H128880   3.908   1.465   7.630
 9645TIP3    H228881   4.005   1.562   7.687
 9646TIP3   OH228882   4.400   0.552   6.517
 9646TIP3    H128883   4.340   0.503   6.458
 9646TIP3    H228884   4.386   0.643   6.481
 9647TIP3   OH228885   4.620   1.415   7.607
 9647TIP3    H128886   4.522   1.405   7.600
 9647TIP3    H228887   4.646   1.383   7.517
 9648TIP3   OH228888   4.109   1.374   6.444
 9648TIP3    H128889   4.075   1.306   6.503
 9648TIP3    H228890   4.118   1.328   6.359
 9649TIP3   OH228891   4.096   1.004   7.272
 9649TIP3    H128892   4.003   0.975   7.285
 9649TIP3    H228893   4.133   0.925   7.228
 9650TIP3   OH228894   3.227   1.231   7.032
 9650TIP3    H128895   3.221   1.311   6.976
 9650TIP3    H228896   3.133   1.209   7.042
 9651TIP3   OH228897   2.800   0.534   6.737
 9651TIP3    H128898   2.835   0.622   6.761
 9651TIP3    H228899   2.722   0.528   6.796
 9652TIP3   OH228900   3.359   0.995   6.971
 9652TIP3    H128901   3.325   1.084   6.991
 9652TIP3    H228902   3.323   0.943   7.045
 9653TIP3   OH228903   3.499   1.575   7.484
 9653TIP3    H128904   3.539   1.650   7.436
 9653TIP3    H228905   3.575   1.542   7.534
 9654TIP3   OH228906   3.147   1.464   6.884
 9654TIP3    H128907   3.059   1.476   6.926
 9654TIP3    H228908   3.180   1.557   6.884
 9655TIP3   OH228909   3.884   1.207   7.453
 9655TIP3    H128910   3.879   1.206   7.551
 9655TIP3    H228911   3.957   1.146   7.437
 9656TIP3   OH228912   3.860   1.102   6.339
 9656TIP3    H128913   3.912   1.075   6.419
 9656TIP3    H228914   3.771   1.073   6.365
 9657TIP3   OH228915   4.127   1.741   7.507
 9657TIP3    H128916   4.047   1.687   7.491
 9657TIP3    H228917   4.119   1.806   7.433
 9658TIP3   OH228918   4.196   1.579   6.155
 9658TIP3    H128919   4.196   1.626   6.069
 9658TIP3    H228920   4.130   1.632   6.203
 9659TIP3   OH228921   4.020   1.029   6.552
 9659TIP3    H128922   4.009   0.966   6.625
 9659TIP3    H228923   4.118   1.028   6.542
 9660TIP3   OH228924   2.947   1.450   7.645
 9660TIP3    H128925   2.978   1.359   7.656
 9660TIP3    H228926   2.896   1.463   7.727
 9661TIP3   OH228927   3.225   1.079   6.336
 9661TIP3    H128928   3.236   0.985   6.312
 9661TIP3    H228929   3.208   1.071   6.432
 9662TIP3   OH228930   3.177   1.083   6.605
 9662TIP3    H128931   3.237   1.059   6.676
 9662TIP3    H228932   3.172   1.180   6.615
 9663TIP3   OH228933   2.904   0.781   6.820
 9663TIP3    H128934   2.835   0.824   6.875
 9663TIP3    H228935   2.911   0.848   6.748
 9664TIP3   OH228936   3.439   1.286   6.559
 9664TIP3    H128937   3.349   1.302   6.596
 9664TIP3    H228938   3.448   1.364   6.503
 9665TIP3   OH228939   3.636   0.334   6.934
 9665TIP3    H128940   3.688   0.417   6.932
 9665TIP3    H228941   3.644   0.308   7.027
 9666TIP3   OH228942   3.917   0.684   7.807
 9666TIP3    H128943   3.927   0.742   7.886
 9666TIP3    H228944   3.935   0.598   7.846
 9667TIP3   OH228945   3.183   1.352   6.633
 9667TIP3    H128946   3.153   1.421   6.569
 9667TIP3    H228947   3.163   1.396   6.718
 9668TIP3   OH228948   4.185   0.763   7.153
 9668TIP3    H128949   4.105   0.711   7.174
 9668TIP3    H228950   4.255   0.713   7.201
 9669TIP3   OH228951   2.892   0.981   6.623
 9669TIP3    H128952   2.938   1.067   6.621
 9669TIP3    H228953   2.945   0.932   6.556
 9670TIP3   OH228954   4.153   1.717   7.100
 9670TIP3    H128955   4.109   1.762   7.024
 9670TIP3    H228956   4.247   1.735   7.078
 9671TIP3   OH228957   2.766   1.200   7.005
 9671TIP3    H128958   2.701   1.227   7.071
 9671TIP3    H228959   2.729   1.245   6.924
 9672TIP3   OH228960   3.387   1.281   6.248
 9672TIP3    H128961   3.329   1.211   6.287
 9672TIP3    H228962   3.463   1.227   6.221
 9673TIP3   OH228963   4.053   1.600   7.891
 9673TIP3    H128964   4.099   1.524   7.852
 9673TIP3    H228965   4.128   1.661   7.906
 9674TIP3   OH228966   3.821   1.319   6.165
 9674TIP3    H128967   3.861   1.253   6.224
 9674TIP3    H228968   3.879   1.315   6.086
 9675TIP3   OH228969   3.036   0.800   6.474
 9675TIP3    H128970   3.093   0.776   6.550
 9675TIP3    H228971   3.103   0.803   6.402
 9676TIP3   OH228972   3.552   1.002   6.283
 9676TIP3    H128973   3.549   1.014   6.380
 9676TIP3    H228974   3.551   0.904   6.276
 9677TIP3   OH228975   4.161   1.247   7.671
 9677TIP3    H128976   4.233   1.288   7.620
 9677TIP3    H228977   4.086   1.305   7.648
 9678TIP3   OH228978   3.237   0.709   6.695
 9678TIP3    H128979   3.211   0.675   6.782
 9678TIP3    H228980   3.275   0.630   6.651
 9679TIP3   OH228981   3.338   0.493   6.540
 9679TIP3    H128982   3.314   0.507   6.446
 9679TIP3    H228983   3.436   0.500   6.534
 9680TIP3   OH228984   4.161   0.826   6.200
 9680TIP3    H128985   4.139   0.785   6.113
 9680TIP3    H228986   4.129   0.918   6.181
 9681TIP3   OH228987   3.661   0.896   7.757
 9681TIP3    H128988   3.740   0.868   7.710
 9681TIP3    H228989   3.617   0.954   7.690
 9682TIP3   OH228990   4.294   1.102   7.856
 9682TIP3    H128991   4.232   1.152   7.797
 9682TIP3    H228992   4.379   1.119   7.809
 9683TIP3   OH228993   3.152   1.556   6.451
 9683TIP3    H128994   3.242   1.559   6.414
 9683TIP3    H228995   3.102   1.602   6.381
 9684TIP3   OH228996   2.626   0.940   6.664
 9684TIP3    H128997   2.719   0.963   6.644
 9684TIP3    H228998   2.618   0.855   6.615
 9685TIP3   OH228999   2.543   1.555   7.074
 9685TIP3    H129000   2.479   1.495   7.031
 9685TIP3    H229001   2.588   1.493   7.136
 9686TIP3   OH229002   2.679   1.399   7.257
 9686TIP3    H129003   2.663   1.328   7.322
 9686TIP3    H229004   2.737   1.458   7.308
 9687TIP3   OH229005   4.409   1.804   7.060
 9687TIP3    H129006   4.432   1.834   7.149
 9687TIP3    H229007   4.470   1.854   7.005
 9688TIP3   OH229008   4.433   1.824   7.342
 9688TIP3    H129009   4.389   1.736   7.337
 9688TIP3    H229010   4.511   1.800   7.394
 9689TIP3   OH229011   4.483   1.507   7.894
 9689TIP3    H129012   4.417   1.503   7.964
 9689TIP3    H229013   4.527   1.592   7.909
 9690TIP3   OH229014   4.297   1.011   6.531
 9690TIP3    H129015   4.364   1.076   6.500
 9690TIP3    H229016   4.342   0.976   6.611
 9691TIP3   OH229017   4.424   0.886   6.736
 9691TIP3    H129018   4.357   0.847   6.797
 9691TIP3    H229019   4.490   0.925   6.798
 9692TIP3   OH229020   4.482   1.277   7.168
 9692TIP3    H129021   4.536   1.207   7.124
 9692TIP3    H229022   4.475   1.345   7.098
 9693TIP3   OH229023   4.308   1.576   7.361
 9693TIP3    H129024   4.233   1.613   7.411
 9693TIP3    H229025   4.263   1.528   7.288
 9694TIP3   OH229026   4.357   0.787   6.382
 9694TIP3    H129027   4.287   0.798   6.313
 9694TIP3    H229028   4.333   0.864   6.439
 9695TIP3   OH229029   4.226   0.448   6.323
 9695TIP3    H129030   4.207   0.529   6.275
 9695TIP3    H229031   4.176   0.383   6.272
 9696TIP3   OH229032   4.236   0.754   6.880
 9696TIP3    H129033   4.240   0.659   6.857
 9696TIP3    H229034   4.224   0.753   6.978
 9697TIP3   OH229035   2.862   0.857   7.608
 9697TIP3    H129036   2.852   0.810   7.523
 9697TIP3    H229037   2.954   0.835   7.632
 9698TIP3   OH229038   4.529   1.164   7.730
 9698TIP3    H129039   4.598   1.094   7.724
 9698TIP3    H229040   4.561   1.230   7.667
 9699TIP3   OH229041   4.709   0.968   7.745
 9699TIP3    H129042   4.636   0.914   7.785
 9699TIP3    H229043   4.784   0.909   7.766
 9700TIP3   OH229044   4.238   0.502   6.750
 9700TIP3    H129045   4.267   0.423   6.802
 9700TIP3    H229046   4.302   0.502   6.676
 9701TIP3   OH229047   4.392   0.631   7.276
 9701TIP3    H129048   4.478   0.654   7.235
 9701TIP3    H229049   4.407   0.668   7.366
 9702TIP3   OH229050   4.458   0.780   7.499
 9702TIP3    H129051   4.385   0.815   7.554
 9702TIP3    H229052   4.494   0.862   7.458
 9703TIP3   OH229053   3.992   1.670   6.716
 9703TIP3    H129054   4.043   1.662   6.633
 9703TIP3    H229055   4.040   1.741   6.762
 9704TIP3   OH229056   3.266   1.481   7.591
 9704TIP3    H129057   3.208   1.552   7.557
 9704TIP3    H229058   3.351   1.508   7.550
 9705TIP3   OH229059   3.698   1.750   7.754
 9705TIP3    H129060   3.727   1.757   7.847
 9705TIP3    H229061   3.765   1.806   7.709
 9706TIP3   OH229062   3.890   1.902   7.640
 9706TIP3    H129063   3.961   1.864   7.587
 9706TIP3    H229064   3.942   1.962   7.699
 9707TIP3   OH229065   2.946   1.784   7.656
 9707TIP3    H129066   2.858   1.819   7.631
 9707TIP3    H229067   2.933   1.768   7.750
 9708TIP3   OH229068   3.185   1.741   7.525
 9708TIP3    H129069   3.099   1.756   7.571
 9708TIP3    H229070   3.164   1.776   7.436
 9709TIP3   OH229071   3.609   1.772   7.326
 9709TIP3    H129072   3.537   1.787   7.262
 9709TIP3    H229073   3.618   1.861   7.366
 9710TIP3   OH229074   3.876   1.710   7.383
 9710TIP3    H129075   3.782   1.726   7.362
 9710TIP3    H229076   3.919   1.781   7.333
 9711TIP3   OH229077   4.084   1.902   7.293
 9711TIP3    H129078   4.069   1.986   7.245
 9711TIP3    H229079   4.109   1.842   7.219
 9712TIP3   OH229080   2.856   1.558   7.408
 9712TIP3    H129081   2.891   1.540   7.499
 9712TIP3    H229082   2.928   1.516   7.356
 9713TIP3   OH229083   3.051   1.430   7.274
 9713TIP3    H129084   3.067   1.348   7.326
 9713TIP3    H229085   3.142   1.465   7.267
 9714TIP3   OH229086   3.317   1.523   7.274
 9714TIP3    H129087   3.346   1.430   7.263
 9714TIP3    H229088   3.371   1.547   7.352
 9715TIP3   OH229089   2.641   1.339   6.813
 9715TIP3    H129090   2.558   1.302   6.778
 9715TIP3    H229091   2.639   1.425   6.768
 9716TIP3   OH229092   3.420   1.516   6.386
 9716TIP3    H129093   3.508   1.538   6.348
 9716TIP3    H229094   3.396   1.441   6.327
 9717TIP3   OH229095   4.140   1.640   6.484
 9717TIP3    H129096   4.133   1.542   6.473
 9717TIP3    H229097   4.089   1.670   6.406
 9718TIP3   OH229098   2.705   1.317   6.450
 9718TIP3    H129099   2.699   1.407   6.485
 9718TIP3    H229100   2.799   1.310   6.428
 9719TIP3   OH229101   4.352   1.782   7.670
 9719TIP3    H129102   4.279   1.755   7.610
 9719TIP3    H229103   4.339   1.880   7.669
 9720TIP3   OH229104   5.629   1.150   6.423
 9720TIP3    H129105   5.608   1.244   6.406
 9720TIP3    H229106   5.540   1.113   6.426
 9721TIP3   OH229107   5.627   1.152   6.819
 9721TIP3    H129108   5.661   1.136   6.909
 9721TIP3    H229109   5.583   1.068   6.799
 9722TIP3   OH229110   4.922   1.048   7.179
 9722TIP3    H129111   4.952   0.977   7.239
 9722TIP3    H229112   5.003   1.101   7.173
 9723TIP3   OH229113   5.870   1.458   6.502
 9723TIP3    H129114   5.861   1.392   6.572
 9723TIP3    H229115   5.903   1.535   6.552
 9724TIP3   OH229116   4.896   1.462   6.896
 9724TIP3    H129117   4.889   1.364   6.900
 9724TIP3    H229118   4.993   1.472   6.896
 9725TIP3   OH229119   4.594   0.673   6.702
 9725TIP3    H129120   4.538   0.752   6.714
 9725TIP3    H229121   4.535   0.618   6.648
 9726TIP3   OH229122   4.656   0.960   6.863
 9726TIP3    H129123   4.697   0.876   6.895
 9726TIP3    H229124   4.723   0.992   6.801
 9727TIP3   OH229125   5.522   1.917   6.515
 9727TIP3    H129126   5.564   1.846   6.463
 9727TIP3    H229127   5.517   1.878   6.603
 9728TIP3   OH229128   5.425   1.381   6.865
 9728TIP3    H129129   5.466   1.304   6.823
 9728TIP3    H229130   5.507   1.429   6.891
 9729TIP3   OH229131   5.846   0.882   6.912
 9729TIP3    H129132   5.863   0.791   6.941
 9729TIP3    H229133   5.807   0.869   6.824
 9730TIP3   OH229134   5.166   0.497   6.824
 9730TIP3    H129135   5.140   0.588   6.799
 9730TIP3    H229136   5.082   0.451   6.816
 9731TIP3   OH229137   5.833   0.656   6.536
 9731TIP3    H129138   5.886   0.610   6.605
 9731TIP3    H229139   5.895   0.649   6.462
 9732TIP3   OH229140   4.787   0.742   6.958
 9732TIP3    H129141   4.879   0.746   6.992
 9732TIP3    H229142   4.801   0.679   6.885
 9733TIP3   OH229143   5.246   0.943   6.764
 9733TIP3    H129144   5.339   0.917   6.781
 9733TIP3    H229145   5.206   0.857   6.740
 9734TIP3   OH229146   6.472   0.890   7.068
 9734TIP3    H129147   6.401   0.946   7.032
 9734TIP3    H229148   6.537   0.954   7.100
 9735TIP3   OH229149   5.517   1.376   6.297
 9735TIP3    H129150   5.473   1.368   6.211
 9735TIP3    H229151   5.472   1.457   6.331
 9736TIP3   OH229152   5.280   1.300   7.087
 9736TIP3    H129153   5.220   1.368   7.125
 9736TIP3    H229154   5.322   1.349   7.014
 9737TIP3   OH229155   5.045   0.709   7.023
 9737TIP3    H129156   5.112   0.755   7.077
 9737TIP3    H229157   5.071   0.617   7.040
 9738TIP3   OH229158   5.108   1.497   7.188
 9738TIP3    H129159   5.083   1.585   7.153
 9738TIP3    H229160   5.030   1.478   7.243
 9739TIP3   OH229161   4.497   1.172   6.422
 9739TIP3    H129162   4.457   1.202   6.337
 9739TIP3    H229163   4.520   1.259   6.462
 9740TIP3   OH229164   5.938   1.701   6.660
 9740TIP3    H129165   5.849   1.693   6.701
 9740TIP3    H229166   5.931   1.788   6.617
 9741TIP3   OH229167   5.639   1.743   6.333
 9741TIP3    H129168   5.691   1.661   6.314
 9741TIP3    H229169   5.701   1.810   6.295
 9742TIP3   OH229170   5.786   1.525   6.248
 9742TIP3    H129171   5.735   1.448   6.222
 9742TIP3    H229172   5.825   1.495   6.333
 9743TIP3   OH229173   6.165   1.611   7.009
 9743TIP3    H129174   6.154   1.534   6.949
 9743TIP3    H229175   6.147   1.686   6.948
 9744TIP3   OH229176   5.459   0.993   6.224
 9744TIP3    H129177   5.373   1.038   6.234
 9744TIP3    H229178   5.508   1.061   6.176
 9745TIP3   OH229179   5.424   0.779   5.976
 9745TIP3    H129180   5.444   0.822   6.061
 9745TIP3    H229181   5.486   0.702   5.982
 9746TIP3   OH229182   6.360   1.250   6.852
 9746TIP3    H129183   6.277   1.303   6.854
 9746TIP3    H229184   6.394   1.275   6.763
 9747TIP3   OH229185   5.802   1.064   6.228
 9747TIP3    H129186   5.745   1.094   6.303
 9747TIP3    H229187   5.888   1.055   6.274
 9748TIP3   OH229188   6.039   1.127   7.157
 9748TIP3    H129189   6.036   1.209   7.211
 9748TIP3    H229190   5.953   1.133   7.112
 9749TIP3   OH229191   5.038   1.085   6.653
 9749TIP3    H129192   4.999   1.025   6.587
 9749TIP3    H229193   5.114   1.032   6.686
 9750TIP3   OH229194   5.169   1.499   6.802
 9750TIP3    H129195   5.151   1.460   6.715
 9750TIP3    H229196   5.258   1.462   6.821
 9751TIP3   OH229197   5.176   1.054   7.015
 9751TIP3    H129198   5.206   1.028   6.925
 9751TIP3    H229199   5.220   1.141   7.028
 9752TIP3   OH229200   5.699   1.695   6.785
 9752TIP3    H129201   5.687   1.776   6.838
 9752TIP3    H229202   5.683   1.624   6.850
 9753TIP3   OH229203   5.314   1.614   7.332
 9753TIP3    H129204   5.252   1.675   7.379
 9753TIP3    H229205   5.250   1.560   7.282
 9754TIP3   OH229206   5.059   1.180   7.429
 9754TIP3    H129207   5.065   1.263   7.480
 9754TIP3    H229208   4.967   1.154   7.448
 9755TIP3   OH229209   5.391   1.624   6.338
 9755TIP3    H129210   5.474   1.675   6.347
 9755TIP3    H229211   5.333   1.687   6.294
 9756TIP3   OH229212   5.106   1.780   7.420
 9756TIP3    H129213   5.072   1.782   7.328
 9756TIP3    H229214   5.025   1.760   7.472
 9757TIP3   OH229215   4.907   0.927   6.453
 9757TIP3    H129216   4.837   0.972   6.402
 9757TIP3    H229217   4.866   0.842   6.472
 9758TIP3   OH229218   5.961   1.551   5.659
 9758TIP3    H129219   5.968   1.648   5.646
 9758TIP3    H229220   6.055   1.525   5.648
 9759TIP3   OH229221   4.686   1.313   7.366
 9759TIP3    H129222   4.619   1.290   7.298
 9759TIP3    H229223   4.725   1.226   7.387
 9760TIP3   OH229224   4.540   1.510   6.992
 9760TIP3    H129225   4.636   1.498   6.989
 9760TIP3    H229226   4.532   1.585   7.053
 9761TIP3   OH229227   6.404   1.960   7.058
 9761TIP3    H129228   6.403   1.863   7.072
 9761TIP3    H229229   6.320   1.984   7.103
 9762TIP3   OH229230   5.509   1.743   7.189
 9762TIP3    H129231   5.505   1.836   7.222
 9762TIP3    H229232   5.438   1.702   7.243
 9763TIP3   OH229233   5.272   1.866   6.148
 9763TIP3    H129234   5.229   1.847   6.062
 9763TIP3    H229235   5.241   1.956   6.168
 9764TIP3   OH229236   4.687   1.704   6.538
 9764TIP3    H129237   4.760   1.700   6.604
 9764TIP3    H229238   4.620   1.655   6.590
 9765TIP3   OH229239   5.474   1.775   5.777
 9765TIP3    H129240   5.533   1.704   5.743
 9765TIP3    H229241   5.507   1.787   5.869
 9766TIP3   OH229242   5.522   1.822   6.048
 9766TIP3    H129243   5.433   1.830   6.089
 9766TIP3    H229244   5.574   1.790   6.124
 9767TIP3   OH229245   6.290   1.070   7.316
 9767TIP3    H129246   6.208   1.101   7.275
 9767TIP3    H229247   6.278   0.974   7.314
 9768TIP3   OH229248   4.889   1.498   7.352
 9768TIP3    H129249   4.940   1.479   7.433
 9768TIP3    H229250   4.816   1.432   7.359
 9769TIP3   OH229251   6.064   0.869   7.276
 9769TIP3    H129252   6.033   0.903   7.360
 9769TIP3    H229253   6.047   0.943   7.215
 9770TIP3   OH229254   5.239   0.840   7.175
 9770TIP3    H129255   5.178   0.859   7.249
 9770TIP3    H229256   5.225   0.919   7.119
 9771TIP3   OH229257   5.103   0.724   6.679
 9771TIP3    H129258   5.009   0.700   6.691
 9771TIP3    H229259   5.119   0.691   6.588
 9772TIP3   OH229260   5.584   0.818   6.400
 9772TIP3    H129261   5.539   0.884   6.344
 9772TIP3    H229262   5.654   0.788   6.340
 9773TIP3   OH229263   5.780   1.113   7.471
 9773TIP3    H129264   5.755   1.033   7.523
 9773TIP3    H229265   5.875   1.122   7.496
 9774TIP3   OH229266   5.732   0.876   6.661
 9774TIP3    H129267   5.677   0.921   6.595
 9774TIP3    H229268   5.757   0.795   6.609
 9775TIP3   OH229269   5.039   0.868   7.366
 9775TIP3    H129270   5.060   0.931   7.437
 9775TIP3    H229271   5.021   0.786   7.414
 9776TIP3   OH229272   4.674   0.479   6.503
 9776TIP3    H129273   4.690   0.478   6.407
 9776TIP3    H229274   4.579   0.500   6.504
 9777TIP3   OH229275   5.753   1.086   7.059
 9777TIP3    H129276   5.794   1.015   7.004
 9777TIP3    H229277   5.731   1.032   7.138
 9778TIP3   OH229278   4.853   0.597   6.721
 9778TIP3    H129279   4.761   0.632   6.707
 9778TIP3    H229280   4.845   0.516   6.669
 9779TIP3   OH229281   5.147   0.619   6.430
 9779TIP3    H129282   5.236   0.601   6.396
 9779TIP3    H229283   5.090   0.608   6.351
 9780TIP3   OH229284   4.984   0.597   6.204
 9780TIP3    H129285   4.908   0.584   6.145
 9780TIP3    H229286   5.042   0.646   6.142
 9781TIP3   OH229287   6.098   2.307   7.155
 9781TIP3    H129288   6.094   2.333   7.061
 9781TIP3    H229289   6.176   2.357   7.186
 9782TIP3   OH229290   5.052   1.423   7.574
 9782TIP3    H129291   5.133   1.447   7.623
 9782TIP3    H229292   4.989   1.414   7.648
 9783TIP3   OH229293   5.501   0.875   6.831
 9783TIP3    H129294   5.587   0.846   6.795
 9783TIP3    H229295   5.505   0.841   6.924
 9784TIP3   OH229296   5.513   0.805   7.091
 9784TIP3    H129297   5.424   0.797   7.130
 9784TIP3    H229298   5.564   0.847   7.163
 9785TIP3   OH229299   5.232   1.152   6.219
 9785TIP3    H129300   5.156   1.091   6.205
 9785TIP3    H229301   5.210   1.189   6.308
 9786TIP3   OH229302   6.127   1.396   6.841
 9786TIP3    H129303   6.153   1.447   6.760
 9786TIP3    H229304   6.042   1.355   6.813
 9787TIP3   OH229305   5.609   0.591   6.025
 9787TIP3    H129306   5.578   0.510   6.070
 9787TIP3    H229307   5.669   0.631   6.091
 9788TIP3   OH229308   5.623   1.476   7.212
 9788TIP3    H129309   5.658   1.458   7.300
 9788TIP3    H229310   5.589   1.567   7.220
 9789TIP3   OH229311   5.761   0.765   6.193
 9789TIP3    H129312   5.855   0.741   6.204
 9789TIP3    H229313   5.770   0.861   6.182
 9790TIP3   OH229314   4.923   1.184   6.889
 9790TIP3    H129315   4.962   1.153   6.804
 9790TIP3    H229316   4.964   1.124   6.953
 9791TIP3   OH229317   5.375   1.308   6.043
 9791TIP3    H129318   5.325   1.393   6.043
 9791TIP3    H229319   5.319   1.254   6.103
 9792TIP3   OH229320   4.803   1.101   7.504
 9792TIP3    H129321   4.820   1.087   7.599
 9792TIP3    H229322   4.732   1.037   7.487
 9793TIP3   OH229323   5.529   1.221   7.527
 9793TIP3    H129324   5.467   1.165   7.478
 9793TIP3    H229325   5.616   1.191   7.493
 9794TIP3   OH229326   5.785   1.734   7.111
 9794TIP3    H129327   5.689   1.736   7.124
 9794TIP3    H229328   5.815   1.788   7.188
 9795TIP3   OH229329   6.208   0.808   6.007
 9795TIP3    H129330   6.166   0.747   5.946
 9795TIP3    H229331   6.186   0.895   5.966
 9796TIP3   OH229332   6.415   1.669   7.096
 9796TIP3    H129333   6.318   1.662   7.087
 9796TIP3    H229334   6.442   1.640   7.006
 9797TIP3   OH229335   5.897   1.630   5.925
 9797TIP3    H129336   5.872   1.562   5.988
 9797TIP3    H229337   5.912   1.580   5.842
 9798TIP3   OH229338   5.892   1.262   6.755
 9798TIP3    H129339   5.800   1.235   6.771
 9798TIP3    H229340   5.928   1.182   6.713
 9799TIP3   OH229341   5.029   1.485   6.515
 9799TIP3    H129342   5.027   1.566   6.460
 9799TIP3    H229343   4.935   1.469   6.529
 9800TIP3   OH229344   4.584   0.788   6.224
 9800TIP3    H129345   4.630   0.873   6.243
 9800TIP3    H229346   4.508   0.795   6.285
 9801TIP3   OH229347   5.158   1.247   6.459
 9801TIP3    H129348   5.125   1.337   6.478
 9801TIP3    H229349   5.121   1.197   6.534
 9802TIP3   OH229350   5.292   1.828   6.983
 9802TIP3    H129351   5.335   1.901   6.932
 9802TIP3    H229352   5.369   1.792   7.030
 9803TIP3   OH229353   4.944   1.723   6.371
 9803TIP3    H129354   4.857   1.739   6.409
 9803TIP3    H229355   4.981   1.814   6.371
 9804TIP3   OH229356   5.676   1.462   6.945
 9804TIP3    H129357   5.664   1.461   7.042
 9804TIP3    H229358   5.759   1.413   6.935
 9805TIP3   OH229359   5.656   1.346   5.826
 9805TIP3    H129360   5.705   1.324   5.908
 9805TIP3    H229361   5.564   1.334   5.855
 9806TIP3   OH229362   5.927   1.994   6.992
 9806TIP3    H129363   5.846   1.940   6.985
 9806TIP3    H229364   5.912   2.059   6.920
 9807TIP3   OH229365   5.992   1.828   5.645
 9807TIP3    H129366   6.028   1.901   5.593
 9807TIP3    H229367   5.913   1.873   5.681
 9808TIP3   OH229368   5.815   1.273   6.038
 9808TIP3    H129369   5.804   1.206   6.108
 9808TIP3    H229370   5.913   1.279   6.034
 9809TIP3   OH229371   4.729   1.689   7.142
 9809TIP3    H129372   4.783   1.618   7.180
 9809TIP3    H229373   4.758   1.765   7.194
 9810TIP3   OH229374   5.029   1.330   5.828
 9810TIP3    H129375   5.033   1.236   5.804
 9810TIP3    H229376   4.999   1.326   5.921
 9811TIP3   OH229377   4.964   1.348   6.098
 9811TIP3    H129378   5.038   1.326   6.157
 9811TIP3    H229379   4.965   1.446   6.101
 9812TIP3   OH229380   4.700   1.033   6.302
 9812TIP3    H129381   4.632   1.076   6.358
 9812TIP3    H229382   4.713   1.102   6.234
 9813TIP3   OH229383   5.230   1.537   6.046
 9813TIP3    H129384   5.142   1.565   6.079
 9813TIP3    H229385   5.250   1.614   5.990
 9814TIP3   OH229386   5.438   0.587   6.418
 9814TIP3    H129387   5.485   0.673   6.421
 9814TIP3    H229388   5.435   0.562   6.511
 9815TIP3   OH229389   5.704   0.923   7.271
 9815TIP3    H129390   5.699   0.985   7.346
 9815TIP3    H229391   5.753   0.850   7.311
 9816TIP3   OH229392   4.973   1.624   6.108
 9816TIP3    H129393   4.913   1.680   6.057
 9816TIP3    H229394   4.963   1.663   6.197
 9817TIP3   OH229395   5.980   1.019   6.640
 9817TIP3    H129396   5.902   0.968   6.665
 9817TIP3    H229397   6.052   0.972   6.688
 9818TIP3   OH229398   4.693   1.238   6.106
 9818TIP3    H129399   4.758   1.311   6.105
 9818TIP3    H229400   4.735   1.180   6.039
 9819TIP3   OH229401   4.640   0.518   6.227
 9819TIP3    H129402   4.630   0.615   6.223
 9819TIP3    H229403   4.550   0.487   6.210
 9820TIP3   OH229404   5.949   1.970   6.585
 9820TIP3    H129405   5.906   2.017   6.509
 9820TIP3    H229406   6.043   1.989   6.565
 9821TIP3   OH229407   4.542   1.429   6.494
 9821TIP3    H129408   4.472   1.480   6.537
 9821TIP3    H229409   4.580   1.492   6.431
 9822TIP3   OH229410   4.723   2.004   7.571
 9822TIP3    H129411   4.811   2.004   7.615
 9822TIP3    H229412   4.707   1.908   7.564
 9823TIP3   OH229413   5.196   1.960   7.611
 9823TIP3    H129414   5.291   1.944   7.619
 9823TIP3    H229415   5.173   1.899   7.539
 9824TIP3   OH229416   5.180   1.538   5.733
 9824TIP3    H129417   5.127   1.466   5.774
 9824TIP3    H229418   5.256   1.489   5.700
 9825TIP3   OH229419   5.839   1.871   7.345
 9825TIP3    H129420   5.832   1.802   7.414
 9825TIP3    H229421   5.916   1.923   7.374
 9826TIP3   OH229422   5.619   1.577   5.650
 9826TIP3    H129423   5.670   1.519   5.709
 9826TIP3    H229424   5.672   1.577   5.568
 9827TIP3   OH229425   4.849   1.408   7.764
 9827TIP3    H129426   4.868   1.312   7.774
 9827TIP3    H229427   4.764   1.406   7.716
 9828TIP3   OH229428   4.827   1.052   5.961
 9828TIP3    H129429   4.884   1.025   6.035
 9828TIP3    H229430   4.894   1.059   5.890
 9829TIP3   OH229431   5.456   1.495   7.541
 9829TIP3    H129432   5.417   1.512   7.454
 9829TIP3    H229433   5.487   1.402   7.533
 9830TIP3   OH229434   5.350   1.259   5.771
 9830TIP3    H129435   5.342   1.272   5.867
 9830TIP3    H229436   5.347   1.161   5.766
 9831TIP3   OH229437   5.948   1.505   7.146
 9831TIP3    H129438   6.026   1.545   7.103
 9831TIP3    H229439   5.881   1.574   7.131
 9832TIP3   OH229440   4.971   1.150   7.744
 9832TIP3    H129441   5.039   1.083   7.729
 9832TIP3    H229442   4.997   1.179   7.834
 9833TIP3   OH229443   5.034   0.962   6.184
 9833TIP3    H129444   5.007   0.925   6.270
 9833TIP3    H229445   5.068   0.884   6.136
 9834TIP3   OH229446   5.304   1.056   7.409
 9834TIP3    H129447   5.221   1.108   7.403
 9834TIP3    H229448   5.352   1.083   7.327
 9835TIP3   OH229449   5.132   0.757   6.024
 9835TIP3    H129450   5.098   0.760   5.932
 9835TIP3    H229451   5.228   0.762   6.007
 9836TIP3   OH229452   5.825   1.430   7.543
 9836TIP3    H129453   5.899   1.395   7.492
 9836TIP3    H229454   5.812   1.361   7.610
 9837TIP3   OH229455   5.922   1.055   5.693
 9837TIP3    H129456   5.943   1.049   5.597
 9837TIP3    H229457   5.901   1.153   5.695
 9838TIP3   OH229458   5.392   0.831   7.527
 9838TIP3    H129459   5.343   0.772   7.466
 9838TIP3    H229460   5.365   0.919   7.490
 9839TIP3   OH229461   5.466   1.141   7.211
 9839TIP3    H129462   5.549   1.150   7.162
 9839TIP3    H229463   5.408   1.205   7.165
 9840TIP3   OH229464   6.035   1.111   7.576
 9840TIP3    H129465   6.067   1.044   7.641
 9840TIP3    H229466   6.119   1.152   7.550
 9841TIP3   OH229467   6.080   1.355   7.329
 9841TIP3    H129468   6.022   1.411   7.272
 9841TIP3    H229469   6.168   1.378   7.290
 9842TIP3   OH229470   5.279   0.958   7.755
 9842TIP3    H129471   5.221   0.893   7.797
 9842TIP3    H229472   5.331   0.905   7.692
 9843TIP3   OH229473   5.669   0.888   7.566
 9843TIP3    H129474   5.695   0.852   7.654
 9843TIP3    H229475   5.573   0.876   7.569
 9844TIP3   OH229476   4.425   1.197   6.146
 9844TIP3    H129477   4.519   1.220   6.129
 9844TIP3    H229478   4.418   1.110   6.102
 9845TIP3   OH229479   4.352   1.796   6.546
 9845TIP3    H129480   4.278   1.741   6.513
 9845TIP3    H229481   4.387   1.738   6.617
 9846TIP3   OH229482   4.487   1.653   6.740
 9846TIP3    H129483   4.466   1.583   6.805
 9846TIP3    H229484   4.533   1.716   6.801
 9847TIP3   OH229485   6.205   2.057   6.547
 9847TIP3    H129486   6.228   2.093   6.634
 9847TIP3    H229487   6.264   2.106   6.488
 9848TIP3   OH229488   6.229   2.080   6.829
 9848TIP3    H129489   6.186   1.992   6.824
 9848TIP3    H229490   6.305   2.058   6.884
 9849TIP3   OH229491   6.277   1.760   7.401
 9849TIP3    H129492   6.203   1.770   7.464
 9849TIP3    H229493   6.320   1.848   7.405
 9850TIP3   OH229494   6.096   1.266   6.013
 9850TIP3    H129495   6.160   1.334   5.985
 9850TIP3    H229496   6.140   1.233   6.095
 9851TIP3   OH229497   6.219   1.141   6.221
 9851TIP3    H129498   6.154   1.104   6.285
 9851TIP3    H229499   6.287   1.182   6.280
 9852TIP3   OH229500   6.277   1.531   6.653
 9852TIP3    H129501   6.332   1.464   6.607
 9852TIP3    H229502   6.276   1.605   6.588
 9853TIP3   OH229503   6.105   1.830   6.849
 9853TIP3    H129504   6.033   1.873   6.899
 9853TIP3    H229505   6.055   1.785   6.777
 9854TIP3   OH229506   6.146   1.037   5.869
 9854TIP3    H129507   6.077   1.053   5.801
 9854TIP3    H229508   6.128   1.113   5.929
 9855TIP3   OH229509   6.032   1.008   6.370
 9855TIP3    H129510   6.041   0.912   6.358
 9855TIP3    H229511   6.018   1.016   6.467
 9856TIP3   OH229512   4.659   1.072   7.117
 9856TIP3    H129513   4.656   1.040   7.024
 9856TIP3    H229514   4.756   1.071   7.133
 9857TIP3   OH229515   6.324   1.420   7.220
 9857TIP3    H129516   6.396   1.353   7.215
 9857TIP3    H229517   6.354   1.488   7.157
 9858TIP3   OH229518   6.506   1.223   7.249
 9858TIP3    H129519   6.432   1.165   7.279
 9858TIP3    H229520   6.581   1.161   7.259
 9859TIP3   OH229521   6.031   0.745   6.224
 9859TIP3    H129522   6.058   0.671   6.282
 9859TIP3    H229523   6.106   0.752   6.162
 9860TIP3   OH229524   6.187   0.890   6.764
 9860TIP3    H129525   6.274   0.912   6.723
 9860TIP3    H229526   6.203   0.925   6.854
 9861TIP3   OH229527   6.254   1.037   6.989
 9861TIP3    H129528   6.179   1.075   7.039
 9861TIP3    H229529   6.290   1.117   6.943
 9862TIP3   OH229530   4.873   0.753   7.774
 9862TIP3    H129531   4.967   0.758   7.797
 9862TIP3    H229532   4.848   0.665   7.806
 9863TIP3   OH229533   4.637   0.720   7.191
 9863TIP3    H129534   4.684   0.725   7.106
 9863TIP3    H229535   4.670   0.798   7.237
 9864TIP3   OH229536   5.785   1.927   6.201
 9864TIP3    H129537   5.839   1.920   6.120
 9864TIP3    H229538   5.833   1.995   6.251
 9865TIP3   OH229539   4.884   1.740   7.584
 9865TIP3    H129540   4.793   1.707   7.569
 9865TIP3    H229541   4.902   1.709   7.674
 9866TIP3   OH229542   5.066   1.768   7.133
 9866TIP3    H129543   5.021   1.845   7.094
 9866TIP3    H229544   5.153   1.779   7.089
 9867TIP3   OH229545   5.505   2.010   7.271
 9867TIP3    H129546   5.548   2.008   7.359
 9867TIP3    H229547   5.572   2.061   7.220
 9868TIP3   OH229548   5.686   2.163   7.133
 9868TIP3    H129549   5.757   2.114   7.089
 9868TIP3    H229550   5.739   2.220   7.193
 9869TIP3   OH229551   4.738   2.019   7.159
 9869TIP3    H129552   4.648   2.052   7.138
 9869TIP3    H229553   4.755   2.068   7.240
 9870TIP3   OH229554   4.976   2.000   7.017
 9870TIP3    H129555   4.888   2.012   7.059
 9870TIP3    H229556   4.959   2.034   6.927
 9871TIP3   OH229557   5.402   2.027   6.815
 9871TIP3    H129558   5.336   2.047   6.747
 9871TIP3    H229559   5.415   2.115   6.856
 9872TIP3   OH229560   5.672   1.965   6.867
 9872TIP3    H129561   5.579   1.985   6.847
 9872TIP3    H229562   5.718   2.038   6.822
 9873TIP3   OH229563   5.873   2.154   6.778
 9873TIP3    H129564   5.862   2.240   6.732
 9873TIP3    H229565   5.903   2.096   6.704
 9874TIP3   OH229566   4.656   1.815   6.897
 9874TIP3    H129567   4.678   1.787   6.989
 9874TIP3    H229568   4.730   1.770   6.849
 9875TIP3   OH229569   4.850   1.688   6.750
 9875TIP3    H129570   4.863   1.603   6.800
 9875TIP3    H229571   4.941   1.724   6.751
 9876TIP3   OH229572   5.112   1.777   6.768
 9876TIP3    H129573   5.144   1.685   6.760
 9876TIP3    H229574   5.161   1.803   6.849
 9877TIP3   OH229575   5.222   1.770   5.888
 9877TIP3    H129576   5.306   1.786   5.841
 9877TIP3    H229577   5.180   1.707   5.826
 9878TIP3   OH229578   5.933   1.897   5.969
 9878TIP3    H129579   5.924   1.799   5.958
 9878TIP3    H229580   5.886   1.929   5.890
 9879TIP3   OH229581   4.520   1.605   5.934
 9879TIP3    H129582   4.565   1.688   5.962
 9879TIP3    H229583   4.599   1.548   5.924
 9880TIP3   OH229584   6.155   2.037   7.156
 9880TIP3    H129585   6.077   2.008   7.104
 9880TIP3    H229586   6.137   2.133   7.160
 9881TIP3   OH229587   7.425   1.411   5.919
 9881TIP3    H129588   7.395   1.502   5.898
 9881TIP3    H229589   7.349   1.361   5.884
 9882TIP3   OH229590   7.414   1.418   6.291
 9882TIP3    H129591   7.435   1.397   6.385
 9882TIP3    H229592   7.373   1.335   6.263
 9883TIP3   OH229593   6.725   1.301   6.671
 9883TIP3    H129594   6.749   1.230   6.733
 9883TIP3    H229595   6.812   1.340   6.654
 9884TIP3   OH229596   7.674   1.716   5.985
 9884TIP3    H129597   7.646   1.651   6.050
 9884TIP3    H229598   7.700   1.792   6.039
 9885TIP3   OH229599   6.695   1.713   6.388
 9885TIP3    H129600   6.685   1.616   6.391
 9885TIP3    H229601   6.792   1.722   6.385
 9886TIP3   OH229602   6.389   0.927   6.189
 9886TIP3    H129603   6.339   1.009   6.205
 9886TIP3    H229604   6.326   0.877   6.134
 9887TIP3   OH229605   6.451   1.218   6.346
 9887TIP3    H129606   6.491   1.134   6.379
 9887TIP3    H229607   6.525   1.258   6.298
 9888TIP3   OH229608   7.320   2.175   6.001
 9888TIP3    H129609   7.363   2.102   5.952
 9888TIP3    H229610   7.307   2.135   6.088
 9889TIP3   OH229611   7.220   1.637   6.350
 9889TIP3    H129612   7.261   1.561   6.304
 9889TIP3    H229613   7.302   1.683   6.376
 9890TIP3   OH229614   7.626   1.139   6.404
 9890TIP3    H129615   7.665   1.053   6.422
 9890TIP3    H229616   7.601   1.133   6.310
 9891TIP3   OH229617   6.963   0.753   6.316
 9891TIP3    H129618   6.936   0.844   6.289
 9891TIP3    H229619   6.882   0.703   6.298
 9892TIP3   OH229620   7.629   0.911   6.025
 9892TIP3    H129621   7.686   0.863   6.088
 9892TIP3    H229622   7.686   0.908   5.946
 9893TIP3   OH229623   6.576   0.999   6.443
 9893TIP3    H129624   6.668   1.000   6.480
 9893TIP3    H229625   6.593   0.938   6.369
 9894TIP3   OH229626   7.044   1.200   6.248
 9894TIP3    H129627   7.137   1.174   6.263
 9894TIP3    H229628   7.003   1.113   6.224
 9895TIP3   OH229629   7.319   1.635   5.786
 9895TIP3    H129630   7.272   1.617   5.703
 9895TIP3    H229631   7.271   1.715   5.816
 9896TIP3   OH229632   7.087   1.552   6.578
 9896TIP3    H129633   7.022   1.618   6.612
 9896TIP3    H229634   7.123   1.598   6.499
 9897TIP3   OH229635   6.832   0.958   6.507
 9897TIP3    H129636   6.894   1.004   6.567
 9897TIP3    H229637   6.863   0.867   6.518
 9898TIP3   OH229638   6.908   1.749   6.671
 9898TIP3    H129639   6.880   1.837   6.637
 9898TIP3    H229640   6.829   1.729   6.727
 9899TIP3   OH229641   6.294   1.442   5.910
 9899TIP3    H129642   6.256   1.473   5.825
 9899TIP3    H229643   6.326   1.526   5.948
 9900TIP3   OH229644   7.737   1.957   6.146
 9900TIP3    H129645   7.648   1.949   6.189
 9900TIP3    H229646   7.728   2.045   6.104
 9901TIP3   OH229647   7.438   1.999   5.822
 9901TIP3    H129648   7.489   1.918   5.802
 9901TIP3    H229649   7.499   2.066   5.783
 9902TIP3   OH229650   7.584   1.783   5.733
 9902TIP3    H129651   7.529   1.708   5.707
 9902TIP3    H229652   7.623   1.752   5.818
 9903TIP3   OH229653   7.938   1.856   6.492
 9903TIP3    H129654   7.939   1.788   6.422
 9903TIP3    H229655   7.942   1.939   6.441
 9904TIP3   OH229656   7.255   1.268   5.751
 9904TIP3    H129657   7.173   1.318   5.732
 9904TIP3    H229658   7.295   1.261   5.662
 9905TIP3   OH229659   7.210   1.046   5.469
 9905TIP3    H129660   7.282   1.098   5.510
 9905TIP3    H229661   7.261   0.978   5.422
 9906TIP3   OH229662   8.184   1.498   6.334
 9906TIP3    H129663   8.093   1.528   6.348
 9906TIP3    H229664   8.201   1.530   6.244
 9907TIP3   OH229665   7.602   1.347   5.721
 9907TIP3    H129666   7.546   1.369   5.799
 9907TIP3    H229667   7.687   1.325   5.765
 9908TIP3   OH229668   7.861   1.371   6.518
 9908TIP3    H129669   7.910   1.438   6.568
 9908TIP3    H229670   7.807   1.424   6.458
 9909TIP3   OH229671   6.836   1.343   6.139
 9909TIP3    H129672   6.796   1.283   6.073
 9909TIP3    H229673   6.912   1.290   6.171
 9910TIP3   OH229674   6.965   1.755   6.288
 9910TIP3    H129675   6.944   1.718   6.200
 9910TIP3    H229676   7.054   1.717   6.305
 9911TIP3   OH229677   6.965   1.313   6.493
 9911TIP3    H129678   6.999   1.287   6.405
 9911TIP3    H229679   7.016   1.393   6.515
 9912TIP3   OH229680   7.499   1.951   6.273
 9912TIP3    H129681   7.484   2.033   6.322
 9912TIP3    H229682   7.480   1.882   6.338
 9913TIP3   OH229683   7.105   1.868   6.818
 9913TIP3    H129684   7.043   1.930   6.863
 9913TIP3    H229685   7.041   1.815   6.766
 9914TIP3   OH229686   7.441   1.201   5.549
 9914TIP3    H129687   7.498   1.264   5.598
 9914TIP3    H229688   7.468   1.221   5.456
 9915TIP3   OH229689   6.848   1.453   6.926
 9915TIP3    H129690   6.850   1.531   6.984
 9915TIP3    H229691   6.758   1.419   6.944
 9916TIP3   OH229692   7.189   1.879   5.825
 9916TIP3    H129693   7.270   1.933   5.835
 9916TIP3    H229694   7.127   1.940   5.784
 9917TIP3   OH229695   6.903   2.036   6.908
 9917TIP3    H129696   6.867   2.039   6.817
 9917TIP3    H229697   6.823   2.014   6.960
 9918TIP3   OH229698   6.703   1.185   5.941
 9918TIP3    H129699   6.632   1.228   5.889
 9918TIP3    H229700   6.665   1.098   5.958
 9919TIP3   OH229701   7.751   1.812   5.150
 9919TIP3    H129702   7.761   1.909   5.134
 9919TIP3    H229703   7.843   1.781   5.135
 9920TIP3   OH229704   6.481   1.573   6.852
 9920TIP3    H129705   6.415   1.549   6.784
 9920TIP3    H229706   6.518   1.486   6.878
 9921TIP3   OH229707   6.336   1.762   6.485
 9921TIP3    H129708   6.432   1.759   6.479
 9921TIP3    H229709   6.323   1.841   6.540
 9922TIP3   OH229710   8.180   2.223   6.533
 9922TIP3    H129711   8.197   2.128   6.547
 9922TIP3    H229712   8.100   2.236   6.587
 9923TIP3   OH229713   7.303   1.994   6.675
 9923TIP3    H129714   7.304   2.087   6.707
 9923TIP3    H229715   7.230   1.957   6.730
 9924TIP3   OH229716   7.071   2.127   5.629
 9924TIP3    H129717   7.022   2.111   5.546
 9924TIP3    H229718   7.037   2.214   5.657
 9925TIP3   OH229719   6.506   1.976   6.015
 9925TIP3    H129720   6.554   1.968   6.100
 9925TIP3    H229721   6.449   1.898   6.019
 9926TIP3   OH229722   7.268   2.030   5.266
 9926TIP3    H129723   7.327   1.960   5.231
 9926TIP3    H229724   7.303   2.041   5.357
 9927TIP3   OH229725   7.321   2.078   5.536
 9927TIP3    H129726   7.232   2.088   5.576
 9927TIP3    H229727   7.372   2.042   5.610
 9928TIP3   OH229728   6.687   1.755   6.836
 9928TIP3    H129729   6.735   1.740   6.920
 9928TIP3    H229730   6.614   1.690   6.843
 9929TIP3   OH229731   7.521   1.243   5.295
 9929TIP3    H129732   7.482   1.222   5.208
 9929TIP3    H229733   7.602   1.291   5.267
 9930TIP3   OH229734   7.034   1.080   6.649
 9930TIP3    H129735   7.004   1.123   6.732
 9930TIP3    H229736   7.024   1.156   6.590
 9931TIP3   OH229737   6.902   0.978   6.167
 9931TIP3    H129738   6.807   0.957   6.180
 9931TIP3    H229739   6.916   0.946   6.075
 9932TIP3   OH229740   7.386   1.069   5.889
 9932TIP3    H129741   7.339   1.140   5.841
 9932TIP3    H229742   7.452   1.040   5.823
 9933TIP3   OH229743   7.532   1.134   6.146
 9933TIP3    H129744   7.472   1.175   6.081
 9933TIP3    H229745   7.554   1.051   6.096
 9934TIP3   OH229746   6.813   1.112   6.863
 9934TIP3    H129747   6.857   1.175   6.922
 9934TIP3    H229748   6.819   1.029   6.912
 9935TIP3   OH229749   6.484   0.735   5.993
 9935TIP3    H129750   6.495   0.739   5.896
 9935TIP3    H229751   6.391   0.761   5.999
 9936TIP3   OH229752   7.498   1.340   6.538
 9936TIP3    H129753   7.539   1.263   6.492
 9936TIP3    H229754   7.565   1.352   6.608
 9937TIP3   OH229755   6.650   0.856   6.208
 9937TIP3    H129756   6.558   0.889   6.193
 9937TIP3    H229757   6.644   0.774   6.157
 9938TIP3   OH229758   6.941   0.875   5.917
 9938TIP3    H129759   7.033   0.860   5.887
 9938TIP3    H229760   6.888   0.863   5.836
 9939TIP3   OH229761   6.776   0.855   5.688
 9939TIP3    H129762   6.702   0.840   5.627
 9939TIP3    H229763   6.837   0.904   5.629
 9940TIP3   OH229764   7.893   2.566   6.639
 9940TIP3    H129765   7.893   2.592   6.545
 9940TIP3    H229766   7.956   2.629   6.677
 9941TIP3   OH229767   6.844   1.691   7.068
 9941TIP3    H129768   6.925   1.717   7.116
 9941TIP3    H229769   6.780   1.685   7.142
 9942TIP3   OH229770   7.299   1.132   6.317
 9942TIP3    H129771   7.384   1.103   6.281
 9942TIP3    H229772   7.305   1.102   6.411
 9943TIP3   OH229773   7.312   1.059   6.580
 9943TIP3    H129774   7.220   1.034   6.601
 9943TIP3    H229775   7.343   1.094   6.664
 9944TIP3   OH229776   7.023   1.414   5.700
 9944TIP3    H129777   6.949   1.350   5.689
 9944TIP3    H229778   7.003   1.448   5.791
 9945TIP3   OH229779   7.935   1.633   6.326
 9945TIP3    H129780   7.960   1.688   6.249
 9945TIP3    H229781   7.847   1.598   6.299
 9946TIP3   OH229782   7.457   0.799   5.523
 9946TIP3    H129783   7.398   0.748   5.583
 9946TIP3    H229784   7.495   0.863   5.586
 9947TIP3   OH229785   7.432   1.744   6.704
 9947TIP3    H129786   7.397   1.707   6.785
 9947TIP3    H229787   7.388   1.831   6.700
 9948TIP3   OH229788   7.560   0.992   5.687
 9948TIP3    H129789   7.658   1.003   5.694
 9948TIP3    H229790   7.535   1.068   5.631
 9949TIP3   OH229791   6.716   1.432   6.374
 9949TIP3    H129792   6.756   1.406   6.289
 9949TIP3    H229793   6.769   1.381   6.437
 9950TIP3   OH229794   7.170   1.565   5.527
 9950TIP3    H129795   7.121   1.650   5.529
 9950TIP3    H229796   7.115   1.510   5.586
 9951TIP3   OH229797   6.590   1.365   6.997
 9951TIP3    H129798   6.622   1.347   7.088
 9951TIP3    H229799   6.528   1.292   6.982
 9952TIP3   OH229800   7.324   1.492   7.013
 9952TIP3    H129801   7.266   1.435   6.960
 9952TIP3    H229802   7.402   1.436   7.020
 9953TIP3   OH229803   7.577   1.990   6.588
 9953TIP3    H129804   7.481   1.984   6.595
 9953TIP3    H229805   7.597   2.041   6.669
 9954TIP3   OH229806   7.989   1.063   5.488
 9954TIP3    H129807   7.928   1.015   5.428
 9954TIP3    H229808   7.979   1.154   5.452
 9955TIP3   OH229809   7.702   1.882   5.418
 9955TIP3    H129810   7.655   1.818   5.473
 9955TIP3    H229811   7.706   1.840   5.331
 9956TIP3   OH229812   7.688   1.507   6.264
 9956TIP3    H129813   7.593   1.487   6.263
 9956TIP3    H229814   7.722   1.434   6.208
 9957TIP3   OH229815   6.820   1.743   6.002
 9957TIP3    H129816   6.816   1.824   5.947
 9957TIP3    H229817   6.726   1.727   6.018
 9958TIP3   OH229818   6.379   1.048   5.708
 9958TIP3    H129819   6.428   1.131   5.728
 9958TIP3    H229820   6.306   1.054   5.773
 9959TIP3   OH229821   6.952   1.506   5.943
 9959TIP3    H129822   6.917   1.595   5.963
 9959TIP3    H229823   6.918   1.455   6.019
 9960TIP3   OH229824   7.089   2.085   6.469
 9960TIP3    H129825   7.130   2.159   6.419
 9960TIP3    H229826   7.165   2.050   6.517
 9961TIP3   OH229827   6.737   1.980   5.854
 9961TIP3    H129828   6.651   1.990   5.900
 9961TIP3    H229829   6.770   2.073   5.857
 9962TIP3   OH229830   7.472   1.718   6.434
 9962TIP3    H129831   7.468   1.717   6.532
 9962TIP3    H229832   7.551   1.666   6.417
 9963TIP3   OH229833   7.451   1.615   5.313
 9963TIP3    H129834   7.502   1.587   5.392
 9963TIP3    H229835   7.362   1.586   5.338
 9964TIP3   OH229836   7.721   2.250   6.477
 9964TIP3    H129837   7.640   2.195   6.468
 9964TIP3    H229838   7.707   2.315   6.405
 9965TIP3   OH229839   7.787   2.088   5.132
 9965TIP3    H129840   7.824   2.164   5.084
 9965TIP3    H229841   7.706   2.130   5.168
 9966TIP3   OH229842   7.606   1.541   5.525
 9966TIP3    H129843   7.595   1.479   5.600
 9966TIP3    H229844   7.703   1.534   5.511
 9967TIP3   OH229845   6.527   1.945   6.628
 9967TIP3    H129846   6.581   1.875   6.670
 9967TIP3    H229847   6.550   2.022   6.682
 9968TIP3   OH229848   6.816   1.592   5.314
 9968TIP3    H129849   6.828   1.499   5.288
 9968TIP3    H229850   6.795   1.583   5.409
 9969TIP3   OH229851   6.759   1.598   5.585
 9969TIP3    H129852   6.833   1.572   5.642
 9969TIP3    H229853   6.761   1.696   5.593
 9970TIP3   OH229854   6.491   1.288   5.790
 9970TIP3    H129855   6.427   1.336   5.847
 9970TIP3    H229856   6.507   1.356   5.722
 9971TIP3   OH229857   7.027   1.794   5.533
 9971TIP3    H129858   6.940   1.818   5.570
 9971TIP3    H229859   7.043   1.871   5.476
 9972TIP3   OH229860   7.228   0.847   5.907
 9972TIP3    H129861   7.279   0.931   5.906
 9972TIP3    H229862   7.236   0.821   5.999
 9973TIP3   OH229863   7.478   1.149   6.812
 9973TIP3    H129864   7.530   1.229   6.788
 9973TIP3    H229865   7.538   1.082   6.776
 9974TIP3   OH229866   6.773   1.869   5.603
 9974TIP3    H129867   6.743   1.940   5.541
 9974TIP3    H229868   6.757   1.912   5.690
 9975TIP3   OH229869   7.773   1.280   6.121
 9975TIP3    H129870   7.694   1.226   6.141
 9975TIP3    H229871   7.844   1.235   6.172
 9976TIP3   OH229872   6.489   1.494   5.594
 9976TIP3    H129873   6.556   1.564   5.603
 9976TIP3    H229874   6.534   1.438   5.527
 9977TIP3   OH229875   6.432   0.779   5.726
 9977TIP3    H129876   6.427   0.876   5.713
 9977TIP3    H229877   6.358   0.748   5.673
 9978TIP3   OH229878   7.744   2.227   6.071
 9978TIP3    H129879   7.701   2.274   5.996
 9978TIP3    H229880   7.839   2.248   6.052
 9979TIP3   OH229881   6.352   1.706   5.976
 9979TIP3    H129882   6.293   1.741   6.045
 9979TIP3    H229883   6.319   1.753   5.896
 9980TIP3   OH229884   6.519   2.260   7.054
 9980TIP3    H129885   6.605   2.260   7.100
 9980TIP3    H229886   6.499   2.165   7.051
 9981TIP3   OH229887   6.993   2.219   7.097
 9981TIP3    H129888   7.088   2.204   7.101
 9981TIP3    H229889   6.968   2.157   7.026
 9982TIP3   OH229890   6.978   1.795   5.222
 9982TIP3    H129891   6.922   1.723   5.261
 9982TIP3    H229892   7.054   1.743   5.190
 9983TIP3   OH229893   7.599   2.117   6.830
 9983TIP3    H129894   7.595   2.048   6.900
 9983TIP3    H229895   7.681   2.165   6.854
 9984TIP3   OH229896   7.414   1.834   5.137
 9984TIP3    H129897   7.455   1.768   5.196
 9984TIP3    H229898   7.471   1.831   5.059
 9985TIP3   OH229899   6.644   1.665   7.255
 9985TIP3    H129900   6.660   1.569   7.264
 9985TIP3    H229901   6.558   1.665   7.207
 9986TIP3   OH229902   6.625   1.308   5.450
 9986TIP3    H129903   6.684   1.281   5.523
 9986TIP3    H229904   6.691   1.314   5.377
 9987TIP3   OH229905   7.262   1.762   7.011
 9987TIP3    H129906   7.203   1.784   6.935
 9987TIP3    H229907   7.276   1.665   7.002
 9988TIP3   OH229908   7.142   1.514   5.257
 9988TIP3    H129909   7.141   1.525   5.354
 9988TIP3    H229910   7.143   1.416   5.250
 9989TIP3   OH229911   7.746   1.760   6.658
 9989TIP3    H129912   7.816   1.796   6.600
 9989TIP3    H229913   7.671   1.816   6.632
 9990TIP3   OH229914   6.772   1.389   7.221
 9990TIP3    H129915   6.846   1.328   7.210
 9990TIP3    H229916   6.782   1.411   7.316
 9991TIP3   OH229917   6.826   1.220   5.666
 9991TIP3    H129918   6.807   1.182   5.754
 9991TIP3    H229919   6.866   1.144   5.619
 9992TIP3   OH229920   7.038   1.307   6.806
 9992TIP3    H129921   6.976   1.373   6.845
 9992TIP3    H229922   7.115   1.361   6.780
 9993TIP3   OH229923   6.931   1.011   5.515
 9993TIP3    H129924   6.906   1.018   5.421
 9993TIP3    H229925   7.029   1.013   5.508
 9994TIP3   OH229926   7.754   1.337   5.174
 9994TIP3    H129927   7.734   1.296   5.087
 9994TIP3    H229928   7.720   1.428   5.154
 9995TIP3   OH229929   7.208   1.144   6.984
 9995TIP3    H129930   7.253   1.178   6.905
 9995TIP3    H229931   7.153   1.075   6.946
 9996TIP3   OH229932   7.280   1.412   6.716
 9996TIP3    H129933   7.348   1.384   6.652
 9996TIP3    H229934   7.223   1.469   6.660
 9997TIP3   OH229935   7.018   1.188   7.182
 9997TIP3    H129936   7.006   1.093   7.192
 9997TIP3    H229937   7.088   1.193   7.114
 9998TIP3   OH229938   6.742   2.071   5.415
 9998TIP3    H129939   6.837   2.064   5.396
 9998TIP3    H229940   6.714   2.124   5.338
 9999TIP3   OH229941   6.220   1.454   5.628
 9999TIP3    H129942   6.315   1.476   5.615
 9999TIP3    H229943   6.215   1.365   5.588
10000TIP3   OH229944   6.139   2.065   6.046
10000TIP3    H129945   6.072   2.006   6.007
10000TIP3    H229946   6.182   2.005   6.111
10001TIP3   OH229947   6.274   1.909   6.231
10001TIP3    H129948   6.260   1.843   6.300
10001TIP3    H229949   6.325   1.975   6.281
10002TIP3   OH229950   8.002   2.308   6.034
10002TIP3    H129951   8.022   2.349   6.120
10002TIP3    H229952   8.060   2.358   5.974
10003TIP3   OH229953   8.023   2.340   6.315
10003TIP3    H129954   7.982   2.251   6.310
10003TIP3    H229955   8.098   2.320   6.372
10004TIP3   OH229956   7.883   1.525   5.501
10004TIP3    H129957   7.906   1.619   5.505
10004TIP3    H229958   7.926   1.491   5.583
10005TIP3   OH229959   8.007   1.420   5.716
10005TIP3    H129960   7.941   1.368   5.767
10005TIP3    H229961   8.072   1.444   5.784
10006TIP3   OH229962   8.069   1.791   6.142
10006TIP3    H129963   8.121   1.723   6.094
10006TIP3    H229964   8.064   1.864   6.077
10007TIP3   OH229965   7.904   2.088   6.333
10007TIP3    H129966   7.832   2.128   6.385
10007TIP3    H229967   7.855   2.042   6.262
10008TIP3   OH229968   7.953   1.304   5.353
10008TIP3    H129969   7.883   1.307   5.283
10008TIP3    H229970   7.921   1.378   5.409
10009TIP3   OH229971   7.817   0.965   5.298
10009TIP3    H129972   7.795   1.036   5.237
10009TIP3    H229973   7.775   0.889   5.254
10010TIP3   OH229974   7.832   1.266   5.850
10010TIP3    H129975   7.833   1.171   5.824
10010TIP3    H229976   7.816   1.263   5.947
10011TIP3   OH229977   6.461   1.328   6.605
10011TIP3    H129978   6.459   1.297   6.512
10011TIP3    H229979   6.558   1.327   6.623
10012TIP3   OH229980   7.833   1.018   5.724
10012TIP3    H129981   7.858   0.939   5.776
10012TIP3    H229982   7.896   1.015   5.649
10013TIP3   OH229983   7.985   1.166   6.253
10013TIP3    H129984   8.078   1.155   6.232
10013TIP3    H229985   7.988   1.185   6.348
10014TIP3   OH229986   6.670   1.004   7.265
10014TIP3    H129987   6.764   1.011   7.288
10014TIP3    H229988   6.644   0.922   7.311
10015TIP3   OH229989   6.432   0.976   6.679
10015TIP3    H129990   6.479   0.981   6.593
10015TIP3    H229991   6.466   1.054   6.725
10016TIP3   OH229992   7.583   2.183   5.688
10016TIP3    H129993   7.635   2.177   5.606
10016TIP3    H229994   7.629   2.254   5.736
10017TIP3   OH229995   6.683   1.993   7.072
10017TIP3    H129996   6.591   1.966   7.057
10017TIP3    H229997   6.696   1.970   7.165
10018TIP3   OH229998   6.864   2.024   6.621
10018TIP3    H129999   6.814   2.099   6.582
10018TIP3    H230000   6.949   2.038   6.574
10019TIP3   OH230001   7.299   2.262   6.753
10019TIP3    H130002   7.339   2.266   6.842
10019TIP3    H230003   7.366   2.314   6.702
10020TIP3   OH230004   7.479   2.416   6.615
10020TIP3    H130005   7.550   2.368   6.569
10020TIP3    H230006   7.531   2.478   6.670
10021TIP3   OH230007   6.537   2.276   6.647
10021TIP3    H130008   6.446   2.306   6.623
10021TIP3    H230009   6.550   2.328   6.728
10022TIP3   OH230010   6.773   2.257   6.504
10022TIP3    H130011   6.685   2.269   6.547
10022TIP3    H230012   6.754   2.291   6.414
10023TIP3   OH230013   7.199   2.284   6.301
10023TIP3    H130014   7.128   2.301   6.236
10023TIP3    H230015   7.210   2.372   6.342
10024TIP3   OH230016   7.468   2.221   6.352
10024TIP3    H130017   7.374   2.241   6.334
10024TIP3    H230018   7.513   2.295   6.308
10025TIP3   OH230019   7.671   2.412   6.265
10025TIP3    H130020   7.659   2.498   6.218
10025TIP3    H230021   7.699   2.354   6.191
10026TIP3   OH230022   6.448   2.070   6.386
10026TIP3    H130023   6.473   2.043   6.477
10026TIP3    H230024   6.521   2.027   6.337
10027TIP3   OH230025   6.644   1.943   6.248
10027TIP3    H130026   6.659   1.859   6.298
10027TIP3    H230027   6.735   1.979   6.244
10028TIP3   OH230028   6.910   2.035   6.253
10028TIP3    H130029   6.941   1.942   6.244
10028TIP3    H230030   6.957   2.059   6.335
10029TIP3   OH230031   6.236   1.848   5.778
10029TIP3    H130032   6.149   1.818   5.746
10029TIP3    H230033   6.230   1.942   5.754
10030TIP3   OH230034   7.009   2.028   5.363
10030TIP3    H130035   7.097   2.052   5.326
10030TIP3    H230036   6.987   1.954   5.302
10031TIP3   OH230037   7.730   2.153   5.456
10031TIP3    H130038   7.725   2.055   5.446
10031TIP3    H230039   7.682   2.183   5.376
10032TIP3   OH230040   6.310   1.863   5.416
10032TIP3    H130041   6.314   1.892   5.508
10032TIP3    H230042   6.399   1.823   5.402
10033TIP3   OH230043   7.936   2.295   6.643
10033TIP3    H130044   7.864   2.270   6.582
10033TIP3    H230045   7.926   2.392   6.643
10034TIP3   OH230046   8.466   1.971   5.900
10034TIP3    H130047   8.447   1.881   5.928
10034TIP3    H230048   8.563   1.967   5.884
10035TIP3   OH230049   8.199   1.214   5.696
10035TIP3    H130050   8.119   1.264   5.673
10035TIP3    H230051   8.190   1.135   5.639
10036TIP3   OH230052   8.288   1.456   5.829
10036TIP3    H130053   8.278   1.359   5.833
10036TIP3    H230054   8.337   1.464   5.746
10037TIP3   OH230055   8.300   1.802   6.299
10037TIP3    H130056   8.219   1.811   6.245
10037TIP3    H230057   8.261   1.783   6.386
10038TIP3   OH230058   8.138   2.021   5.974
10038TIP3    H130059   8.233   2.041   5.981
10038TIP3    H230060   8.100   2.097   6.021
10039TIP3   OH230061   8.267   2.200   5.496
10039TIP3    H130062   8.341   2.214   5.558
10039TIP3    H230063   8.195   2.180   5.557
10040TIP3   OH230064   8.259   1.000   5.470
10040TIP3    H130065   8.274   0.996   5.373
10040TIP3    H230066   8.162   1.005   5.474
10041TIP3   OH230067   8.178   1.290   5.196
10041TIP3    H130068   8.230   1.370   5.219
10041TIP3    H230069   8.101   1.298   5.257
10042TIP3   OH230070   8.327   2.204   6.116
10042TIP3    H130071   8.383   2.147   6.171
10042TIP3    H230072   8.341   2.291   6.155
10043TIP3   OH230073   8.272   1.546   5.254
10043TIP3    H130074   8.181   1.558   5.285
10043TIP3    H230075   8.272   1.604   5.174
10044TIP3   OH230076   8.281   1.731   5.057
10044TIP3    H130077   8.339   1.805   5.079
10044TIP3    H230078   8.299   1.722   4.960
10045TIP3   OH230079   8.237   1.025   5.189
10045TIP3    H130080   8.221   1.121   5.189
10045TIP3    H230081   8.149   0.988   5.176
10046TIP3   OH230082   8.273   2.478   6.518
10046TIP3    H130083   8.363   2.474   6.553
10046TIP3    H230084   8.247   2.384   6.520
10047TIP3   OH230085   8.003   1.709   5.093
10047TIP3    H130086   8.099   1.725   5.087
10047TIP3    H230087   7.995   1.617   5.059
10048TIP3   OH230088   7.938   2.319   5.530
10048TIP3    H130089   7.868   2.261   5.493
10048TIP3    H230090   7.980   2.259   5.595
10049TIP3   OH230091   8.083   2.171   5.712
10049TIP3    H130092   8.053   2.108   5.779
10049TIP3    H230093   8.129   2.236   5.768
10050TIP3   OH230094   8.250   1.594   6.067
10050TIP3    H130095   8.262   1.547   5.982
10050TIP3    H230096   8.340   1.602   6.100
10051TIP3   OH230097   8.323   2.517   6.142
10051TIP3    H130098   8.240   2.554   6.106
10051TIP3    H230099   8.329   2.570   6.222
10052TIP3   OH230100   8.583   2.504   6.004
10052TIP3    H130101   8.494   2.513   6.042
10052TIP3    H230102   8.569   2.543   5.915
10053TIP3   OH230103   8.238   2.333   5.875
10053TIP3    H130104   8.268   2.311   5.966
10053TIP3    H230105   8.311   2.291   5.824
10054TIP3   OH230106   8.418   2.186   5.735
10054TIP3    H130107   8.433   2.117   5.802
10054TIP3    H230108   8.510   2.202   5.704
10055TIP3   OH230109   8.043   2.078   5.247
10055TIP3    H130110   7.949   2.064   5.225
10055TIP3    H230111   8.043   2.171   5.271
10056TIP3   OH230112   8.105   2.134   4.919
10056TIP3    H130113   8.065   2.171   5.000
10056TIP3    H230114   8.178   2.081   4.955
10057TIP3   OH230115   1.682   2.457   7.091
10057TIP3    H130116   1.651   2.549   7.082
10057TIP3    H230117   1.598   2.409   7.086
10058TIP3   OH230118   1.689   2.430   7.441
10058TIP3    H130119   1.685   2.440   7.537
10058TIP3    H230120   1.604   2.475   7.418
10059TIP3   OH230121   1.918   2.760   7.162
10059TIP3    H130122   1.896   2.689   7.224
10059TIP3    H230123   1.947   2.831   7.221
10060TIP3   OH230124   0.946   2.762   7.566
10060TIP3    H130125   0.935   2.664   7.569
10060TIP3    H230126   1.043   2.768   7.556
10061TIP3   OH230127   0.695   2.237   7.499
10061TIP3    H130128   0.749   2.198   7.568
10061TIP3    H230129   0.757   2.299   7.458
10062TIP3   OH230130   1.568   3.218   7.180
10062TIP3    H130131   1.613   3.148   7.127
10062TIP3    H230132   1.563   3.175   7.266
10063TIP3   OH230133   2.481   2.001   7.514
10063TIP3    H130134   2.496   2.084   7.564
10063TIP3    H230135   2.497   2.030   7.423
10064TIP3   OH230136   1.867   2.163   7.563
10064TIP3    H130137   1.919   2.081   7.575
10064TIP3    H230138   1.841   2.156   7.469
10065TIP3   OH230139   1.250   1.836   7.526
10065TIP3    H130140   1.212   1.916   7.484
10065TIP3    H230141   1.191   1.767   7.492
10066TIP3   OH230142   1.918   1.931   7.143
10066TIP3    H130143   1.988   1.920   7.211
10066TIP3    H230144   1.972   1.967   7.070
10067TIP3   OH230145   1.290   2.237   7.431
10067TIP3    H130146   1.384   2.214   7.440
10067TIP3    H230147   1.252   2.153   7.398
10068TIP3   OH230148   2.544   2.199   7.693
10068TIP3    H130149   2.455   2.242   7.690
10068TIP3    H230150   2.592   2.258   7.754
10069TIP3   OH230151   1.575   2.688   6.958
10069TIP3    H130152   1.520   2.653   6.887
10069TIP3    H230153   1.522   2.766   6.985
10070TIP3   OH230154   2.121   1.940   7.324
10070TIP3    H130155   2.115   1.890   7.406
10070TIP3    H230156   2.173   2.018   7.352
10071TIP3   OH230157   0.557   2.480   7.085
10071TIP3    H130158   0.507   2.505   7.005
10071TIP3    H230159   0.574   2.564   7.129
10072TIP3   OH230160   1.987   3.004   7.325
10072TIP3    H130161   1.897   2.993   7.365
10072TIP3    H230162   1.976   3.091   7.281
10073TIP3   OH230163   2.278   1.896   7.702
10073TIP3    H130164   2.188   1.912   7.670
10073TIP3    H230165   2.333   1.927   7.629
10074TIP3   OH230166   1.685   3.047   6.998
10074TIP3    H130167   1.736   2.965   6.983
10074TIP3    H230168   1.748   3.112   6.958
10075TIP3   OH230169   1.830   2.832   6.911
10075TIP3    H130170   1.766   2.760   6.895
10075TIP3    H230171   1.874   2.800   6.993
10076TIP3   OH230172   2.211   2.913   7.668
10076TIP3    H130173   2.195   2.833   7.613
10076TIP3    H230174   2.190   2.985   7.605
10077TIP3   OH230175   1.498   2.300   6.928
10077TIP3    H130176   1.419   2.354   6.906
10077TIP3    H230177   1.548   2.302   6.845
10078TIP3   OH230178   1.460   2.098   6.638
10078TIP3    H130179   1.526   2.146   6.691
10078TIP3    H230180   1.518   2.032   6.593
10079TIP3   OH230181   2.408   2.553   7.520
10079TIP3    H130182   2.323   2.603   7.528
10079TIP3    H230183   2.434   2.578   7.429
10080TIP3   OH230184   1.855   2.391   6.894
10080TIP3    H130185   1.798   2.414   6.971
10080TIP3    H230186   1.938   2.367   6.940
10081TIP3   OH230187   2.092   2.465   7.796
10081TIP3    H130188   2.079   2.562   7.798
10081TIP3    H230189   2.009   2.440   7.750
10082TIP3   OH230190   1.082   2.388   7.320
10082TIP3    H130191   1.049   2.327   7.252
10082TIP3    H230192   1.159   2.340   7.357
10083TIP3   OH230193   1.203   2.813   7.456
10083TIP3    H130194   1.179   2.770   7.372
10083TIP3    H230195   1.280   2.757   7.482
10084TIP3   OH230196   1.212   2.395   7.647
10084TIP3    H130197   1.237   2.328   7.581
10084TIP3    H230198   1.280   2.462   7.627
10085TIP3   OH230199   1.745   2.999   7.443
10085TIP3    H130200   1.734   3.081   7.495
10085TIP3    H230201   1.738   2.928   7.511
10086TIP3   OH230202   1.690   2.249   6.726
10086TIP3    H130203   1.750   2.309   6.776
10086TIP3    H230204   1.716   2.270   6.633
10087TIP3   OH230205   1.435   2.926   6.993
10087TIP3    H130206   1.517   2.975   7.013
10087TIP3    H230207   1.375   2.996   6.964
10088TIP3   OH230208   2.208   1.487   6.776
10088TIP3    H130209   2.127   1.512   6.824
10088TIP3    H230210   2.224   1.568   6.722
10089TIP3   OH230211   0.956   2.230   7.117
10089TIP3    H130212   0.882   2.264   7.063
10089TIP3    H230213   0.929   2.139   7.134
10090TIP3   OH230214   2.007   2.854   6.324
10090TIP3    H130215   2.016   2.951   6.310
10090TIP3    H230216   2.099   2.824   6.311
10091TIP3   OH230217   2.447   3.263   7.710
10091TIP3    H130218   2.449   3.166   7.726
10091TIP3    H230219   2.368   3.285   7.765
10092TIP3   OH230220   1.580   3.052   7.879
10092TIP3    H130221   1.521   3.128   7.885
10092TIP3    H230222   1.514   2.979   7.870
10093TIP3   OH230223   1.314   3.171   6.805
10093TIP3    H130224   1.269   3.156   6.720
10093TIP3    H230225   1.283   3.261   6.829
10094TIP3   OH230226   0.755   3.024   7.195
10094TIP3    H130227   0.808   3.015   7.277
10094TIP3    H230228   0.711   2.937   7.193
10095TIP3   OH230229   1.515   3.075   6.443
10095TIP3    H130230   1.574   3.004   6.407
10095TIP3    H230231   1.550   3.085   6.534
10096TIP3   OH230232   1.566   3.122   6.713
10096TIP3    H130233   1.479   3.130   6.758
10096TIP3    H230234   1.619   3.080   6.784
10097TIP3   OH230235   1.766   2.292   6.470
10097TIP3    H130236   1.733   2.268   6.382
10097TIP3    H230237   1.851   2.335   6.447
10098TIP3   OH230238   1.488   1.665   6.761
10098TIP3    H130239   1.453   1.658   6.852
10098TIP3    H230240   1.437   1.594   6.717
10099TIP3   OH230241   1.163   2.020   7.334
10099TIP3    H130242   1.073   1.982   7.344
10099TIP3    H230243   1.180   1.995   7.241
10100TIP3   OH230244   1.640   2.108   7.065
10100TIP3    H130245   1.587   2.177   7.020
10100TIP3    H230246   1.695   2.073   6.991
10101TIP3   OH230247   1.802   2.137   7.298
10101TIP3    H130248   1.738   2.173   7.233
10101TIP3    H230249   1.829   2.056   7.250
10102TIP3   OH230250   1.169   1.728   6.750
10102TIP3    H130251   1.150   1.642   6.794
10102TIP3    H230252   1.082   1.746   6.710
10103TIP3   OH230253   1.847   2.402   7.690
10103TIP3    H130254   1.852   2.317   7.641
10103TIP3    H230255   1.777   2.386   7.755
10104TIP3   OH230256   1.490   1.831   7.395
10104TIP3    H130257   1.403   1.831   7.441
10104TIP3    H230258   1.536   1.900   7.447
10105TIP3   OH230259   0.939   1.877   7.366
10105TIP3    H130260   0.852   1.889   7.408
10105TIP3    H230261   0.964   1.787   7.391
10106TIP3   OH230262   1.186   1.927   7.080
10106TIP3    H130263   1.279   1.926   7.051
10106TIP3    H230264   1.135   1.938   6.997
10107TIP3   OH230265   1.976   1.910   7.620
10107TIP3    H130266   1.941   1.925   7.709
10107TIP3    H230267   1.905   1.854   7.581
10108TIP3   OH230268   1.006   1.950   6.872
10108TIP3    H130269   0.937   1.901   6.824
10108TIP3    H230270   1.071   1.962   6.799
10109TIP3   OH230271   2.158   3.608   7.802
10109TIP3    H130272   2.157   3.622   7.705
10109TIP3    H230273   2.239   3.656   7.828
10111TIP3   OH230277   1.105   1.640   7.388
10111TIP3    H130278   1.038   1.584   7.345
10111TIP3    H230279   1.161   1.655   7.309
10112TIP3   OH230280   1.269   2.458   6.870
10112TIP3    H130281   1.199   2.390   6.860
10112TIP3    H230282   1.249   2.491   6.961
10113TIP3   OH230283   2.172   2.694   7.504
10113TIP3    H130284   2.193   2.746   7.424
10113TIP3    H230285   2.086   2.652   7.480
10114TIP3   OH230286   1.735   1.771   6.742
10114TIP3    H130287   1.639   1.748   6.749
10114TIP3    H230288   1.738   1.864   6.770
10115TIP3   OH230289   1.798   2.021   6.848
10115TIP3    H130290   1.895   2.027   6.862
10115TIP3    H230291   1.779   2.102   6.796
10116TIP3   OH230292   0.967   2.485   7.552
10116TIP3    H130293   1.002   2.457   7.465
10116TIP3    H230294   1.043   2.455   7.608
10117TIP3   OH230295   1.416   2.606   6.694
10117TIP3    H130296   1.368   2.692   6.702
10117TIP3    H230297   1.363   2.550   6.755
10118TIP3   OH230298   1.844   3.065   7.779
10118TIP3    H130299   1.751   3.044   7.796
10118TIP3    H230300   1.876   3.087   7.867
10119TIP3   OH230301   2.240   2.117   6.680
10119TIP3    H130302   2.180   2.070   6.617
10119TIP3    H230303   2.234   2.206   6.640
10120TIP3   OH230304   2.455   2.975   7.759
10120TIP3    H130305   2.358   2.965   7.748
10120TIP3    H230306   2.483   2.938   7.673
10121TIP3   OH230307   1.942   2.929   6.591
10121TIP3    H130308   1.915   2.862   6.655
10121TIP3    H230309   1.954   2.878   6.509
10122TIP3   OH230310   1.941   2.558   7.411
10122TIP3    H130311   1.854   2.518   7.429
10122TIP3    H230312   1.984   2.482   7.367
10123TIP3   OH230313   1.069   2.793   7.181
10123TIP3    H130314   1.062   2.872   7.124
10123TIP3    H230315   0.978   2.763   7.186
10124TIP3   OH230316   0.600   2.097   6.910
10124TIP3    H130317   0.668   2.168   6.904
10124TIP3    H230318   0.558   2.123   6.994
10125TIP3   OH230319   1.199   2.553   7.112
10125TIP3    H130320   1.172   2.641   7.142
10125TIP3    H230321   1.189   2.502   7.195
10126TIP3   OH230322   1.332   3.133   7.629
10126TIP3    H130323   1.384   3.205   7.587
10126TIP3    H230324   1.401   3.069   7.652
10127TIP3   OH230325   0.979   3.032   7.026
10127TIP3    H130326   0.898   3.041   7.079
10127TIP3    H230327   1.015   3.124   7.032
10128TIP3   OH230328   1.764   2.785   7.620
10128TIP3    H130329   1.696   2.732   7.664
10128TIP3    H230330   1.811   2.718   7.570
10129TIP3   OH230331   1.699   2.662   6.490
10129TIP3    H130332   1.757   2.635   6.566
10129TIP3    H230333   1.614   2.630   6.522
10130TIP3   OH230334   1.967   3.300   7.660
10130TIP3    H130335   1.893   3.236   7.658
10130TIP3    H230336   1.947   3.358   7.583
10131TIP3   OH230337   2.039   3.131   6.309
10131TIP3    H130338   2.079   3.207   6.263
10131TIP3    H230339   1.958   3.174   6.342
10132TIP3   OH230340   1.863   2.585   6.694
10132TIP3    H130341   1.850   2.526   6.771
10132TIP3    H230342   1.961   2.585   6.689
10133TIP3   OH230343   1.059   2.638   6.492
10133TIP3    H130344   1.077   2.546   6.465
10133TIP3    H230345   1.042   2.627   6.588
10134TIP3   OH230346   1.005   2.643   6.766
10134TIP3    H130347   1.080   2.610   6.818
10134TIP3    H230348   1.015   2.740   6.775
10135TIP3   OH230349   0.747   2.329   6.959
10135TIP3    H130350   0.682   2.374   7.017
10135TIP3    H230351   0.770   2.401   6.899
10136TIP3   OH230352   1.779   1.717   7.027
10136TIP3    H130353   1.763   1.739   6.933
10136TIP3    H230354   1.819   1.800   7.061
10137TIP3   OH230355   1.272   2.836   6.706
10137TIP3    H130356   1.188   2.863   6.746
10137TIP3    H230357   1.294   2.915   6.655
10138TIP3   OH230358   1.469   1.901   7.125
10138TIP3    H130359   1.529   1.977   7.110
10138TIP3    H230360   1.467   1.896   7.222
10139TIP3   OH230361   1.611   1.632   7.235
10139TIP3    H130362   1.585   1.715   7.281
10139TIP3    H230363   1.672   1.667   7.166
10140TIP3   OH230364   1.020   2.917   6.780
10140TIP3    H130365   0.991   2.988   6.718
10140TIP3    H230366   1.005   2.960   6.867
10141TIP3   OH230367   1.154   1.650   7.119
10141TIP3    H130368   1.155   1.739   7.080
10141TIP3    H230369   1.222   1.606   7.066
10142TIP3   OH230370   2.027   2.314   7.299
10142TIP3    H130371   1.946   2.262   7.313
10142TIP3    H230372   2.094   2.263   7.350
10143TIP3   OH230373   0.745   2.546   6.764
10143TIP3    H130374   0.824   2.603   6.775
10143TIP3    H230375   0.784   2.481   6.700
10144TIP3   OH230376   0.729   1.854   6.810
10144TIP3    H130377   0.717   1.919   6.881
10144TIP3    H230378   0.713   1.768   6.856
10145TIP3   OH230379   1.993   3.276   7.248
10145TIP3    H130380   1.950   3.324   7.173
10145TIP3    H230381   2.087   3.295   7.228
10146TIP3   OH230382   0.611   2.780   7.165
10146TIP3    H130383   0.520   2.803   7.189
10146TIP3    H230384   0.608   2.799   7.070
10147TIP3   OH230385   1.225   2.838   6.398
10147TIP3    H130386   1.169   2.768   6.440
10147TIP3    H230387   1.303   2.786   6.373
10148TIP3   OH230388   1.662   2.878   6.316
10148TIP3    H130389   1.698   2.812   6.378
10148TIP3    H230390   1.723   2.872   6.240
10149TIP3   OH230391   0.874   2.352   6.628
10149TIP3    H130392   0.930   2.318   6.701
10149TIP3    H230393   0.942   2.358   6.557
10150TIP3   OH230394   1.382   2.556   6.428
10150TIP3    H130395   1.388   2.568   6.525
10150TIP3    H230396   1.387   2.458   6.422
10151TIP3   OH230397   2.008   2.769   7.796
10151TIP3    H130398   2.086   2.824   7.778
10151TIP3    H230399   1.937   2.827   7.762
10152TIP3   OH230400   1.071   2.266   6.839
10152TIP3    H130401   1.051   2.228   6.927
10152TIP3    H230402   1.110   2.188   6.793
10153TIP3   OH230403   1.183   2.063   6.687
10153TIP3    H130404   1.157   2.060   6.593
10153TIP3    H230405   1.280   2.059   6.680
10154TIP3   OH230406   2.000   2.386   6.351
10154TIP3    H130407   1.981   2.341   6.267
10154TIP3    H230408   1.966   2.476   6.330
10155TIP3   OH230409   0.991   3.123   6.593
10155TIP3    H130410   1.086   3.109   6.574
10155TIP3    H230411   0.966   3.172   6.512
10156TIP3   OH230412   0.481   2.494   6.809
10156TIP3    H130413   0.576   2.516   6.793
10156TIP3    H230414   0.474   2.406   6.767
10157TIP3   OH230415   0.335   3.112   7.230
10157TIP3    H130416   0.327   3.037   7.170
10157TIP3    H230417   0.390   3.073   7.302
10158TIP3   OH230418   0.499   2.989   7.407
10158TIP3    H130419   0.528   2.899   7.427
10158TIP3    H230420   0.562   3.040   7.462
10159TIP3   OH230421   2.248   3.365   7.210
10159TIP3    H130422   2.277   3.392   7.299
10159TIP3    H230423   2.317   3.401   7.153
10160TIP3   OH230424   2.278   3.381   7.492
10160TIP3    H130425   2.229   3.296   7.487
10160TIP3    H230426   2.348   3.353   7.554
10161TIP3   OH230427   2.141   2.572   6.683
10161TIP3    H130428   2.209   2.637   6.654
10161TIP3    H230429   2.184   2.534   6.763
10162TIP3   OH230430   2.267   2.440   6.888
10162TIP3    H130431   2.200   2.396   6.944
10162TIP3    H230432   2.330   2.476   6.954
10163TIP3   OH230433   2.327   2.837   7.321
10163TIP3    H130434   2.376   2.767   7.274
10163TIP3    H230435   2.317   2.906   7.252
10164TIP3   OH230436   2.149   3.136   7.509
10164TIP3    H130437   2.076   3.168   7.564
10164TIP3    H230438   2.100   3.087   7.438
10165TIP3   OH230439   2.203   2.349   6.532
10165TIP3    H130440   2.130   2.350   6.466
10165TIP3    H230441   2.174   2.424   6.588
10166TIP3   OH230442   2.076   2.021   6.483
10166TIP3    H130443   2.026   2.051   6.407
10166TIP3    H230444   2.057   1.925   6.481
10167TIP3   OH230445   2.081   2.298   7.030
10167TIP3    H130446   2.085   2.201   7.022
10167TIP3    H230447   2.065   2.309   7.127
10168TIP3   OH230448   2.351   2.695   7.860
10168TIP3    H130449   2.440   2.672   7.894
10168TIP3    H230450   2.357   2.789   7.843
10169TIP3   OH230451   2.554   2.521   7.927
10169TIP3    H130452   2.466   2.481   7.930
10169TIP3    H230453   2.610   2.448   7.896
10170TIP3   OH230454   2.021   1.755   6.471
10170TIP3    H130455   2.095   1.719   6.523
10170TIP3    H230456   1.947   1.695   6.492
10171TIP3   OH230457   2.078   2.015   6.924
10171TIP3    H130458   2.117   1.925   6.940
10171TIP3    H230459   2.137   2.046   6.854
10172TIP3   OH230460   2.237   2.184   7.428
10172TIP3    H130461   2.323   2.209   7.387
10172TIP3    H230462   2.249   2.222   7.517
10173TIP3   OH230463   2.307   2.336   7.664
10173TIP3    H130464   2.233   2.376   7.715
10173TIP3    H230465   2.338   2.415   7.615
10174TIP3   OH230466   2.183   1.764   6.965
10174TIP3    H130467   2.231   1.747   7.049
10174TIP3    H230468   2.123   1.687   6.963
10175TIP3   OH230469   2.273   1.691   6.596
10175TIP3    H130470   2.310   1.624   6.535
10175TIP3    H230471   2.338   1.763   6.585
10176TIP3   OH230472   1.828   3.235   6.862
10176TIP3    H130473   1.881   3.221   6.781
10176TIP3    H230474   1.884   3.294   6.913
10177TIP3   OH230475   1.089   3.077   7.790
10177TIP3    H130476   1.084   3.164   7.745
10177TIP3    H230477   1.183   3.059   7.776
10178TIP3   OH230478   1.725   3.472   7.758
10178TIP3    H130479   1.801   3.414   7.742
10178TIP3    H230480   1.733   3.491   7.853
10179TIP3   OH230481   1.018   3.316   7.671
10179TIP3    H130482   0.942   3.356   7.717
10179TIP3    H230483   0.999   3.338   7.577
10180TIP3   OH230484   1.450   3.332   7.472
10180TIP3    H130485   1.378   3.347   7.409
10180TIP3    H230486   1.461   3.421   7.511
10181TIP3   OH230487   1.716   3.264   7.522
10181TIP3    H130488   1.622   3.285   7.505
10181TIP3    H230489   1.761   3.344   7.490
10182TIP3   OH230490   1.924   3.460   7.442
10182TIP3    H130491   1.910   3.543   7.393
10182TIP3    H230492   1.950   3.398   7.370
10183TIP3   OH230493   0.698   3.113   7.553
10183TIP3    H130494   0.718   3.100   7.647
10183TIP3    H230495   0.775   3.066   7.511
10184TIP3   OH230496   0.897   2.986   7.422
10184TIP3    H130497   0.912   2.901   7.470
10184TIP3    H230498   0.990   3.021   7.420
10185TIP3   OH230499   1.159   3.085   7.424
10185TIP3    H130500   1.184   2.990   7.418
10185TIP3    H230501   1.210   3.107   7.505
10186TIP3   OH230502   1.774   1.749   7.529
10186TIP3    H130503   1.705   1.683   7.540
10186TIP3    H230504   1.831   1.709   7.460
10187TIP3   OH230505   2.259   1.614   7.420
10187TIP3    H130506   2.292   1.666   7.344
10187TIP3    H230507   2.163   1.631   7.415
10188TIP3   OH230508   2.349   1.719   7.183
10188TIP3    H130509   2.422   1.668   7.142
10188TIP3    H230510   2.382   1.811   7.168
10189TIP3   OH230511   1.415   1.487   7.376
10189TIP3    H130512   1.483   1.542   7.332
10189TIP3    H230513   1.413   1.523   7.465
10190TIP3   OH230514   1.974   1.619   7.386
10190TIP3    H130515   1.976   1.583   7.297
10190TIP3    H230516   1.955   1.540   7.441
10191TIP3   OH230517   2.001   1.552   6.957
10191TIP3    H130518   1.916   1.597   6.974
10191TIP3    H230519   1.985   1.466   7.003
10192TIP3   OH230520   0.454   2.897   6.969
10192TIP3    H130521   0.410   2.837   6.909
10192TIP3    H230522   0.456   2.980   6.917
10193TIP3   OH230523   1.422   1.650   7.027
10193TIP3    H130524   1.468   1.605   7.099
10193TIP3    H230525   1.438   1.743   7.052
10194TIP3   OH230526   1.256   3.073   6.538
10194TIP3    H130527   1.345   3.094   6.503
10194TIP3    H230528   1.235   2.997   6.479
10195TIP3   OH230529   1.977   3.196   6.632
10195TIP3    H130530   1.970   3.098   6.623
10195TIP3    H230531   1.932   3.226   6.551
10196TIP3   OH230532   0.567   2.913   6.596
10196TIP3    H130533   0.581   2.943   6.686
10196TIP3    H230534   0.653   2.868   6.575
10197TIP3   OH230535   2.194   3.333   7.807
10197TIP3    H130536   2.116   3.312   7.752
10197TIP3    H230537   2.179   3.427   7.823
10198TIP3   OH230538   3.470   2.713   6.583
10198TIP3    H130539   3.440   2.804   6.562
10198TIP3    H230540   3.393   2.662   6.551
10199TIP3   OH230541   3.472   2.711   6.968
10199TIP3    H130542   3.504   2.687   7.057
10199TIP3    H230543   3.427   2.631   6.939
10200TIP3   OH230544   2.767   2.606   7.326
10200TIP3    H130545   2.795   2.537   7.389
10200TIP3    H230546   2.846   2.662   7.324
10201TIP3   OH230547   3.714   3.015   6.650
10201TIP3    H130548   3.696   2.950   6.719
10201TIP3    H230549   3.744   3.092   6.702
10202TIP3   OH230550   2.741   3.019   7.053
10202TIP3    H130551   2.733   2.921   7.055
10202TIP3    H230552   2.838   3.028   7.047
10203TIP3   OH230553   2.447   2.221   6.837
10203TIP3    H130554   2.395   2.301   6.855
10203TIP3    H230555   2.379   2.165   6.795
10204TIP3   OH230556   2.504   2.507   7.018
10204TIP3    H130557   2.553   2.428   7.050
10204TIP3    H230558   2.560   2.536   6.944
10205TIP3   OH230559   3.360   3.474   6.662
10205TIP3    H130560   3.406   3.402   6.614
10205TIP3    H230561   3.352   3.437   6.751
10206TIP3   OH230562   3.265   2.938   7.015
10206TIP3    H130563   3.306   2.864   6.969
10206TIP3    H230564   3.347   2.985   7.042
10207TIP3   OH230565   4.284   2.257   7.013
10207TIP3    H130566   4.312   2.341   7.055
10207TIP3    H230567   4.301   2.276   6.919
10208TIP3   OH230568   3.681   2.437   7.045
10208TIP3    H130569   3.721   2.350   7.064
10208TIP3    H230570   3.647   2.421   6.954
10209TIP3   OH230571   3.024   2.096   7.008
10209TIP3    H130572   2.999   2.169   6.947
10209TIP3    H230573   2.976   2.022   6.964
10210TIP3   OH230574   3.716   2.191   6.632
10210TIP3    H130575   3.788   2.175   6.697
10210TIP3    H230576   3.768   2.226   6.557
10211TIP3   OH230577   2.651   2.299   7.119
10211TIP3    H130578   2.734   2.279   7.166
10211TIP3    H230579   2.663   2.243   7.039
10212TIP3   OH230580   3.090   2.498   6.914
10212TIP3    H130581   3.184   2.472   6.926
10212TIP3    H230582   3.050   2.414   6.882
10213TIP3   OH230583   4.355   2.466   7.184
10213TIP3    H130584   4.272   2.513   7.161
10213TIP3    H230585   4.371   2.502   7.273
10214TIP3   OH230586   3.016   2.083   7.443
10214TIP3    H130587   2.958   2.118   7.373
10214TIP3    H230588   2.961   2.103   7.522
10215TIP3   OH230589   3.358   2.934   6.452
10215TIP3    H130590   3.314   2.920   6.368
10215TIP3    H230591   3.316   3.017   6.482
10216TIP3   OH230592   3.121   2.858   7.239
10216TIP3    H130593   3.061   2.927   7.274
10216TIP3    H230594   3.163   2.906   7.164
10217TIP3   OH230595   3.922   2.192   6.811
10217TIP3    H130596   3.895   2.155   6.896
10217TIP3    H230597   3.971   2.272   6.838
10218TIP3   OH230598   2.888   2.196   7.227
10218TIP3    H130599   2.949   2.269   7.250
10218TIP3    H230600   2.937   2.156   7.151
10219TIP3   OH230601   2.951   3.054   7.337
10219TIP3    H130602   2.926   3.142   7.301
10219TIP3    H230603   2.871   3.037   7.391
10220TIP3   OH230604   2.342   2.744   6.574
10220TIP3    H130605   2.299   2.772   6.491
10220TIP3    H230606   2.374   2.829   6.610
10221TIP3   OH230607   3.782   3.258   6.812
10221TIP3    H130608   3.692   3.251   6.852
10221TIP3    H230609   3.774   3.345   6.767
10222TIP3   OH230610   4.076   2.155   7.179
10222TIP3    H130611   3.988   2.181   7.147
10222TIP3    H230612   4.134   2.188   7.108
10223TIP3   OH230613   3.371   1.799   7.168
10223TIP3    H130614   3.350   1.704   7.176
10223TIP3    H230615   3.292   1.839   7.211
10224TIP3   OH230616   3.483   3.301   6.486
10224TIP3    H130617   3.534   3.219   6.465
10224TIP3    H230618   3.545   3.367   6.448
10225TIP3   OH230619   3.627   3.085   6.398
10225TIP3    H130620   3.582   3.006   6.365
10225TIP3    H230621   3.666   3.053   6.482
10226TIP3   OH230622   4.007   3.168   7.159
10226TIP3    H130623   3.994   3.092   7.099
10226TIP3    H230624   3.988   3.244   7.100
10227TIP3   OH230625   3.299   2.563   6.418
10227TIP3    H130626   3.219   2.615   6.399
10227TIP3    H230627   3.344   2.563   6.332
10228TIP3   OH230628   3.256   2.354   6.125
10228TIP3    H130629   3.322   2.404   6.176
10228TIP3    H230630   3.315   2.290   6.080
10229TIP3   OH230631   4.203   2.808   7.005
10229TIP3    H130632   4.119   2.859   7.008
10229TIP3    H230633   4.234   2.833   6.915
10230TIP3   OH230634   3.647   2.646   6.386
10230TIP3    H130635   3.593   2.670   6.464
10230TIP3    H230636   3.732   2.623   6.430
10231TIP3   OH230637   3.881   2.684   7.303
10231TIP3    H130638   3.878   2.769   7.351
10231TIP3    H230639   3.795   2.686   7.257
10232TIP3   OH230640   2.879   2.643   6.804
10232TIP3    H130641   2.837   2.585   6.737
10232TIP3    H230642   2.955   2.589   6.834
10233TIP3   OH230643   3.009   3.055   6.952
10233TIP3    H130644   2.989   3.020   6.864
10233TIP3    H230645   3.098   3.018   6.969
10234TIP3   OH230646   3.021   2.613   7.161
10234TIP3    H130647   3.049   2.591   7.069
10234TIP3    H230648   3.060   2.701   7.175
10235TIP3   OH230649   3.543   3.253   6.937
10235TIP3    H130650   3.527   3.335   6.988
10235TIP3    H230651   3.524   3.182   7.001
10236TIP3   OH230652   3.153   3.171   7.483
10236TIP3    H130653   3.092   3.232   7.529
10236TIP3    H230654   3.089   3.118   7.432
10237TIP3   OH230655   3.486   2.504   6.214
10237TIP3    H130656   3.545   2.565   6.264
10237TIP3    H230657   3.513   2.526   6.121
10238TIP3   OH230658   2.913   2.720   7.588
10238TIP3    H130659   2.919   2.812   7.622
10238TIP3    H230660   2.817   2.704   7.595
10239TIP3   OH230661   3.234   3.181   6.486
10239TIP3    H130662   3.315   3.233   6.498
10239TIP3    H230663   3.172   3.246   6.450
10240TIP3   OH230664   2.947   3.337   7.572
10240TIP3    H130665   2.912   3.340   7.481
10240TIP3    H230666   2.867   3.316   7.624
10241TIP3   OH230667   4.005   1.747   6.267
10241TIP3    H130668   3.921   1.766   6.313
10241TIP3    H230669   4.017   1.829   6.214
10242TIP3   OH230670   2.746   2.487   6.608
10242TIP3    H130671   2.676   2.530   6.554
10242TIP3    H230672   2.711   2.398   6.619
10243TIP3   OH230673   3.803   3.109   5.810
10243TIP3    H130674   3.811   3.206   5.796
10243TIP3    H230675   3.896   3.081   5.798
10244TIP3   OH230676   2.526   2.873   7.518
10244TIP3    H130677   2.455   2.857   7.453
10244TIP3    H230678   2.562   2.784   7.533
10245TIP3   OH230679   2.381   3.067   7.142
10245TIP3    H130680   2.477   3.059   7.138
10245TIP3    H230681   2.371   3.142   7.203
10246TIP3   OH230682   4.241   3.508   7.208
10246TIP3    H130683   4.242   3.411   7.221
10246TIP3    H230684   4.156   3.532   7.250
10247TIP3   OH230685   3.352   3.297   7.342
10247TIP3    H130686   3.348   3.391   7.373
10247TIP3    H230687   3.279   3.258   7.394
10248TIP3   OH230688   3.114   3.428   6.294
10248TIP3    H130689   3.067   3.417   6.210
10248TIP3    H230690   3.084   3.516   6.324
10249TIP3   OH230691   2.550   3.276   6.678
10249TIP3    H130692   2.598   3.269   6.763
10249TIP3    H230693   2.499   3.194   6.678
10250TIP3   OH230694   3.312   3.328   5.930
10250TIP3    H130695   3.370   3.258   5.896
10250TIP3    H230696   3.348   3.343   6.020
10251TIP3   OH230697   3.364   3.378   6.198
10251TIP3    H130698   3.277   3.389   6.242
10251TIP3    H230699   3.419   3.347   6.272
10252TIP3   OH230700   4.133   2.644   7.483
10252TIP3    H130701   4.050   2.658   7.434
10252TIP3    H230702   4.147   2.548   7.470
10253TIP3   OH230703   2.731   3.055   7.499
10253TIP3    H130704   2.781   3.038   7.581
10253TIP3    H230705   2.655   2.993   7.509
10254TIP3   OH230706   3.131   1.876   7.290
10254TIP3    H130707   3.043   1.845   7.260
10254TIP3    H230708   3.103   1.957   7.338
10255TIP3   OH230709   3.663   1.992   7.484
10255TIP3    H130710   3.730   1.965   7.549
10255TIP3    H230711   3.579   1.973   7.531
10256TIP3   OH230712   3.905   2.423   7.404
10256TIP3    H130713   3.852   2.419   7.487
10256TIP3    H230714   3.879   2.509   7.367
10257TIP3   OH230715   3.559   2.547   5.957
10257TIP3    H130716   3.533   2.519   5.867
10257TIP3    H230717   3.643   2.593   5.937
10258TIP3   OH230718   3.279   1.925   6.257
10258TIP3    H130719   3.247   1.921   6.350
10258TIP3    H230720   3.237   1.843   6.223
10259TIP3   OH230721   3.065   2.392   7.309
10259TIP3    H130722   3.011   2.412   7.388
10259TIP3    H230723   3.050   2.473   7.256
10260TIP3   OH230724   2.945   2.280   6.825
10260TIP3    H130725   2.853   2.252   6.842
10260TIP3    H230726   2.958   2.241   6.735
10261TIP3   OH230727   3.439   2.366   6.553
10261TIP3    H130728   3.387   2.437   6.509
10261TIP3    H230729   3.492   2.332   6.479
10262TIP3   OH230730   3.615   2.643   7.630
10262TIP3    H130731   3.591   2.570   7.691
10262TIP3    H230732   3.708   2.657   7.654
10263TIP3   OH230733   3.593   2.391   6.789
10263TIP3    H130734   3.531   2.420   6.719
10263TIP3    H230735   3.627   2.311   6.743
10264TIP3   OH230736   2.885   2.422   7.513
10264TIP3    H130737   2.899   2.490   7.580
10264TIP3    H230738   2.871   2.341   7.567
10265TIP3   OH230739   2.930   1.887   6.237
10265TIP3    H130740   2.922   1.877   6.335
10265TIP3    H230741   2.845   1.931   6.219
10266TIP3   OH230742   2.472   1.945   7.103
10266TIP3    H130743   2.553   1.973   7.149
10266TIP3    H230744   2.503   1.912   7.017
10267TIP3   OH230745   2.448   1.924   6.619
10267TIP3    H130746   2.497   1.939   6.536
10267TIP3    H230747   2.392   2.003   6.623
10268TIP3   OH230748   3.606   2.635   7.210
10268TIP3    H130749   3.638   2.564   7.150
10268TIP3    H230750   3.573   2.581   7.285
10269TIP3   OH230751   3.279   2.097   6.883
10269TIP3    H130752   3.194   2.096   6.931
10269TIP3    H230753   3.343   2.098   6.956
10270TIP3   OH230754   2.707   2.157   6.890
10270TIP3    H130755   2.613   2.167   6.862
10270TIP3    H230756   2.725   2.064   6.866
10271TIP3   OH230757   2.976   2.161   6.582
10271TIP3    H130758   3.068   2.171   6.552
10271TIP3    H230759   2.923   2.178   6.500
10272TIP3   OH230760   3.766   2.174   7.083
10272TIP3    H130761   3.736   2.189   7.176
10272TIP3    H230762   3.695   2.114   7.052
10273TIP3   OH230763   2.820   2.194   6.363
10273TIP3    H130764   2.745   2.146   6.325
10273TIP3    H230765   2.868   2.221   6.282
10274TIP3   OH230766   3.941   3.864   7.301
10274TIP3    H130767   3.929   3.885   7.206
10274TIP3    H230768   3.974   3.948   7.336
10275TIP3   OH230769   2.911   2.975   7.711
10275TIP3    H130770   2.985   3.006   7.767
10275TIP3    H230771   2.838   2.980   7.777
10276TIP3   OH230772   3.355   2.429   6.981
10276TIP3    H130773   3.429   2.390   6.932
10276TIP3    H230774   3.361   2.385   7.068
10277TIP3   OH230775   2.883   1.912   6.859
10277TIP3    H130776   2.843   1.837   6.908
10277TIP3    H230777   2.899   1.872   6.772
10278TIP3   OH230778   3.333   2.328   7.271
10278TIP3    H130779   3.242   2.362   7.283
10278TIP3    H230780   3.388   2.392   7.320
10279TIP3   OH230781   3.071   2.715   6.364
10279TIP3    H130782   2.999   2.650   6.353
10279TIP3    H230783   3.050   2.750   6.455
10280TIP3   OH230784   3.968   2.951   6.992
10280TIP3    H130785   3.992   3.003   6.912
10280TIP3    H230786   3.883   2.910   6.965
10281TIP3   OH230787   3.527   2.028   6.227
10281TIP3    H130788   3.432   2.007   6.237
10281TIP3    H230789   3.533   2.122   6.256
10282TIP3   OH230790   3.468   3.035   7.364
10282TIP3    H130791   3.494   3.020   7.455
10282TIP3    H230792   3.429   3.125   7.367
10283TIP3   OH230793   3.595   2.277   6.335
10283TIP3    H130794   3.691   2.284   6.349
10283TIP3    H230795   3.575   2.357   6.284
10284TIP3   OH230796   2.766   2.744   7.040
10284TIP3    H130797   2.802   2.711   6.955
10284TIP3    H230798   2.799   2.678   7.103
10285TIP3   OH230799   3.209   2.864   6.177
10285TIP3    H130800   3.163   2.950   6.186
10285TIP3    H230801   3.159   2.810   6.242
10286TIP3   OH230802   2.648   2.652   7.641
10286TIP3    H130803   2.661   2.653   7.737
10286TIP3    H230804   2.565   2.602   7.631
10287TIP3   OH230805   3.371   2.775   7.671
10287TIP3    H130806   3.308   2.719   7.623
10287TIP3    H230807   3.457   2.740   7.638
10288TIP3   OH230808   3.628   3.291   7.263
10288TIP3    H130809   3.532   3.292   7.273
10288TIP3    H230810   3.656   3.346   7.338
10289TIP3   OH230811   4.035   2.370   6.168
10289TIP3    H130812   3.974   2.326   6.105
10289TIP3    H230813   4.033   2.459   6.128
10290TIP3   OH230814   4.257   3.223   7.248
10290TIP3    H130815   4.160   3.217   7.237
10290TIP3    H230816   4.285   3.194   7.158
10291TIP3   OH230817   3.733   3.186   6.074
10291TIP3    H130818   3.714   3.117   6.138
10291TIP3    H230819   3.753   3.137   5.992
10292TIP3   OH230820   3.735   2.815   6.910
10292TIP3    H130821   3.641   2.791   6.923
10292TIP3    H230822   3.767   2.735   6.864
10293TIP3   OH230823   2.865   3.044   6.665
10293TIP3    H130824   2.861   3.126   6.612
10293TIP3    H230825   2.771   3.027   6.681
10294TIP3   OH230826   2.425   2.349   6.372
10294TIP3    H130827   2.471   2.432   6.396
10294TIP3    H230828   2.348   2.352   6.434
10295TIP3   OH230829   2.996   2.807   6.607
10295TIP3    H130830   2.962   2.896   6.627
10295TIP3    H230831   2.960   2.756   6.682
10296TIP3   OH230832   3.133   3.387   7.133
10296TIP3    H130833   3.174   3.460   7.081
10296TIP3    H230834   3.211   3.351   7.178
10297TIP3   OH230835   2.782   3.283   6.518
10297TIP3    H130836   2.697   3.293   6.564
10297TIP3    H230837   2.816   3.375   6.521
10298TIP3   OH230838   3.517   3.020   7.095
10298TIP3    H130839   3.507   3.018   7.193
10298TIP3    H230840   3.598   2.968   7.083
10299TIP3   OH230841   3.496   2.913   5.979
10299TIP3    H130842   3.553   2.887   6.056
10299TIP3    H230843   3.409   2.888   6.013
10300TIP3   OH230844   3.768   3.552   7.142
10300TIP3    H130845   3.687   3.499   7.134
10300TIP3    H230846   3.755   3.617   7.070
10301TIP3   OH230847   3.833   3.385   5.797
10301TIP3    H130848   3.872   3.458   5.745
10301TIP3    H230849   3.754   3.432   5.831
10302TIP3   OH230850   2.852   2.159   7.651
10302TIP3    H130851   2.755   2.157   7.666
10302TIP3    H230852   2.884   2.102   7.722
10303TIP3   OH230853   3.658   2.842   6.189
10303TIP3    H130854   3.649   2.779   6.263
10303TIP3    H230855   3.756   2.842   6.179
10304TIP3   OH230856   2.571   3.246   7.292
10304TIP3    H130857   2.625   3.175   7.330
10304TIP3    H230858   2.594   3.320   7.349
10305TIP3   OH230859   2.861   2.892   5.978
10305TIP3    H130860   2.873   2.797   5.955
10305TIP3    H230861   2.841   2.885   6.073
10306TIP3   OH230862   2.805   2.900   6.247
10306TIP3    H130863   2.875   2.872   6.308
10306TIP3    H230864   2.807   2.998   6.258
10307TIP3   OH230865   2.539   2.592   6.454
10307TIP3    H130866   2.472   2.636   6.511
10307TIP3    H230867   2.550   2.660   6.385
10308TIP3   OH230868   3.697   2.227   7.343
10308TIP3    H130869   3.774   2.266   7.387
10308TIP3    H230870   3.680   2.147   7.397
10309TIP3   OH230871   3.577   1.975   6.514
10309TIP3    H130872   3.560   1.998   6.420
10309TIP3    H230873   3.615   2.059   6.548
10310TIP3   OH230874   3.072   3.096   6.190
10310TIP3    H130875   2.985   3.117   6.231
10310TIP3    H230876   3.090   3.182   6.148
10311TIP3   OH230877   3.265   2.161   6.614
10311TIP3    H130878   3.326   2.237   6.599
10311TIP3    H230879   3.265   2.155   6.712
10312TIP3   OH230880   3.529   2.476   7.418
10312TIP3    H130881   3.554   2.531   7.495
10312TIP3    H230882   3.583   2.396   7.432
10313TIP3   OH230883   3.405   1.884   6.718
10313TIP3    H130884   3.386   1.966   6.768
10313TIP3    H230885   3.466   1.917   6.649
10314TIP3   OH230886   2.818   3.170   6.268
10314TIP3    H130887   2.788   3.241   6.206
10314TIP3    H230888   2.802   3.214   6.355
10315TIP3   OH230889   2.938   1.892   6.514
10315TIP3    H130890   2.926   1.982   6.548
10315TIP3    H230891   3.035   1.883   6.517
10316TIP3   OH230892   4.169   2.376   7.403
10316TIP3    H130893   4.071   2.376   7.411
10316TIP3    H230894   4.179   2.339   7.314
10317TIP3   OH230895   3.820   2.570   6.788
10317TIP3    H130896   3.743   2.513   6.801
10317TIP3    H230897   3.890   2.523   6.838
10318TIP3   OH230898   2.534   2.797   6.257
10318TIP3    H130899   2.603   2.865   6.266
10318TIP3    H230900   2.578   2.739   6.190
10319TIP3   OH230901   2.479   2.079   6.378
10319TIP3    H130902   2.469   2.176   6.381
10319TIP3    H230903   2.390   2.048   6.358
10320TIP3   OH230904   3.790   3.528   6.737
10320TIP3    H130905   3.747   3.575   6.661
10320TIP3    H230906   3.884   3.548   6.716
10321TIP3   OH230907   2.868   1.796   7.261
10321TIP3    H130908   2.835   1.765   7.173
10321TIP3    H230909   2.855   1.717   7.316
10322TIP3   OH230910   2.401   3.013   6.641
10322TIP3    H130911   2.338   3.043   6.709
10322TIP3    H230912   2.365   3.057   6.560
10323TIP3   OH230913   2.562   3.563   7.720
10323TIP3    H130914   2.649   3.558   7.765
10323TIP3    H230915   2.539   3.468   7.714
10324TIP3   OH230916   3.038   3.520   7.760
10324TIP3    H130917   3.132   3.502   7.767
10324TIP3    H230918   3.012   3.458   7.689
10325TIP3   OH230919   3.019   3.089   5.877
10325TIP3    H130920   2.955   3.028   5.920
10325TIP3    H230921   3.100   3.039   5.892
10326TIP3   OH230922   3.679   3.430   7.496
10326TIP3    H130923   3.673   3.359   7.564
10326TIP3    H230924   3.755   3.482   7.526
10327TIP3   OH230925   3.444   3.122   5.791
10327TIP3    H130926   3.490   3.069   5.859
10327TIP3    H230927   3.512   3.132   5.722
10328TIP3   OH230928   2.700   2.979   7.881
10328TIP3    H130929   2.711   2.885   7.906
10328TIP3    H230930   2.606   2.980   7.850
10329TIP3   OH230931   2.671   2.612   6.112
10329TIP3    H130932   2.724   2.579   6.187
10329TIP3    H230933   2.740   2.617   6.043
10330TIP3   OH230934   3.299   3.054   7.688
10330TIP3    H130935   3.255   3.073   7.602
10330TIP3    H230936   3.327   2.961   7.678
10331TIP3   OH230937   3.183   2.819   5.907
10331TIP3    H130938   3.186   2.832   6.004
10331TIP3    H230939   3.182   2.721   5.903
10332TIP3   OH230940   3.792   3.061   7.300
10332TIP3    H130941   3.867   3.104   7.254
10332TIP3    H230942   3.721   3.128   7.284
10333TIP3   OH230943   2.802   2.700   7.881
10333TIP3    H130944   2.889   2.676   7.846
10333TIP3    H230945   2.803   2.659   7.970
10334TIP3   OH230946   2.876   2.519   6.331
10334TIP3    H130947   2.846   2.480   6.415
10334TIP3    H230948   2.912   2.441   6.283
10335TIP3   OH230949   3.153   2.582   7.565
10335TIP3    H130950   3.071   2.637   7.565
10335TIP3    H230951   3.199   2.616   7.485
10336TIP3   OH230952   2.978   2.315   6.170
10336TIP3    H130953   2.953   2.322   6.076
10336TIP3    H230954   3.076   2.317   6.163
10337TIP3   OH230955   3.665   2.986   7.696
10337TIP3    H130956   3.738   2.951   7.643
10337TIP3    H230957   3.657   2.919   7.766
10338TIP3   OH230958   3.794   2.641   5.840
10338TIP3    H130959   3.778   2.598   5.754
10338TIP3    H230960   3.762   2.732   5.819
10339TIP3   OH230961   3.275   2.371   7.683
10339TIP3    H130962   3.273   2.293   7.625
10339TIP3    H230963   3.231   2.439   7.627
10340TIP3   OH230964   3.272   2.160   7.496
10340TIP3    H130965   3.300   2.202   7.412
10340TIP3    H230966   3.179   2.137   7.475
10341TIP3   OH230967   3.296   2.694   7.369
10341TIP3    H130968   3.380   2.709   7.324
10341TIP3    H230969   3.237   2.757   7.323
10342TIP3   OH230970   3.878   2.659   7.743
10342TIP3    H130971   3.929   2.578   7.759
10342TIP3    H230972   3.945   2.718   7.706
10343TIP3   OH230973   3.921   2.914   7.484
10343TIP3    H130974   3.862   2.968   7.426
10343TIP3    H230975   4.008   2.935   7.445
10344TIP3   OH230976   3.128   2.496   7.890
10344TIP3    H130977   3.066   2.421   7.897
10344TIP3    H230978   3.174   2.474   7.807
10345TIP3   OH230979   3.401   1.921   7.562
10345TIP3    H130980   3.351   2.002   7.537
10345TIP3    H230981   3.334   1.851   7.549
10346TIP3   OH230982   3.535   2.424   7.768
10346TIP3    H130983   3.518   2.416   7.864
10346TIP3    H230984   3.447   2.399   7.733
10347TIP3   OH230985   3.769   2.370   7.630
10347TIP3    H130986   3.693   2.375   7.692
10347TIP3    H230987   3.842   2.342   7.688
10348TIP3   OH230988   4.008   2.316   7.772
10348TIP3    H130989   4.013   2.220   7.789
10348TIP3    H230990   3.998   2.354   7.862
10349TIP3   OH230991   2.975   2.270   7.936
10349TIP3    H130992   2.991   2.176   7.911
10349TIP3    H230993   3.017   2.274   8.023
10350TIP3   OH230994   3.504   1.935   7.814
10350TIP3    H130995   3.561   1.858   7.797
10350TIP3    H230996   3.454   1.936   7.730
10351TIP3   OH230997   3.578   2.153   7.962
10351TIP3    H130998   3.560   2.069   7.915
10351TIP3    H230999   3.489   2.190   7.966
10352TIP3   OH231000   2.786   3.369   6.077
10352TIP3    H131001   2.882   3.365   6.061
10352TIP3    H231002   2.759   3.425   6.002
10353TIP3   OH231003   2.264   2.758   6.290
10353TIP3    H131004   2.360   2.778   6.278
10353TIP3    H231005   2.258   2.668   6.251
10354TIP3   OH231006   2.182   3.367   6.711
10354TIP3    H131007   2.116   3.305   6.672
10354TIP3    H231008   2.226   3.307   6.776
10355TIP3   OH231009   2.316   3.213   6.896
10355TIP3    H131010   2.305   3.144   6.964
10355TIP3    H231011   2.369   3.277   6.947
10356TIP3   OH231012   4.046   3.614   6.699
10356TIP3    H131013   4.076   3.656   6.781
10356TIP3    H231014   4.103   3.656   6.633
10357TIP3   OH231015   4.073   3.638   6.986
10357TIP3    H131016   4.027   3.552   6.974
10357TIP3    H231017   4.151   3.607   7.034
10358TIP3   OH231018   4.116   3.307   7.551
10358TIP3    H131019   4.043   3.320   7.615
10358TIP3    H231020   4.159   3.395   7.553
10359TIP3   OH231021   3.936   2.828   6.169
10359TIP3    H131022   4.002   2.894   6.138
10359TIP3    H231023   3.982   2.792   6.247
10360TIP3   OH231024   4.064   2.694   6.373
10360TIP3    H131025   3.997   2.655   6.432
10360TIP3    H231026   4.129   2.732   6.435
10361TIP3   OH231027   4.122   3.091   6.808
10361TIP3    H131028   4.171   3.023   6.757
10361TIP3    H231029   4.118   3.165   6.745
10362TIP3   OH231030   3.946   3.387   7.001
10362TIP3    H131031   3.873   3.432   7.048
10362TIP3    H231032   3.898   3.343   6.927
10363TIP3   OH231033   3.999   2.603   6.019
10363TIP3    H131034   3.928   2.607   5.952
10363TIP3    H231035   3.973   2.680   6.074
10364TIP3   OH231036   3.870   2.275   5.975
10364TIP3    H131037   3.829   2.314   5.897
10364TIP3    H231038   3.847   2.181   5.963
10365TIP3   OH231039   3.875   2.556   6.519
10365TIP3    H131040   3.882   2.459   6.512
10365TIP3    H231041   3.860   2.568   6.616
10366TIP3   OH231042   2.500   2.624   7.269
10366TIP3    H131043   2.497   2.591   7.176
10366TIP3    H231044   2.597   2.626   7.283
10367TIP3   OH231045   4.166   2.978   7.379
10367TIP3    H131046   4.238   2.912   7.365
10367TIP3    H231047   4.188   3.046   7.314
10368TIP3   OH231048   4.348   2.778   7.385
10368TIP3    H131049   4.273   2.730   7.427
10368TIP3    H231050   4.422   2.716   7.405
10369TIP3   OH231051   3.816   2.008   5.954
10369TIP3    H131052   3.887   1.978   6.014
10369TIP3    H231053   3.740   1.952   5.977
10370TIP3   OH231054   3.874   2.271   6.411
10370TIP3    H131055   3.915   2.182   6.425
10370TIP3    H231056   3.931   2.305   6.340
10371TIP3   OH231057   4.033   2.437   6.910
10371TIP3    H131058   4.118   2.463   6.868
10371TIP3    H231059   4.046   2.477   6.998
10372TIP3   OH231060   4.105   2.587   7.139
10372TIP3    H131061   4.027   2.621   7.187
10372TIP3    H231062   4.137   2.668   7.094
10373TIP3   OH231063   2.712   2.306   7.878
10373TIP3    H131064   2.810   2.311   7.878
10373TIP3    H231065   2.699   2.237   7.945
10374TIP3   OH231066   4.553   2.180   7.695
10374TIP3    H131067   4.616   2.115   7.655
10374TIP3    H231068   4.524   2.230   7.616
10375TIP3   OH231069   3.982   2.020   6.452
10375TIP3    H131070   4.028   2.001   6.536
10375TIP3    H231071   3.919   1.945   6.448
10376TIP3   OH231072   2.686   2.005   7.273
10376TIP3    H131073   2.747   1.929   7.276
10376TIP3    H231074   2.748   2.080   7.262
10377TIP3   OH231075   2.484   2.275   7.347
10377TIP3    H131076   2.532   2.273   7.262
10377TIP3    H231077   2.503   2.365   7.378
10378TIP3   OH231078   4.422   2.315   7.501
10378TIP3    H131079   4.336   2.359   7.517
10378TIP3    H231080   4.392   2.244   7.441
10379TIP3   OH231081   4.063   1.951   6.087
10379TIP3    H131082   4.104   1.885   6.028
10379TIP3    H231083   4.128   2.025   6.085
10380TIP3   OH231084   2.470   1.800   6.858
10380TIP3    H131085   2.376   1.779   6.873
10380TIP3    H231086   2.465   1.847   6.771
10381TIP3   OH231087   3.627   3.485   6.351
10381TIP3    H131088   3.680   3.477   6.269
10381TIP3    H231089   3.673   3.557   6.397
10382TIP3   OH231090   2.674   1.875   7.662
10382TIP3    H131091   2.582   1.867   7.692
10382TIP3    H231092   2.655   1.930   7.584
10383TIP3   OH231093   2.725   3.294   7.737
10383TIP3    H131094   2.633   3.269   7.719
10383TIP3    H231095   2.735   3.263   7.828
10384TIP3   OH231096   2.909   3.326   7.284
10384TIP3    H131097   2.860   3.401   7.245
10384TIP3    H231098   2.994   3.340   7.238
10385TIP3   OH231099   3.347   3.564   7.422
10385TIP3    H131100   3.389   3.567   7.511
10385TIP3    H231101   3.411   3.617   7.370
10386TIP3   OH231102   3.526   3.719   7.285
10386TIP3    H131103   3.595   3.672   7.236
10386TIP3    H231104   3.580   3.776   7.344
10387TIP3   OH231105   4.324   2.080   7.380
10387TIP3    H131106   4.235   2.073   7.342
10387TIP3    H231107   4.356   1.987   7.369
10388TIP3   OH231108   2.581   3.578   7.309
10388TIP3    H131109   2.492   3.612   7.284
10388TIP3    H231110   2.593   3.622   7.394
10389TIP3   OH231111   2.818   3.559   7.167
10389TIP3    H131112   2.730   3.571   7.210
10389TIP3    H231113   2.800   3.591   7.077
10390TIP3   OH231114   3.243   3.584   6.965
10390TIP3    H131115   3.176   3.601   6.896
10390TIP3    H231116   3.255   3.673   7.003
10391TIP3   OH231117   3.513   3.524   7.018
10391TIP3    H131118   3.419   3.542   6.999
10391TIP3    H231119   3.557   3.596   6.970
10392TIP3   OH231120   3.719   3.715   6.929
10392TIP3    H131121   3.704   3.800   6.882
10392TIP3    H231122   3.745   3.657   6.854
10393TIP3   OH231123   2.492   3.372   7.052
10393TIP3    H131124   2.520   3.343   7.142
10393TIP3    H231125   2.564   3.329   7.000
10394TIP3   OH231126   2.688   3.246   6.911
10394TIP3    H131127   2.702   3.162   6.962
10394TIP3    H231128   2.779   3.282   6.908
10395TIP3   OH231129   2.954   3.335   6.917
10395TIP3    H131130   2.985   3.243   6.908
10395TIP3    H231131   3.002   3.361   6.998
10396TIP3   OH231132   3.536   1.997   7.012
10396TIP3    H131133   3.487   1.927   7.058
10396TIP3    H231134   3.600   1.947   6.959
10397TIP3   OH231135   4.051   1.874   6.903
10397TIP3    H131136   4.086   1.926   6.828
10397TIP3    H231137   3.955   1.894   6.897
10398TIP3   OH231138   4.151   1.965   6.664
10398TIP3    H131139   4.225   1.920   6.617
10398TIP3    H231140   4.180   2.059   6.656
10399TIP3   OH231141   2.776   1.705   7.017
10399TIP3    H131142   2.683   1.674   7.017
10399TIP3    H231143   2.822   1.618   7.009
10400TIP3   OH231144   2.574   1.562   6.654
10400TIP3    H131145   2.575   1.604   6.565
10400TIP3    H231146   2.551   1.637   6.710
10401TIP3   OH231147   3.232   1.728   6.896
10401TIP3    H131148   3.285   1.782   6.835
10401TIP3    H231149   3.238   1.779   6.978
10402TIP3   OH231150   3.769   1.883   6.877
10402TIP3    H131151   3.760   1.844   6.790
10402TIP3    H231152   3.757   1.805   6.936
10403TIP3   OH231153   3.797   1.809   6.445
10403TIP3    H131154   3.712   1.853   6.462
10403TIP3    H231155   3.782   1.722   6.487
10404TIP3   OH231156   2.282   3.148   6.441
10404TIP3    H131157   2.196   3.115   6.408
10404TIP3    H231158   2.272   3.243   6.420
10405TIP3   OH231159   3.209   1.913   6.521
10405TIP3    H131160   3.259   1.863   6.588
10405TIP3    H231161   3.230   2.005   6.549
10406TIP3   OH231162   3.053   3.327   6.026
10406TIP3    H131163   3.141   3.352   5.991
10406TIP3    H231164   3.030   3.256   5.962
10407TIP3   OH231165   3.772   3.453   6.119
10407TIP3    H131166   3.762   3.355   6.106
10407TIP3    H231167   3.727   3.486   6.039
10408TIP3   OH231168   3.026   2.010   7.877
10408TIP3    H131169   3.018   1.939   7.943
10408TIP3    H231170   3.119   2.004   7.853
10409TIP3   OH231171   2.356   3.168   6.080
10409TIP3    H131172   2.360   3.189   6.174
10409TIP3    H231173   2.443   3.125   6.064
10410TIP3   OH231174   4.062   2.046   7.796
10410TIP3    H131175   4.091   2.028   7.888
10410TIP3    H231176   4.148   2.048   7.750
10411TIP3   OH231177   3.994   3.593   7.311
10411TIP3    H131178   3.919   3.561   7.256
10411TIP3    H231179   3.976   3.689   7.311
10412TIP3   OH231180   5.265   2.968   6.070
10412TIP3    H131181   5.236   3.059   6.050
10412TIP3    H231182   5.188   2.918   6.035
10413TIP3   OH231183   5.263   2.970   6.456
10413TIP3    H131184   5.298   2.946   6.543
10413TIP3    H231185   5.223   2.887   6.427
10414TIP3   OH231186   4.562   2.863   6.821
10414TIP3    H131187   4.594   2.794   6.883
10414TIP3    H231188   4.643   2.912   6.803
10415TIP3   OH231189   5.509   3.272   6.138
10415TIP3    H131190   5.498   3.206   6.208
10415TIP3    H231191   5.543   3.348   6.189
10416TIP3   OH231192   4.538   3.273   6.543
10416TIP3    H131193   4.530   3.176   6.544
10416TIP3    H231194   4.635   3.282   6.530
10417TIP3   OH231195   4.240   2.469   6.325
10417TIP3    H131196   4.197   2.554   6.344
10417TIP3    H231197   4.168   2.424   6.277
10418TIP3   OH231198   4.299   2.762   6.503
10418TIP3    H131199   4.351   2.686   6.535
10418TIP3    H231200   4.360   2.803   6.440
10419TIP3   OH231201   5.160   3.733   6.152
10419TIP3    H131202   5.202   3.661   6.100
10419TIP3    H231203   5.151   3.691   6.239
10420TIP3   OH231204   5.062   3.194   6.504
10420TIP3    H131205   5.104   3.119   6.458
10420TIP3    H231206   5.143   3.242   6.529
10421TIP3   OH231207   6.079   2.511   6.502
10421TIP3    H131208   6.103   2.594   6.548
10421TIP3    H231209   6.100   2.534   6.410
10422TIP3   OH231210   5.473   2.693   6.532
10422TIP3    H131211   5.517   2.608   6.552
10422TIP3    H231212   5.442   2.677   6.441
10423TIP3   OH231213   4.816   2.354   6.499
10423TIP3    H131214   4.799   2.431   6.440
10423TIP3    H231215   4.767   2.285   6.450
10424TIP3   OH231216   5.511   2.448   6.119
10424TIP3    H131217   5.583   2.434   6.185
10424TIP3    H231218   5.563   2.483   6.045
10425TIP3   OH231219   4.446   2.556   6.607
10425TIP3    H131220   4.531   2.541   6.654
10425TIP3    H231221   4.461   2.502   6.527
10426TIP3   OH231222   4.888   2.756   6.406
10426TIP3    H131223   4.983   2.731   6.414
10426TIP3    H231224   4.848   2.673   6.373
10427TIP3   OH231225   6.142   2.718   6.679
10427TIP3    H131226   6.074   2.782   6.648
10427TIP3    H231227   6.190   2.774   6.744
10428TIP3   OH231228   4.809   2.339   6.933
10428TIP3    H131229   4.752   2.379   6.865
10428TIP3    H231230   4.756   2.359   7.013
10429TIP3   OH231231   5.151   3.188   5.939
10429TIP3    H131232   5.113   3.178   5.851
10429TIP3    H231233   5.109   3.271   5.969
10430TIP3   OH231234   4.916   3.114   6.725
10430TIP3    H131235   4.857   3.184   6.760
10430TIP3    H231236   4.961   3.161   6.651
10431TIP3   OH231237   5.716   2.453   6.298
10431TIP3    H131238   5.698   2.413   6.384
10431TIP3    H231239   5.768   2.531   6.323
10432TIP3   OH231240   4.683   2.454   6.716
10432TIP3    H131241   4.744   2.528   6.740
10432TIP3    H231242   4.732   2.415   6.641
10433TIP3   OH231243   4.747   3.312   6.826
10433TIP3    H131244   4.722   3.398   6.786
10433TIP3    H231245   4.667   3.297   6.881
10434TIP3   OH231246   4.135   2.999   6.061
10434TIP3    H131247   4.097   3.028   5.976
10434TIP3    H231248   4.167   3.084   6.097
10435TIP3   OH231249   5.575   3.518   6.299
10435TIP3    H131250   5.485   3.508   6.338
10435TIP3    H231251   5.568   3.605   6.255
10436TIP3   OH231252   5.870   2.404   6.661
10436TIP3    H131253   5.785   2.440   6.631
10436TIP3    H231254   5.933   2.443   6.596
10437TIP3   OH231255   5.161   2.054   6.645
10437TIP3    H131256   5.148   1.960   6.665
10437TIP3    H231257   5.087   2.094   6.694
10438TIP3   OH231258   5.276   3.559   5.971
10438TIP3    H131259   5.327   3.476   5.952
10438TIP3    H231260   5.339   3.624   5.933
10439TIP3   OH231261   5.421   3.343   5.886
10439TIP3    H131262   5.384   3.262   5.849
10439TIP3    H231263   5.459   3.310   5.971
10440TIP3   OH231264   5.806   3.424   6.649
10440TIP3    H131265   5.793   3.347   6.590
10440TIP3    H231266   5.788   3.498   6.587
10441TIP3   OH231267   5.095   2.820   5.904
10441TIP3    H131268   5.016   2.874   5.885
10441TIP3    H231269   5.141   2.820   5.818
10442TIP3   OH231270   5.053   2.608   5.615
10442TIP3    H131271   5.119   2.660   5.665
10442TIP3    H231272   5.113   2.546   5.567
10443TIP3   OH231273   5.443   2.902   5.873
10443TIP3    H131274   5.389   2.927   5.952
10443TIP3    H231275   5.528   2.880   5.916
10444TIP3   OH231276   5.677   2.939   6.792
10444TIP3    H131277   5.677   3.024   6.840
10444TIP3    H231278   5.592   2.947   6.743
10445TIP3   OH231279   4.675   2.900   6.294
10445TIP3    H131280   4.632   2.843   6.226
10445TIP3    H231281   4.752   2.847   6.322
10446TIP3   OH231282   4.802   3.305   6.441
10446TIP3    H131283   4.785   3.278   6.349
10446TIP3    H231284   4.892   3.271   6.457
10447TIP3   OH231285   4.807   2.873   6.647
10447TIP3    H131286   4.841   2.847   6.559
10447TIP3    H231287   4.853   2.958   6.663
10448TIP3   OH231288   5.334   3.511   6.423
10448TIP3    H131289   5.323   3.591   6.476
10448TIP3    H231290   5.319   3.438   6.487
10449TIP3   OH231291   4.951   3.427   6.972
10449TIP3    H131292   4.889   3.489   7.016
10449TIP3    H231293   4.888   3.374   6.919
10450TIP3   OH231294   5.282   2.760   5.700
10450TIP3    H131295   5.341   2.822   5.750
10450TIP3    H231296   5.309   2.781   5.607
10451TIP3   OH231297   4.707   2.977   7.082
10451TIP3    H131298   4.711   3.069   7.116
10451TIP3    H231299   4.611   2.961   7.086
10452TIP3   OH231300   5.029   3.438   5.977
10452TIP3    H131301   5.111   3.489   5.984
10452TIP3    H231302   4.969   3.500   5.934
10453TIP3   OH231303   4.741   3.592   7.058
10453TIP3    H131304   4.710   3.596   6.965
10453TIP3    H231305   4.658   3.577   7.107
10454TIP3   OH231306   5.798   1.999   5.750
10454TIP3    H131307   5.717   2.023   5.799
10454TIP3    H231308   5.815   2.082   5.700
10455TIP3   OH231309   4.539   2.745   6.101
10455TIP3    H131310   4.472   2.790   6.044
10455TIP3    H231311   4.509   2.654   6.098
10456TIP3   OH231312   5.599   3.367   5.298
10456TIP3    H131313   5.606   3.464   5.283
10456TIP3    H231314   5.692   3.339   5.286
10457TIP3   OH231315   4.322   3.129   7.004
10457TIP3    H131316   4.255   3.111   6.935
10457TIP3    H231317   4.360   3.041   7.021
10458TIP3   OH231318   4.176   3.318   6.640
10458TIP3    H131319   4.272   3.318   6.626
10458TIP3    H231320   4.164   3.401   6.690
10459TIP3   OH231321   6.041   3.776   6.692
10459TIP3    H131322   6.042   3.678   6.704
10459TIP3    H231323   5.957   3.798   6.738
10460TIP3   OH231324   5.148   3.556   6.829
10460TIP3    H131325   5.143   3.649   6.860
10460TIP3    H231326   5.076   3.515   6.882
10461TIP3   OH231327   4.912   3.684   5.781
10461TIP3    H131328   4.865   3.669   5.697
10461TIP3    H231329   4.878   3.771   5.808
10462TIP3   OH231330   4.347   3.532   6.165
10462TIP3    H131331   4.395   3.526   6.250
10462TIP3    H231332   4.289   3.455   6.171
10463TIP3   OH231333   5.109   3.587   5.417
10463TIP3    H131334   5.168   3.518   5.381
10463TIP3    H231335   5.145   3.599   5.507
10464TIP3   OH231336   5.162   3.636   5.686
10464TIP3    H131337   5.073   3.646   5.728
10464TIP3    H231338   5.214   3.601   5.760
10465TIP3   OH231339   5.932   2.899   6.959
10465TIP3    H131340   5.850   2.911   6.908
10465TIP3    H231341   5.945   2.803   6.953
10466TIP3   OH231342   4.528   3.311   6.991
10466TIP3    H131343   4.577   3.291   7.073
10466TIP3    H231344   4.452   3.250   6.997
10467TIP3   OH231345   4.928   2.133   6.780
10467TIP3    H131346   4.839   2.105   6.752
10467TIP3    H231347   4.905   2.216   6.826
10468TIP3   OH231348   5.464   2.246   6.972
10468TIP3    H131349   5.533   2.219   7.035
10468TIP3    H231350   5.381   2.228   7.020
10469TIP3   OH231351   5.694   2.674   6.884
10469TIP3    H131352   5.647   2.674   6.970
10469TIP3    H231353   5.676   2.764   6.850
10470TIP3   OH231354   5.359   2.799   5.444
10470TIP3    H131355   5.325   2.780   5.354
10470TIP3    H231356   5.440   2.848   5.422
10471TIP3   OH231357   5.058   2.184   5.732
10471TIP3    H131358   5.038   2.187   5.829
10471TIP3    H231359   5.041   2.091   5.714
10472TIP3   OH231360   4.858   2.650   6.794
10472TIP3    H131361   4.809   2.672   6.876
10472TIP3    H231362   4.843   2.732   6.741
10473TIP3   OH231363   4.742   2.541   6.319
10473TIP3    H131364   4.649   2.515   6.330
10473TIP3    H231365   4.757   2.512   6.225
10474TIP3   OH231366   5.234   2.622   6.039
10474TIP3    H131367   5.183   2.694   5.995
10474TIP3    H231368   5.288   2.588   5.965
10475TIP3   OH231369   5.408   2.896   7.121
10475TIP3    H131370   5.388   2.823   7.184
10475TIP3    H231371   5.502   2.911   7.141
10476TIP3   OH231372   5.386   2.646   6.276
10476TIP3    H131373   5.326   2.677   6.204
10476TIP3    H231374   5.422   2.567   6.230
10477TIP3   OH231375   4.679   2.678   7.003
10477TIP3    H131376   4.708   2.745   7.068
10477TIP3    H231377   4.668   2.599   7.058
10478TIP3   OH231378   4.270   2.195   6.594
10478TIP3    H131379   4.344   2.236   6.643
10478TIP3    H231380   4.302   2.189   6.504
10479TIP3   OH231381   4.239   2.178   6.110
10479TIP3    H131382   4.275   2.217   6.027
10479TIP3    H231383   4.176   2.249   6.133
10480TIP3   OH231384   5.392   2.891   6.696
10480TIP3    H131385   5.429   2.821   6.637
10480TIP3    H231386   5.365   2.837   6.772
10481TIP3   OH231387   5.075   2.352   6.373
10481TIP3    H131388   4.994   2.354   6.426
10481TIP3    H231389   5.144   2.355   6.441
10482TIP3   OH231390   4.501   2.414   6.380
10482TIP3    H131391   4.408   2.422   6.349
10482TIP3    H231392   4.528   2.326   6.347
10483TIP3   OH231393   4.771   2.440   6.071
10483TIP3    H131394   4.863   2.427   6.043
10483TIP3    H231395   4.721   2.429   5.987
10484TIP3   OH231396   5.560   2.432   6.572
10484TIP3    H131397   5.529   2.446   6.664
10484TIP3    H231398   5.491   2.372   6.539
10485TIP3   OH231399   4.614   2.438   5.840
10485TIP3    H131400   4.545   2.396   5.784
10485TIP3    H231401   4.669   2.480   5.772
10486TIP3   OH231402   5.735   4.122   6.792
10486TIP3    H131403   5.731   4.146   6.698
10486TIP3    H231404   5.814   4.172   6.822
10487TIP3   OH231405   4.689   3.229   7.213
10487TIP3    H131406   4.769   3.261   7.259
10487TIP3    H231407   4.625   3.229   7.287
10488TIP3   OH231408   5.153   2.683   6.464
10488TIP3    H131409   5.229   2.652   6.413
10488TIP3    H231410   5.166   2.640   6.550
10489TIP3   OH231411   4.673   2.178   6.341
10489TIP3    H131412   4.651   2.091   6.379
10489TIP3    H231413   4.724   2.154   6.262
10490TIP3   OH231414   5.128   2.581   6.764
10490TIP3    H131415   5.039   2.621   6.772
10490TIP3    H231416   5.186   2.645   6.809
10491TIP3   OH231417   4.865   2.970   5.852
10491TIP3    H131418   4.792   2.907   5.840
10491TIP3    H231419   4.844   3.006   5.942
10492TIP3   OH231420   5.758   3.211   6.489
10492TIP3    H131421   5.801   3.249   6.410
10492TIP3    H231422   5.680   3.165   6.452
10493TIP3   OH231423   5.318   2.281   5.722
10493TIP3    H131424   5.221   2.269   5.723
10493TIP3    H231425   5.330   2.376   5.744
10494TIP3   OH231426   5.257   3.287   6.852
10494TIP3    H131427   5.300   3.280   6.938
10494TIP3    H231428   5.226   3.380   6.851
10495TIP3   OH231429   5.391   2.532   5.819
10495TIP3    H131430   5.487   2.540   5.835
10495TIP3    H231431   5.371   2.613   5.769
10496TIP3   OH231432   4.556   2.993   6.526
10496TIP3    H131433   4.594   2.969   6.439
10496TIP3    H231434   4.609   2.937   6.585
10497TIP3   OH231435   5.011   3.122   5.676
10497TIP3    H131436   4.962   3.208   5.678
10497TIP3    H231437   4.956   3.068   5.737
10498TIP3   OH231438   4.440   2.913   7.141
10498TIP3    H131439   4.453   2.897   7.236
10498TIP3    H231440   4.368   2.850   7.120
10499TIP3   OH231441   5.167   3.029   7.164
10499TIP3    H131442   5.108   2.975   7.110
10499TIP3    H231443   5.255   2.996   7.134
10500TIP3   OH231444   5.423   3.546   6.752
10500TIP3    H131445   5.326   3.551   6.761
10500TIP3    H231446   5.451   3.603   6.826
10501TIP3   OH231447   5.831   2.627   5.654
10501TIP3    H131448   5.770   2.583   5.590
10501TIP3    H231449   5.828   2.717   5.615
10502TIP3   OH231450   6.058   3.490   6.729
10502TIP3    H131451   5.961   3.478   6.723
10502TIP3    H231452   6.085   3.449   6.643
10503TIP3   OH231453   5.537   3.443   5.563
10503TIP3    H131454   5.508   3.374   5.624
10503TIP3    H231455   5.549   3.396   5.479
10504TIP3   OH231456   5.527   3.072   6.392
10504TIP3    H131457   5.434   3.047   6.405
10504TIP3    H231458   5.562   2.991   6.349
10505TIP3   OH231459   4.662   3.302   6.156
10505TIP3    H131460   4.661   3.383   6.100
10505TIP3    H231461   4.568   3.285   6.164
10506TIP3   OH231462   4.225   2.603   5.857
10506TIP3    H131463   4.269   2.687   5.877
10506TIP3    H231464   4.148   2.607   5.918
10507TIP3   OH231465   4.790   3.063   6.095
10507TIP3    H131466   4.759   3.154   6.113
10507TIP3    H231467   4.755   3.014   6.171
10508TIP3   OH231468   4.930   3.642   6.620
10508TIP3    H131469   4.970   3.716   6.569
10508TIP3    H231470   5.009   3.607   6.665
10509TIP3   OH231471   4.580   3.536   6.006
10509TIP3    H131472   4.494   3.548   6.050
10509TIP3    H231473   4.615   3.628   6.008
10510TIP3   OH231474   5.313   3.277   6.582
10510TIP3    H131475   5.305   3.272   6.680
10510TIP3    H231476   5.396   3.229   6.567
10511TIP3   OH231477   5.294   3.170   5.464
10511TIP3    H131478   5.347   3.144   5.544
10511TIP3    H231479   5.205   3.146   5.493
10512TIP3   OH231480   5.563   3.809   6.630
10512TIP3    H131481   5.481   3.757   6.620
10512TIP3    H231482   5.551   3.875   6.558
10513TIP3   OH231483   5.630   3.642   5.282
10513TIP3    H131484   5.663   3.715   5.227
10513TIP3    H231485   5.550   3.687   5.319
10514TIP3   OH231486   4.647   2.421   7.148
10514TIP3    H131487   4.550   2.424   7.158
10514TIP3    H231488   4.673   2.362   7.220
10515TIP3   OH231489   5.454   3.101   5.679
10515TIP3    H131490   5.445   3.036   5.751
10515TIP3    H231491   5.552   3.100   5.667
10516TIP3   OH231492   4.367   3.504   6.779
10516TIP3    H131493   4.422   3.433   6.814
10516TIP3    H231494   4.398   3.581   6.829
10517TIP3   OH231495   4.658   3.149   5.464
10517TIP3    H131496   4.670   3.056   5.439
10517TIP3    H231497   4.636   3.141   5.559
10518TIP3   OH231498   4.600   3.155   5.736
10518TIP3    H131499   4.676   3.132   5.791
10518TIP3    H231500   4.602   3.254   5.742
10519TIP3   OH231501   4.333   2.847   5.940
10519TIP3    H131502   4.268   2.893   5.996
10519TIP3    H231503   4.348   2.915   5.871
10520TIP3   OH231504   5.488   2.485   6.832
10520TIP3    H131505   5.570   2.527   6.865
10520TIP3    H231506   5.480   2.405   6.888
10521TIP3   OH231507   5.374   2.230   6.002
10521TIP3    H131508   5.355   2.253   5.909
10521TIP3    H231509   5.411   2.314   6.037
10522TIP3   OH231510   4.868   3.351   5.684
10522TIP3    H131511   4.781   3.376   5.720
10522TIP3    H231512   4.885   3.428   5.627
10523TIP3   OH231513   5.060   2.420   6.105
10523TIP3    H131514   5.120   2.495   6.087
10523TIP3    H231515   5.063   2.414   6.202
10524TIP3   OH231516   5.325   2.730   6.906
10524TIP3    H131517   5.352   2.784   6.983
10524TIP3    H231518   5.381   2.651   6.914
10525TIP3   OH231519   5.200   2.136   6.206
10525TIP3    H131520   5.185   2.217   6.258
10525TIP3    H231521   5.261   2.171   6.137
10526TIP3   OH231522   4.613   3.426   5.754
10526TIP3    H131523   4.584   3.497   5.691
10526TIP3    H231524   4.598   3.470   5.840
10527TIP3   OH231525   5.964   2.630   6.900
10527TIP3    H131526   5.866   2.622   6.890
10527TIP3    H231527   5.994   2.625   6.808
10528TIP3   OH231528   5.616   2.826   6.275
10528TIP3    H131529   5.541   2.767   6.289
10528TIP3    H231530   5.688   2.781   6.324
10529TIP3   OH231531   4.329   3.053   5.744
10529TIP3    H131532   4.397   3.123   5.753
10529TIP3    H231533   4.374   2.997   5.677
10530TIP3   OH231534   4.266   2.330   5.888
10530TIP3    H131535   4.278   2.427   5.881
10530TIP3    H231536   4.196   2.317   5.823
10531TIP3   OH231537   5.585   3.787   6.223
10531TIP3    H131538   5.543   3.834   6.148
10531TIP3    H231539   5.680   3.805   6.202
10532TIP3   OH231540   4.663   2.052   6.748
10532TIP3    H131541   4.628   2.018   6.666
10532TIP3    H231542   4.655   1.975   6.808
10533TIP3   OH231543   4.193   3.262   6.128
10533TIP3    H131544   4.132   3.299   6.193
10533TIP3    H231545   4.163   3.310   6.046
10534TIP3   OH231546   4.820   3.799   7.232
10534TIP3    H131547   4.914   3.783   7.251
10534TIP3    H231548   4.800   3.724   7.172
10535TIP3   OH231549   4.819   3.353   5.372
10535TIP3    H131550   4.765   3.280   5.411
10535TIP3    H231551   4.895   3.302   5.338
10536TIP3   OH231552   5.473   3.687   6.984
10536TIP3    H131553   5.469   3.616   7.053
10536TIP3    H231554   5.552   3.738   7.012
10537TIP3   OH231555   5.254   3.391   5.287
10537TIP3    H131556   5.300   3.329   5.347
10537TIP3    H231557   5.310   3.390   5.207
10538TIP3   OH231558   4.486   3.222   7.404
10538TIP3    H131559   4.501   3.126   7.411
10538TIP3    H231560   4.400   3.225   7.357
10539TIP3   OH231561   4.465   2.867   5.600
10539TIP3    H131562   4.523   2.839   5.673
10539TIP3    H231563   4.532   2.873   5.527
10540TIP3   OH231564   5.091   3.307   7.179
10540TIP3    H131565   5.054   3.330   7.091
10540TIP3    H231566   5.125   3.216   7.165
10541TIP3   OH231567   4.982   3.069   5.406
10541TIP3    H131568   4.982   3.082   5.503
10541TIP3    H231569   4.979   2.971   5.400
10542TIP3   OH231570   5.587   3.320   6.788
10542TIP3    H131571   5.665   3.356   6.739
10542TIP3    H231572   5.522   3.391   6.769
10543TIP3   OH231573   4.607   2.957   7.391
10543TIP3    H131574   4.688   2.922   7.351
10543TIP3    H231575   4.640   2.991   7.477
10544TIP3   OH231576   4.670   2.774   5.817
10544TIP3    H131577   4.649   2.732   5.901
10544TIP3    H231578   4.709   2.700   5.766
10545TIP3   OH231579   4.942   2.836   7.046
10545TIP3    H131580   4.865   2.897   7.048
10545TIP3    H231581   4.994   2.872   6.970
10546TIP3   OH231582   4.775   2.569   5.659
10546TIP3    H131583   4.749   2.579   5.565
10546TIP3    H231584   4.873   2.574   5.651
10547TIP3   OH231585   5.459   3.240   7.180
10547TIP3    H131586   5.535   3.213   7.128
10547TIP3    H231587   5.457   3.174   7.251
10548TIP3   OH231588   5.593   2.896   5.326
10548TIP3    H131589   5.573   2.854   5.241
10548TIP3    H231590   5.562   2.988   5.307
10549TIP3   OH231591   5.065   2.629   7.174
10549TIP3    H131592   5.067   2.551   7.115
10549TIP3    H231593   5.023   2.697   7.116
10550TIP3   OH231594   5.068   2.414   6.984
10550TIP3    H131595   5.098   2.458   6.902
10550TIP3    H231596   4.975   2.393   6.963
10551TIP3   OH231597   5.092   2.950   6.856
10551TIP3    H131598   5.178   2.964   6.815
10551TIP3    H231599   5.036   3.015   6.809
10552TIP3   OH231600   5.677   2.917   7.231
10552TIP3    H131601   5.727   2.834   7.238
10552TIP3    H231602   5.744   2.976   7.193
10553TIP3   OH231603   5.720   3.171   6.970
10553TIP3    H131604   5.664   3.227   6.911
10553TIP3    H231605   5.809   3.189   6.931
10554TIP3   OH231606   4.943   2.735   7.408
10554TIP3    H131607   4.876   2.664   7.419
10554TIP3    H231608   4.977   2.716   7.318
10555TIP3   OH231609   5.200   2.177   7.051
10555TIP3    H131610   5.151   2.258   7.027
10555TIP3    H231611   5.132   2.108   7.039
10556TIP3   OH231612   5.327   2.678   7.265
10556TIP3    H131613   5.313   2.664   7.360
10556TIP3    H231614   5.237   2.656   7.232
10557TIP3   OH231615   5.566   2.633   7.119
10557TIP3    H131616   5.492   2.633   7.182
10557TIP3    H231617   5.641   2.603   7.175
10558TIP3   OH231618   5.792   2.573   7.271
10558TIP3    H131619   5.806   2.477   7.286
10558TIP3    H231620   5.790   2.609   7.362
10559TIP3   OH231621   4.783   2.513   7.461
10559TIP3    H131622   4.788   2.423   7.424
10559TIP3    H231623   4.825   2.500   7.548
10560TIP3   OH231624   5.291   2.186   7.310
10560TIP3    H131625   5.359   2.115   7.303
10560TIP3    H231626   5.253   2.182   7.220
10561TIP3   OH231627   5.359   2.400   7.468
10561TIP3    H131628   5.339   2.329   7.403
10561TIP3    H231629   5.282   2.459   7.459
10562TIP3   OH231630   4.583   3.625   5.564
10562TIP3    H131631   4.678   3.621   5.546
10562TIP3    H231632   4.554   3.680   5.489
10563TIP3   OH231633   4.061   3.012   5.781
10563TIP3    H131634   4.156   3.035   5.766
10563TIP3    H231635   4.056   2.924   5.738
10564TIP3   OH231636   3.979   3.620   6.195
10564TIP3    H131637   3.912   3.560   6.156
10564TIP3    H231638   4.022   3.560   6.259
10565TIP3   OH231639   4.115   3.466   6.380
10565TIP3    H131640   4.099   3.401   6.449
10565TIP3    H231641   4.167   3.532   6.429
10566TIP3   OH231642   5.841   3.873   6.184
10566TIP3    H131643   5.867   3.908   6.271
10566TIP3    H231644   5.903   3.917   6.124
10567TIP3   OH231645   5.867   3.895   6.467
10567TIP3    H131646   5.822   3.808   6.460
10567TIP3    H231647   5.943   3.870   6.522
10568TIP3   OH231648   5.916   3.571   7.040
10568TIP3    H131649   5.843   3.582   7.105
10568TIP3    H231650   5.958   3.659   7.042
10569TIP3   OH231651   5.733   3.083   5.656
10569TIP3    H131652   5.797   3.150   5.626
10569TIP3    H231653   5.778   3.047   5.735
10570TIP3   OH231654   5.860   2.950   5.859
10570TIP3    H131655   5.793   2.912   5.920
10570TIP3    H231656   5.926   2.988   5.921
10571TIP3   OH231657   5.914   3.344   6.301
10571TIP3    H131658   5.973   3.276   6.260
10571TIP3    H231659   5.908   3.410   6.229
10572TIP3   OH231660   5.743   3.644   6.486
10572TIP3    H131661   5.669   3.685   6.535
10572TIP3    H231662   5.697   3.597   6.414
10573TIP3   OH231663   5.796   2.860   5.506
10573TIP3    H131664   5.725   2.863   5.439
10573TIP3    H231665   5.770   2.936   5.561
10574TIP3   OH231666   5.669   2.531   5.458
10574TIP3    H131667   5.621   2.572   5.385
10574TIP3    H231668   5.645   2.437   5.447
10575TIP3   OH231669   5.670   2.812   6.006
10575TIP3    H131670   5.680   2.716   6.000
10575TIP3    H231671   5.657   2.826   6.102
10576TIP3   OH231672   4.297   2.877   6.757
10576TIP3    H131673   4.295   2.847   6.663
10576TIP3    H231674   4.395   2.882   6.771
10577TIP3   OH231675   5.969   3.228   6.860
10577TIP3    H131676   6.047   3.170   6.854
10577TIP3    H231677   5.981   3.287   6.785
10578TIP3   OH231678   6.160   3.046   6.962
10578TIP3    H131679   6.077   2.993   6.959
10578TIP3    H231680   6.214   2.997   6.897
10579TIP3   OH231681   5.612   2.264   5.440
10579TIP3    H131682   5.683   2.235   5.500
10579TIP3    H231683   5.536   2.208   5.464
10580TIP3   OH231684   5.669   2.526   5.898
10580TIP3    H131685   5.711   2.438   5.912
10580TIP3    H231686   5.726   2.562   5.828
10581TIP3   OH231687   5.831   2.697   6.397
10581TIP3    H131688   5.915   2.725   6.354
10581TIP3    H231689   5.844   2.742   6.483
10582TIP3   OH231690   5.897   2.861   6.620
10582TIP3    H131691   5.817   2.886   6.671
10582TIP3    H231692   5.930   2.948   6.594
10583TIP3   OH231693   4.516   2.568   7.432
10583TIP3    H131694   4.614   2.561   7.432
10583TIP3    H231695   4.492   2.480   7.467
10584TIP3   OH231696   6.354   2.438   7.185
10584TIP3    H131697   6.413   2.373   7.140
10584TIP3    H231698   6.319   2.488   7.108
10585TIP3   OH231699   5.779   2.277   5.937
10585TIP3    H131700   5.827   2.261   6.021
10585TIP3    H231701   5.717   2.201   5.936
10586TIP3   OH231702   4.481   2.264   6.758
10586TIP3    H131703   4.545   2.193   6.773
10586TIP3    H231704   4.540   2.341   6.749
10587TIP3   OH231705   4.279   2.533   6.832
10587TIP3    H131706   4.328   2.532   6.748
10587TIP3    H231707   4.300   2.621   6.865
10588TIP3   OH231708   6.216   2.569   6.993
10588TIP3    H131709   6.130   2.614   7.004
10588TIP3    H231710   6.187   2.498   6.931
10589TIP3   OH231711   5.855   2.208   5.574
10589TIP3    H131712   5.896   2.140   5.517
10589TIP3    H231713   5.921   2.280   5.571
10590TIP3   OH231714   4.276   2.042   6.342
10590TIP3    H131715   4.182   2.030   6.365
10590TIP3    H231716   4.268   2.092   6.258
10591TIP3   OH231717   5.424   3.742   5.839
10591TIP3    H131718   5.475   3.733   5.756
10591TIP3    H231719   5.474   3.811   5.885
10592TIP3   OH231720   4.483   2.116   7.145
10592TIP3    H131721   4.432   2.114   7.227
10592TIP3    H231722   4.419   2.157   7.084
10593TIP3   OH231723   4.515   3.561   7.229
10593TIP3    H131724   4.420   3.549   7.210
10593TIP3    H231725   4.526   3.508   7.309
10594TIP3   OH231726   4.705   3.583   6.771
10594TIP3    H131727   4.657   3.659   6.731
10594TIP3    H231728   4.791   3.596   6.725
10595TIP3   OH231729   5.141   3.824   6.908
10595TIP3    H131730   5.184   3.824   6.996
10595TIP3    H231731   5.206   3.875   6.856
10596TIP3   OH231732   5.322   3.976   6.771
10596TIP3    H131733   5.392   3.929   6.724
10596TIP3    H231734   5.376   4.033   6.831
10597TIP3   OH231735   6.121   2.336   6.867
10597TIP3    H131736   6.031   2.333   6.829
10597TIP3    H231737   6.150   2.243   6.855
10598TIP3   OH231738   4.377   3.834   6.797
10598TIP3    H131739   4.288   3.862   6.768
10598TIP3    H231740   4.390   3.893   6.872
10599TIP3   OH231741   4.614   3.814   6.653
10599TIP3    H131742   4.526   3.826   6.694
10599TIP3    H231743   4.598   3.849   6.563
10600TIP3   OH231744   5.039   3.840   6.454
10600TIP3    H131745   4.970   3.857   6.386
10600TIP3    H231746   5.051   3.930   6.491
10601TIP3   OH231747   5.309   3.780   6.507
10601TIP3    H131748   5.215   3.799   6.486
10601TIP3    H231749   5.354   3.852   6.458
10602TIP3   OH231750   5.514   3.971   6.416
10602TIP3    H131751   5.500   4.056   6.368
10602TIP3    H231752   5.541   3.912   6.342
10603TIP3   OH231753   4.285   3.626   6.537
10603TIP3    H131754   4.313   3.600   6.627
10603TIP3    H231755   4.360   3.588   6.486
10604TIP3   OH231756   4.484   3.502   6.399
10604TIP3    H131757   4.501   3.419   6.449
10604TIP3    H231758   4.574   3.540   6.394
10605TIP3   OH231759   4.749   3.592   6.404
10605TIP3    H131760   4.783   3.502   6.391
10605TIP3    H231761   4.797   3.618   6.485
10606TIP3   OH231762   5.330   2.255   6.494
10606TIP3    H131763   5.285   2.182   6.539
10606TIP3    H231764   5.401   2.209   6.445
10607TIP3   OH231765   5.845   2.128   6.389
10607TIP3    H131766   5.882   2.182   6.316
10607TIP3    H231767   5.750   2.153   6.386
10608TIP3   OH231768   5.942   2.228   6.154
10608TIP3    H131769   6.017   2.178   6.116
10608TIP3    H231770   5.975   2.320   6.141
10609TIP3   OH231771   4.567   1.927   6.436
10609TIP3    H131772   4.480   1.923   6.482
10609TIP3    H231773   4.616   1.859   6.487
10610TIP3   OH231774   5.020   1.990   6.392
10610TIP3    H131775   5.072   2.032   6.322
10610TIP3    H231776   5.058   2.032   6.471
10611TIP3   OH231777   5.559   2.140   6.367
10611TIP3    H131778   5.559   2.103   6.278
10611TIP3    H231779   5.548   2.060   6.423
10612TIP3   OH231780   5.594   2.065   5.930
10612TIP3    H131781   5.510   2.112   5.949
10612TIP3    H231782   5.577   1.979   5.974
10613TIP3   OH231783   4.077   3.406   5.931
10613TIP3    H131784   3.990   3.376   5.897
10613TIP3    H231785   4.071   3.500   5.907
10614TIP3   OH231786   4.466   2.009   5.891
10614TIP3    H131787   4.536   1.945   5.914
10614TIP3    H231788   4.486   2.081   5.951
10615TIP3   OH231789   5.015   2.176   5.997
10615TIP3    H131790   5.049   2.122   6.069
10615TIP3    H231791   5.031   2.266   6.033
10616TIP3   OH231792   4.851   3.585   5.515
10616TIP3    H131793   4.938   3.610   5.477
10616TIP3    H231794   4.828   3.512   5.453
10617TIP3   OH231795   5.570   3.710   5.607
10617TIP3    H131796   5.562   3.613   5.595
10617TIP3    H231797   5.523   3.742   5.527
10618TIP3   OH231798   4.780   2.238   7.394
10618TIP3    H131799   4.746   2.167   7.451
10618TIP3    H231800   4.874   2.239   7.422
10619TIP3   OH231801   5.029   2.241   7.515
10619TIP3    H131802   5.114   2.220   7.473
10619TIP3    H231803   5.021   2.168   7.580
10620TIP3   OH231804   4.150   3.419   5.566
10620TIP3    H131805   4.157   3.452   5.657
10620TIP3    H231806   4.238   3.379   5.551
10621TIP3   OH231807   5.858   2.302   7.300
10621TIP3    H131808   5.877   2.271   7.391
10621TIP3    H231809   5.947   2.297   7.259
10622TIP3   OH231810   5.791   3.851   6.795
10622TIP3    H131811   5.714   3.821   6.741
10622TIP3    H231812   5.773   3.947   6.798
10623TIP3   OH231813   7.062   3.227   5.555
10623TIP3    H131814   7.032   3.318   5.534
10623TIP3    H231815   6.985   3.176   5.524
10624TIP3   OH231816   7.064   3.225   5.942
10624TIP3    H131817   7.097   3.200   6.030
10624TIP3    H231818   7.018   3.144   5.914
10625TIP3   OH231819   6.356   3.121   6.284
10625TIP3    H131820   6.333   3.081   6.370
10625TIP3    H231821   6.436   3.171   6.308
10626TIP3   OH231822   7.307   3.530   5.623
10626TIP3    H131823   7.288   3.462   5.689
10626TIP3    H231824   7.336   3.605   5.677
10627TIP3   OH231825   6.334   3.533   6.028
10627TIP3    H131826   6.324   3.435   6.029
10627TIP3    H231827   6.430   3.540   6.022
10628TIP3   OH231828   6.039   2.728   5.809
10628TIP3    H131829   5.995   2.812   5.831
10628TIP3    H231830   5.966   2.681   5.765
10629TIP3   OH231831   6.097   3.016   5.983
10629TIP3    H131832   6.146   2.940   6.023
10629TIP3    H231833   6.164   3.054   5.924
10630TIP3   OH231834   6.957   3.991   5.639
10630TIP3    H131835   7.000   3.919   5.589
10630TIP3    H231836   6.942   3.950   5.725
10631TIP3   OH231837   6.858   3.453   5.988
10631TIP3    H131838   6.898   3.376   5.943
10631TIP3    H231839   6.941   3.499   6.013
10632TIP3   OH231840   7.875   2.769   5.985
10632TIP3    H131841   7.902   2.852   6.029
10632TIP3    H231842   7.903   2.786   5.893
10633TIP3   OH231843   7.272   2.951   6.018
10633TIP3    H131844   7.314   2.865   6.038
10633TIP3    H231845   7.240   2.934   5.927
10634TIP3   OH231846   6.615   2.611   5.983
10634TIP3    H131847   6.593   2.685   5.922
10634TIP3    H231848   6.564   2.539   5.941
10635TIP3   OH231849   7.307   2.703   5.605
10635TIP3    H131850   7.378   2.689   5.672
10635TIP3    H231851   7.360   2.739   5.531
10636TIP3   OH231852   6.242   2.812   6.094
10636TIP3    H131853   6.325   2.798   6.143
10636TIP3    H231854   6.258   2.756   6.015
10637TIP3   OH231855   6.686   3.011   5.878
10637TIP3    H131856   6.779   2.985   5.896
10637TIP3    H231857   6.646   2.926   5.850
10638TIP3   OH231858   7.939   2.974   6.165
10638TIP3    H131859   7.858   3.026   6.145
10638TIP3    H231860   7.978   3.026   6.238
10639TIP3   OH231861   6.606   2.594   6.421
10639TIP3    H131862   6.549   2.635   6.353
10639TIP3    H231863   6.553   2.611   6.501
10640TIP3   OH231864   6.954   3.448   5.423
10640TIP3    H131865   6.908   3.432   5.339
10640TIP3    H231866   6.907   3.530   5.453
10641TIP3   OH231867   6.715   3.373   6.213
10641TIP3    H131868   6.652   3.439   6.250
10641TIP3    H231869   6.753   3.423   6.138
10642TIP3   OH231870   7.512   2.708   5.784
10642TIP3    H131871   7.491   2.670   5.871
10642TIP3    H231872   7.564   2.787   5.809
10643TIP3   OH231873   6.479   2.710   6.203
10643TIP3    H131874   6.538   2.785   6.229
10643TIP3    H231875   6.530   2.672   6.129
10644TIP3   OH231876   6.543   3.568   6.314
10644TIP3    H131877   6.516   3.655   6.277
10644TIP3    H231878   6.463   3.547   6.366
10645TIP3   OH231879   5.932   3.256   5.547
10645TIP3    H131880   5.891   3.285   5.464
10645TIP3    H231881   5.964   3.342   5.583
10646TIP3   OH231882   7.374   3.773   5.786
10646TIP3    H131883   7.285   3.764   5.827
10646TIP3    H231884   7.365   3.860   5.742
10647TIP3   OH231885   7.668   2.663   6.149
10647TIP3    H131886   7.582   2.696   6.119
10647TIP3    H231887   7.729   2.700   6.082
10648TIP3   OH231888   6.960   2.311   6.138
10648TIP3    H131889   6.942   2.217   6.153
10648TIP3    H231890   6.884   2.352   6.183
10649TIP3   OH231891   7.074   3.815   5.460
10649TIP3    H131892   7.125   3.733   5.442
10649TIP3    H231893   7.137   3.881   5.420
10650TIP3   OH231894   7.220   3.601   5.370
10650TIP3    H131895   7.170   3.523   5.341
10650TIP3    H231896   7.259   3.568   5.454
10651TIP3   OH231897   7.600   3.682   6.132
10651TIP3    H131898   7.587   3.605   6.073
10651TIP3    H231899   7.581   3.757   6.072
10652TIP3   OH231900   6.892   3.076   5.392
10652TIP3    H131901   6.811   3.129   5.373
10652TIP3    H231902   6.936   3.076   5.305
10653TIP3   OH231903   6.849   2.864   5.102
10653TIP3    H131904   6.915   2.916   5.151
10653TIP3    H231905   6.908   2.802   5.055
10654TIP3   OH231906   7.792   3.316   5.975
10654TIP3    H131907   7.711   3.371   5.976
10654TIP3    H231908   7.830   3.342   5.888
10655TIP3   OH231909   7.240   3.160   5.359
10655TIP3    H131910   7.185   3.184   5.437
10655TIP3    H231911   7.325   3.136   5.403
10656TIP3   OH231912   7.472   3.196   6.278
10656TIP3    H131913   7.470   3.282   6.324
10656TIP3    H231914   7.386   3.199   6.232
10657TIP3   OH231915   6.472   3.154   5.778
10657TIP3    H131916   6.432   3.097   5.709
10657TIP3    H231917   6.550   3.101   5.805
10658TIP3   OH231918   6.603   3.571   5.925
10658TIP3    H131919   6.580   3.533   5.838
10658TIP3    H231920   6.692   3.533   5.941
10659TIP3   OH231921   6.628   3.123   6.131
10659TIP3    H131922   6.651   3.108   6.038
10659TIP3    H231923   6.659   3.214   6.148
10660TIP3   OH231924   7.135   3.766   5.910
10660TIP3    H131925   7.120   3.847   5.963
10660TIP3    H231926   7.117   3.694   5.973
10661TIP3   OH231927   6.746   3.684   6.460
10661TIP3    H131928   6.683   3.746   6.502
10661TIP3    H231929   6.684   3.630   6.407
10662TIP3   OH231930   7.079   3.017   5.187
10662TIP3    H131931   7.137   3.079   5.237
10662TIP3    H231932   7.105   3.039   5.094
10663TIP3   OH231933   6.508   3.247   6.548
10663TIP3    H131934   6.504   3.331   6.596
10663TIP3    H231935   6.421   3.208   6.569
10664TIP3   OH231936   6.826   3.692   5.462
10664TIP3    H131937   6.906   3.748   5.472
10664TIP3    H231938   6.763   3.753   5.421
10665TIP3   OH231939   6.540   3.851   6.545
10665TIP3    H131940   6.506   3.855   6.454
10665TIP3    H231941   6.460   3.828   6.597
10666TIP3   OH231942   7.594   2.256   5.237
10666TIP3    H131943   7.512   2.280   5.287
10666TIP3    H231944   7.610   2.339   5.187
10667TIP3   OH231945   6.341   2.999   5.576
10667TIP3    H131946   6.271   3.045   5.525
10667TIP3    H231947   6.297   2.915   5.596
10668TIP3   OH231948   7.397   3.625   4.784
10668TIP3    H131949   7.406   3.721   4.771
10668TIP3    H231950   7.489   3.594   4.772
10669TIP3   OH231951   6.122   3.366   6.496
10669TIP3    H131952   6.052   3.355   6.429
10669TIP3    H231953   6.151   3.273   6.510
10670TIP3   OH231954   5.972   3.578   6.117
10670TIP3    H131955   6.068   3.569   6.114
10670TIP3    H231956   5.961   3.655   6.176
10671TIP3   OH231957   7.836   4.031   6.180
10671TIP3    H131958   7.836   3.934   6.193
10671TIP3    H231959   7.752   4.055   6.225
10672TIP3   OH231960   6.944   3.811   6.317
10672TIP3    H131961   6.940   3.904   6.346
10672TIP3    H231962   6.870   3.772   6.369
10673TIP3   OH231963   6.710   3.944   5.266
10673TIP3    H131964   6.658   3.927   5.185
10673TIP3    H231965   6.674   4.030   5.295
10674TIP3   OH231966   6.144   3.790   5.651
10674TIP3    H131967   6.190   3.781   5.737
10674TIP3    H231968   6.088   3.710   5.652
10675TIP3   OH231969   6.908   3.847   4.903
10675TIP3    H131970   6.966   3.775   4.869
10675TIP3    H231971   6.939   3.855   4.995
10676TIP3   OH231972   6.957   3.890   5.173
10676TIP3    H131973   6.868   3.902   5.212
10676TIP3    H231974   7.006   3.852   5.248
10677TIP3   OH231975   7.720   3.153   6.458
10677TIP3    H131976   7.642   3.165   6.402
10677TIP3    H231977   7.737   3.057   6.447
10678TIP3   OH231978   6.318   3.563   6.473
10678TIP3    H131979   6.369   3.549   6.555
10678TIP3    H231980   6.248   3.495   6.481
10679TIP3   OH231981   6.723   2.390   6.266
10679TIP3    H131982   6.635   2.360   6.237
10679TIP3    H231983   6.697   2.471   6.314
10680TIP3   OH231984   7.257   2.504   6.459
10680TIP3    H131985   7.325   2.474   6.523
10680TIP3    H231986   7.173   2.485   6.505
10681TIP3   OH231987   7.494   2.932   6.374
10681TIP3    H131988   7.442   2.932   6.458
10681TIP3    H231989   7.471   3.019   6.337
10682TIP3   OH231990   7.156   3.058   4.931
10682TIP3    H131991   7.121   3.038   4.843
10682TIP3    H231992   7.239   3.105   4.908
10683TIP3   OH231993   6.868   2.436   5.236
10683TIP3    H131994   6.833   2.433   5.327
10683TIP3    H231995   6.827   2.355   5.200
10684TIP3   OH231996   6.657   2.904   6.286
10684TIP3    H131997   6.606   2.925   6.368
10684TIP3    H231998   6.642   2.986   6.233
10685TIP3   OH231999   6.539   2.791   5.796
10685TIP3    H132000   6.446   2.767   5.815
10685TIP3    H232001   6.549   2.750   5.707
10686TIP3   OH232002   7.029   2.876   5.526
10686TIP3    H132003   6.978   2.948   5.482
10686TIP3    H232004   7.084   2.844   5.452
10687TIP3   OH232005   7.204   3.154   6.610
10687TIP3    H132006   7.180   3.081   6.672
10687TIP3    H232007   7.299   3.163   6.629
10688TIP3   OH232008   7.185   2.903   5.762
10688TIP3    H132009   7.122   2.933   5.693
10688TIP3    H232010   7.220   2.824   5.716
10689TIP3   OH232011   6.494   2.925   6.504
10689TIP3    H132012   6.424   2.985   6.538
10689TIP3    H232013   6.472   2.843   6.552
10690TIP3   OH232014   6.524   2.412   5.200
10690TIP3    H132015   6.513   2.412   5.297
10690TIP3    H232016   6.448   2.467   5.173
10691TIP3   OH232017   6.068   2.451   6.073
10691TIP3    H132018   6.140   2.488   6.129
10691TIP3    H232019   6.112   2.430   5.991
10692TIP3   OH232020   6.031   2.436   5.590
10692TIP3    H132021   6.077   2.473   5.511
10692TIP3    H232022   5.972   2.510   5.610
10693TIP3   OH232023   7.197   3.150   6.183
10693TIP3    H132024   7.230   3.078   6.123
10693TIP3    H232025   7.164   3.096   6.258
10694TIP3   OH232026   6.870   2.608   5.855
10694TIP3    H132027   6.787   2.610   5.907
10694TIP3    H232028   6.937   2.611   5.925
10695TIP3   OH232029   6.300   2.672   5.864
10695TIP3    H132030   6.206   2.680   5.836
10695TIP3    H232031   6.322   2.580   5.840
10696TIP3   OH232032   6.566   2.662   5.555
10696TIP3    H132033   6.659   2.681   5.532
10696TIP3    H232034   6.517   2.686   5.472
10697TIP3   OH232035   7.357   2.688   6.057
10697TIP3    H132036   7.326   2.702   6.150
10697TIP3    H232037   7.287   2.629   6.024
10698TIP3   OH232038   6.417   2.697   5.331
10698TIP3    H132039   6.345   2.654   5.282
10698TIP3    H232040   6.468   2.737   5.257
10699TIP3   OH232041   7.532   4.378   6.279
10699TIP3    H132042   7.527   4.403   6.185
10699TIP3    H232043   7.610   4.429   6.309
10700TIP3   OH232044   6.484   3.495   6.694
10700TIP3    H132045   6.563   3.521   6.745
10700TIP3    H232046   6.420   3.480   6.766
10701TIP3   OH232047   6.948   2.942   5.954
10701TIP3    H132048   7.024   2.904   5.908
10701TIP3    H232049   6.952   2.900   6.042
10702TIP3   OH232050   6.468   2.429   5.837
10702TIP3    H132051   6.431   2.352   5.886
10702TIP3    H232052   6.511   2.387   5.762
10703TIP3   OH232053   6.924   2.842   6.243
10703TIP3    H132054   6.833   2.875   6.256
10703TIP3    H232055   6.979   2.906   6.293
10704TIP3   OH232056   6.663   3.227   5.340
10704TIP3    H132057   6.590   3.164   5.327
10704TIP3    H232058   6.642   3.263   5.430
10705TIP3   OH232059   7.560   3.467   5.965
10705TIP3    H132060   7.585   3.516   5.884
10705TIP3    H232061   7.476   3.424   5.938
10706TIP3   OH232062   7.119   2.539   5.205
10706TIP3    H132063   7.023   2.520   5.214
10706TIP3    H232064   7.126   2.633   5.230
10707TIP3   OH232065   7.064   3.551   6.334
10707TIP3    H132066   7.081   3.529   6.426
10707TIP3    H232067   7.022   3.639   6.340
10708TIP3   OH232068   7.187   2.789   5.307
10708TIP3    H132069   7.283   2.797   5.323
10708TIP3    H232070   7.167   2.870   5.256
10709TIP3   OH232071   6.359   3.257   6.014
10709TIP3    H132072   6.400   3.219   5.935
10709TIP3    H232073   6.383   3.195   6.085
10710TIP3   OH232074   6.806   3.379   5.163
10710TIP3    H132075   6.758   3.465   5.165
10710TIP3    H232076   6.751   3.325   5.223
10711TIP3   OH232077   6.959   3.288   6.651
10711TIP3    H132078   6.890   3.228   6.614
10711TIP3    H232079   7.040   3.248   6.613
10712TIP3   OH232080   7.221   3.809   6.234
10712TIP3    H132081   7.124   3.806   6.246
10712TIP3    H232082   7.247   3.862   6.311
10713TIP3   OH232083   7.626   2.882   5.141
10713TIP3    H132084   7.565   2.839   5.077
10713TIP3    H232085   7.623   2.972   5.101
10714TIP3   OH232086   7.850   3.745   6.219
10714TIP3    H132087   7.753   3.734   6.211
10714TIP3    H232088   7.877   3.713   6.130
10715TIP3   OH232089   7.337   3.700   5.053
10715TIP3    H132090   7.303   3.636   5.117
10715TIP3    H232091   7.343   3.649   4.970
10716TIP3   OH232092   7.327   3.329   5.882
10716TIP3    H132093   7.233   3.304   5.896
10716TIP3    H232094   7.360   3.249   5.838
10717TIP3   OH232095   6.457   3.557   5.638
10717TIP3    H132096   6.451   3.639   5.584
10717TIP3    H232097   6.363   3.540   5.655
10718TIP3   OH232098   6.022   2.859   5.347
10718TIP3    H132099   6.065   2.945   5.367
10718TIP3    H232100   5.944   2.864   5.407
10719TIP3   OH232101   6.588   3.320   5.581
10719TIP3    H132102   6.554   3.410   5.600
10719TIP3    H232103   6.553   3.270   5.657
10720TIP3   OH232104   6.726   3.900   6.107
10720TIP3    H132105   6.766   3.973   6.056
10720TIP3    H232106   6.803   3.863   6.152
10721TIP3   OH232107   6.375   3.793   5.492
10721TIP3    H132108   6.289   3.804   5.537
10721TIP3    H232109   6.408   3.886   5.494
10722TIP3   OH232110   7.111   3.533   6.067
10722TIP3    H132111   7.101   3.533   6.165
10722TIP3    H232112   7.190   3.479   6.055
10723TIP3   OH232113   7.090   3.430   4.949
10723TIP3    H132114   7.142   3.403   5.028
10723TIP3    H232115   7.001   3.401   4.976
10724TIP3   OH232116   7.361   4.065   6.117
10724TIP3    H132117   7.280   4.010   6.111
10724TIP3    H232118   7.345   4.129   6.045
10725TIP3   OH232119   7.424   3.906   4.762
10725TIP3    H132120   7.409   3.951   4.677
10725TIP3    H232121   7.353   3.948   4.815
10726TIP3   OH232122   6.445   2.663   6.637
10726TIP3    H132123   6.350   2.676   6.654
10726TIP3    H232124   6.471   2.608   6.712
10727TIP3   OH232125   7.250   3.356   5.161
10727TIP3    H132126   7.239   3.294   5.236
10727TIP3    H232127   7.348   3.355   5.152
10728TIP3   OH232128   6.163   3.759   6.266
10728TIP3    H132129   6.215   3.686   6.304
10728TIP3    H232130   6.191   3.833   6.322
10729TIP3   OH232131   6.455   3.406   4.950
10729TIP3    H132132   6.465   3.312   4.925
10729TIP3    H232133   6.433   3.398   5.045
10730TIP3   OH232134   6.398   3.412   5.221
10730TIP3    H132135   6.468   3.387   5.282
10730TIP3    H232136   6.399   3.510   5.229
10731TIP3   OH232137   6.130   3.105   5.428
10731TIP3    H132138   6.064   3.150   5.484
10731TIP3    H232139   6.142   3.173   5.359
10732TIP3   OH232140   7.288   2.740   6.317
10732TIP3    H132141   7.368   2.780   6.355
10732TIP3    H232142   7.274   2.660   6.373
10733TIP3   OH232143   7.169   2.488   5.487
10733TIP3    H132144   7.153   2.511   5.394
10733TIP3    H232145   7.207   2.571   5.523
10734TIP3   OH232146   6.666   3.610   5.170
10734TIP3    H132147   6.578   3.631   5.207
10734TIP3    H232148   6.678   3.687   5.113
10735TIP3   OH232149   6.851   2.673   5.586
10735TIP3    H132150   6.914   2.747   5.569
10735TIP3    H232151   6.856   2.665   5.684
10736TIP3   OH232152   7.123   2.989   6.390
10736TIP3    H132153   7.143   3.042   6.469
10736TIP3    H232154   7.175   2.909   6.403
10737TIP3   OH232155   6.994   2.394   5.686
10737TIP3    H132156   6.981   2.473   5.743
10737TIP3    H232157   7.057   2.429   5.619
10738TIP3   OH232158   6.411   3.683   5.241
10738TIP3    H132159   6.381   3.753   5.178
10738TIP3    H232160   6.394   3.726   5.328
10739TIP3   OH232161   6.508   2.399   5.477
10739TIP3    H132162   6.505   2.490   5.514
10739TIP3    H232163   6.605   2.383   5.484
10740TIP3   OH232164   7.762   2.888   6.387
10740TIP3    H132165   7.664   2.882   6.382
10740TIP3    H232166   7.787   2.871   6.295
10741TIP3   OH232167   7.412   3.085   5.762
10741TIP3    H132168   7.336   3.026   5.775
10741TIP3    H232169   7.484   3.038   5.810
10742TIP3   OH232170   6.126   3.309   5.231
10742TIP3    H132171   6.191   3.380   5.239
10742TIP3    H232172   6.171   3.253   5.164
10743TIP3   OH232173   6.067   2.589   5.365
10743TIP3    H132174   6.072   2.686   5.364
10743TIP3    H232175   5.984   2.573   5.319
10744TIP3   OH232176   7.383   4.043   5.710
10744TIP3    H132177   7.339   4.089   5.635
10744TIP3    H232178   7.477   4.062   5.689
10745TIP3   OH232179   6.460   2.309   6.235
10745TIP3    H132180   6.428   2.276   6.148
10745TIP3    H232181   6.447   2.231   6.293
10746TIP3   OH232182   5.990   3.523   5.613
10746TIP3    H132183   5.931   3.556   5.682
10746TIP3    H232184   5.955   3.570   5.534
10747TIP3   OH232185   6.155   4.074   6.690
10747TIP3    H132186   6.242   4.072   6.736
10747TIP3    H232187   6.133   3.979   6.688
10748TIP3   OH232188   6.633   4.025   6.741
10748TIP3    H132189   6.729   4.014   6.735
10748TIP3    H232190   6.603   3.968   6.667
10749TIP3   OH232191   6.616   3.609   4.859
10749TIP3    H132192   6.559   3.538   4.898
10749TIP3    H232193   6.690   3.555   4.827
10750TIP3   OH232194   7.271   3.944   6.470
10750TIP3    H132195   7.266   3.873   6.539
10750TIP3    H232196   7.349   3.995   6.499
10751TIP3   OH232197   7.052   3.648   4.776
10751TIP3    H132198   7.089   3.579   4.835
10751TIP3    H232199   7.108   3.641   4.697
10752TIP3   OH232200   6.282   3.480   6.892
10752TIP3    H132201   6.311   3.387   6.887
10752TIP3    H232202   6.197   3.477   6.843
10753TIP3   OH232203   6.263   3.124   5.085
10753TIP3    H132204   6.320   3.097   5.159
10753TIP3    H232205   6.330   3.130   5.014
10754TIP3   OH232206   6.889   3.563   6.664
10754TIP3    H132207   6.845   3.585   6.579
10754TIP3    H232208   6.916   3.470   6.651
10755TIP3   OH232209   6.781   3.327   4.893
10755TIP3    H132210   6.779   3.339   4.990
10755TIP3    H232211   6.778   3.229   4.886
10756TIP3   OH232212   7.385   3.575   6.274
10756TIP3    H132213   7.460   3.618   6.228
10756TIP3    H232214   7.314   3.639   6.257
10757TIP3   OH232215   6.415   3.249   6.872
10757TIP3    H132216   6.407   3.166   6.823
10757TIP3    H232217   6.447   3.222   6.960
10758TIP3   OH232218   6.467   3.034   5.304
10758TIP3    H132219   6.439   2.995   5.389
10758TIP3    H232220   6.504   2.956   5.257
10759TIP3   OH232221   6.757   3.112   6.548
10759TIP3    H132222   6.665   3.147   6.541
10759TIP3    H232223   6.795   3.140   6.462
10760TIP3   OH232224   6.571   2.826   5.145
10760TIP3    H132225   6.545   2.835   5.051
10760TIP3    H232226   6.669   2.830   5.138
10761TIP3   OH232227   7.260   3.500   6.671
10761TIP3    H132228   7.329   3.466   6.612
10761TIP3    H232229   7.250   3.428   6.735
10762TIP3   OH232230   7.390   3.154   4.812
10762TIP3    H132231   7.369   3.111   4.727
10762TIP3    H232232   7.357   3.245   4.792
10763TIP3   OH232233   6.867   2.887   6.655
10763TIP3    H132234   6.859   2.809   6.596
10763TIP3    H232235   6.821   2.957   6.604
10764TIP3   OH232236   6.865   2.670   6.466
10764TIP3    H132237   6.891   2.714   6.383
10764TIP3    H232238   6.771   2.650   6.449
10765TIP3   OH232239   6.894   3.209   6.337
10765TIP3    H132240   6.975   3.225   6.287
10765TIP3    H232241   6.832   3.271   6.294
10766TIP3   OH232242   7.476   3.171   6.722
10766TIP3    H132243   7.522   3.086   6.720
10766TIP3    H232244   7.540   3.230   6.679
10767TIP3   OH232245   7.513   3.429   6.460
10767TIP3    H132246   7.456   3.483   6.400
10767TIP3    H232247   7.601   3.448   6.421
10768TIP3   OH232248   6.751   2.989   6.902
10768TIP3    H132249   6.675   2.928   6.911
10768TIP3    H232250   6.771   2.978   6.807
10769TIP3   OH232251   6.996   2.433   6.538
10769TIP3    H132252   6.946   2.515   6.513
10769TIP3    H232253   6.927   2.365   6.526
10770TIP3   OH232254   7.122   2.935   6.751
10770TIP3    H132255   7.100   2.919   6.845
10770TIP3    H232256   7.034   2.914   6.711
10771TIP3   OH232257   7.361   2.892   6.607
10771TIP3    H132258   7.285   2.890   6.669
10771TIP3    H232259   7.435   2.862   6.663
10772TIP3   OH232260   7.592   2.838   6.755
10772TIP3    H132261   7.602   2.741   6.764
10772TIP3    H232262   7.588   2.868   6.849
10773TIP3   OH232263   6.574   2.774   6.949
10773TIP3    H132264   6.580   2.684   6.911
10773TIP3    H232265   6.612   2.760   7.037
10774TIP3   OH232266   7.090   2.443   6.795
10774TIP3    H132267   7.154   2.370   6.786
10774TIP3    H232268   7.048   2.441   6.706
10775TIP3   OH232269   7.158   2.658   6.951
10775TIP3    H132270   7.135   2.587   6.886
10775TIP3    H232271   7.080   2.717   6.943
10776TIP3   OH232272   6.379   3.884   5.052
10776TIP3    H132273   6.474   3.879   5.031
10776TIP3    H232274   6.348   3.938   4.977
10777TIP3   OH232275   5.857   3.269   5.266
10777TIP3    H132276   5.952   3.290   5.252
10777TIP3    H232277   5.851   3.181   5.224
10778TIP3   OH232278   5.776   3.879   5.684
10778TIP3    H132279   5.709   3.820   5.644
10778TIP3    H232280   5.819   3.818   5.748
10779TIP3   OH232281   5.911   3.723   5.869
10779TIP3    H132282   5.898   3.656   5.938
10779TIP3    H232283   5.961   3.789   5.920
10780TIP3   OH232284   7.638   4.131   5.671
10780TIP3    H132285   7.662   4.163   5.760
10780TIP3    H232286   7.702   4.176   5.614
10781TIP3   OH232287   7.664   4.151   5.953
10781TIP3    H132288   7.618   4.064   5.948
10781TIP3    H232289   7.739   4.126   6.008
10782TIP3   OH232290   7.713   3.828   6.527
10782TIP3    H132291   7.639   3.839   6.591
10782TIP3    H232292   7.754   3.917   6.529
10783TIP3   OH232293   7.529   3.340   5.143
10783TIP3    H132294   7.596   3.405   5.114
10783TIP3    H232295   7.573   3.303   5.223
10784TIP3   OH232296   7.656   3.208   5.347
10784TIP3    H132297   7.590   3.168   5.408
10784TIP3    H232298   7.724   3.243   5.409
10785TIP3   OH232299   7.714   3.599   5.776
10785TIP3    H132300   7.770   3.535   5.728
10785TIP3    H232301   7.707   3.672   5.712
10786TIP3   OH232302   7.538   3.902   5.973
10786TIP3    H132303   7.466   3.944   6.023
10786TIP3    H232304   7.490   3.856   5.901
10787TIP3   OH232305   7.593   3.117   4.993
10787TIP3    H132306   7.521   3.119   4.926
10787TIP3    H232307   7.565   3.192   5.049
10788TIP3   OH232308   7.465   2.789   4.943
10788TIP3    H132309   7.416   2.826   4.869
10788TIP3    H232310   7.442   2.693   4.935
10789TIP3   OH232311   7.467   3.069   5.493
10789TIP3    H132312   7.476   2.972   5.486
10789TIP3    H232313   7.453   3.082   5.589
10790TIP3   OH232314   6.095   3.168   6.215
10790TIP3    H132315   6.093   3.122   6.128
10790TIP3    H232316   6.189   3.157   6.239
10791TIP3   OH232317   7.759   3.492   6.352
10791TIP3    H132318   7.830   3.425   6.344
10791TIP3    H232319   7.783   3.556   6.282
10792TIP3   OH232320   7.938   3.294   6.380
10792TIP3    H132321   7.862   3.240   6.413
10792TIP3    H232322   8.010   3.228   6.385
10793TIP3   OH232323   7.407   2.522   4.928
10793TIP3    H132324   7.479   2.491   4.987
10793TIP3    H232325   7.332   2.466   4.951
10794TIP3   OH232326   7.465   2.783   5.385
10794TIP3    H132327   7.507   2.695   5.399
10794TIP3    H232328   7.523   2.817   5.314
10795TIP3   OH232329   7.625   2.953   5.883
10795TIP3    H132330   7.710   2.979   5.841
10795TIP3    H232331   7.640   2.991   5.972
10796TIP3   OH232332   7.696   3.101   6.116
10796TIP3    H132333   7.617   3.137   6.160
10796TIP3    H232334   7.728   3.179   6.066
10797TIP3   OH232335   6.307   2.811   6.886
10797TIP3    H132336   6.404   2.813   6.899
10797TIP3    H232337   6.283   2.733   6.939
10798TIP3   OH232338   8.183   2.696   6.657
10798TIP3    H132339   8.198   2.611   6.610
10798TIP3    H232340   8.130   2.745   6.590
10799TIP3   OH232341   7.575   2.534   5.424
10799TIP3    H132342   7.623   2.518   5.508
10799TIP3    H232343   7.513   2.458   5.424
10800TIP3   OH232344   6.274   2.519   6.244
10800TIP3    H132345   6.338   2.445   6.253
10800TIP3    H232346   6.335   2.594   6.237
10801TIP3   OH232347   6.074   2.801   6.322
10801TIP3    H132348   6.124   2.801   6.238
10801TIP3    H232349   6.104   2.885   6.361
10802TIP3   OH232350   8.010   2.821   6.489
10802TIP3    H132351   7.924   2.869   6.492
10802TIP3    H232352   7.985   2.753   6.422
10803TIP3   OH232353   7.651   2.464   5.060
10803TIP3    H132354   7.693   2.396   5.004
10803TIP3    H232355   7.717   2.536   5.059
10804TIP3   OH232356   6.060   2.288   5.814
10804TIP3    H132357   5.969   2.288   5.847
10804TIP3    H232358   6.055   2.351   5.739
10805TIP3   OH232359   7.223   3.996   5.326
10805TIP3    H132360   7.278   3.990   5.245
10805TIP3    H232361   7.266   4.067   5.376
10806TIP3   OH232362   6.279   2.367   6.630
10806TIP3    H132363   6.229   2.370   6.713
10806TIP3    H232364   6.216   2.411   6.569
10807TIP3   OH232365   6.320   3.806   6.710
10807TIP3    H132366   6.228   3.779   6.687
10807TIP3    H232367   6.322   3.786   6.804
10808TIP3   OH232368   6.501   3.840   6.260
10808TIP3    H132369   6.451   3.915   6.220
10808TIP3    H232370   6.586   3.854   6.213
10809TIP3   OH232371   6.940   4.078   6.395
10809TIP3    H132372   6.982   4.081   6.484
10809TIP3    H232373   7.004   4.131   6.343
10810TIP3   OH232374   7.119   4.233   6.258
10810TIP3    H132375   7.188   4.184   6.212
10810TIP3    H232376   7.172   4.290   6.317
10811TIP3   OH232377   7.915   2.593   6.355
10811TIP3    H132378   7.826   2.587   6.315
10811TIP3    H232379   7.949   2.502   6.342
10812TIP3   OH232380   6.174   4.093   6.283
10812TIP3    H132381   6.085   4.123   6.258
10812TIP3    H232382   6.184   4.138   6.368
10813TIP3   OH232383   6.411   4.072   6.141
10813TIP3    H132384   6.323   4.085   6.184
10813TIP3    H232385   6.392   4.104   6.050
10814TIP3   OH232386   6.836   4.097   5.938
10814TIP3    H132387   6.765   4.114   5.873
10814TIP3    H232388   6.847   4.186   5.978
10815TIP3   OH232389   7.105   4.038   5.992
10815TIP3    H132390   7.011   4.055   5.972
10815TIP3    H232391   7.149   4.111   5.945
10816TIP3   OH232392   7.312   4.229   5.903
10816TIP3    H132393   7.297   4.313   5.856
10816TIP3    H232394   7.338   4.169   5.830
10817TIP3   OH232395   6.085   3.885   6.025
10817TIP3    H132396   6.110   3.856   6.115
10817TIP3    H232397   6.157   3.842   5.974
10818TIP3   OH232398   6.281   3.759   5.885
10818TIP3    H132399   6.295   3.675   5.936
10818TIP3    H232400   6.372   3.794   5.881
10819TIP3   OH232401   6.548   3.849   5.890
10819TIP3    H132402   6.577   3.757   5.880
10819TIP3    H232403   6.595   3.873   5.972
10820TIP3   OH232404   7.125   2.509   5.979
10820TIP3    H132405   7.080   2.438   6.027
10820TIP3    H232406   7.197   2.462   5.933
10821TIP3   OH232407   7.642   2.385   5.875
10821TIP3    H132408   7.679   2.440   5.802
10821TIP3    H232409   7.547   2.409   5.872
10822TIP3   OH232410   7.740   2.484   5.640
10822TIP3    H132411   7.815   2.435   5.601
10822TIP3    H232412   7.773   2.576   5.627
10823TIP3   OH232413   6.370   2.216   5.987
10823TIP3    H132414   6.277   2.184   5.991
10823TIP3    H232415   6.417   2.130   5.983
10824TIP3   OH232416   6.160   2.087   5.639
10824TIP3    H132417   6.188   2.145   5.566
10824TIP3    H232418   6.130   2.153   5.706
10825TIP3   OH232419   6.818   2.245   5.871
10825TIP3    H132420   6.872   2.296   5.808
10825TIP3    H232421   6.837   2.290   5.954
10826TIP3   OH232422   7.358   2.397   5.854
10826TIP3    H132423   7.356   2.359   5.765
10826TIP3    H232424   7.346   2.317   5.910
10827TIP3   OH232425   7.390   2.321   5.418
10827TIP3    H132426   7.306   2.367   5.435
10827TIP3    H232427   7.374   2.235   5.462
10828TIP3   OH232428   5.873   3.663   5.415
10828TIP3    H132429   5.787   3.632   5.383
10828TIP3    H232430   5.866   3.757   5.389
10829TIP3   OH232431   6.276   2.244   5.401
10829TIP3    H132432   6.325   2.183   5.342
10829TIP3    H232433   6.349   2.299   5.436
10830TIP3   OH232434   6.785   2.423   5.499
10830TIP3    H132435   6.846   2.378   5.560
10830TIP3    H232436   6.805   2.516   5.524
10831TIP3   OH232437   6.648   3.842   5.000
10831TIP3    H132438   6.734   3.868   4.961
10831TIP3    H232439   6.625   3.768   4.939
10832TIP3   OH232440   7.373   3.966   5.091
10832TIP3    H132441   7.363   3.868   5.085
10832TIP3    H232442   7.316   3.995   5.016
10833TIP3   OH232443   6.576   2.495   6.881
10833TIP3    H132444   6.541   2.425   6.939
10833TIP3    H232445   6.670   2.496   6.909
10834TIP3   OH232446   6.828   2.497   7.001
10834TIP3    H132447   6.911   2.469   6.960
10834TIP3    H232448   6.814   2.425   7.067
10835TIP3   OH232449   5.947   3.678   5.052
10835TIP3    H132450   5.949   3.708   5.144
10835TIP3    H232451   6.036   3.638   5.041
10836TIP3   OH232452   7.647   2.567   6.770
10836TIP3    H132453   7.660   2.533   6.861
10836TIP3    H232454   7.739   2.561   6.734
10837TIP3   OH232455   7.587   4.107   6.281
10837TIP3    H132456   7.510   4.078   6.229
10837TIP3    H232457   7.569   4.204   6.285
10838TIP3   OH232458   8.125   3.781   5.513
10838TIP3    H132459   8.120   3.683   5.519
10838TIP3    H232460   8.221   3.793   5.515
10839TIP3   OH232461   7.833   2.984   5.294
10839TIP3    H132462   7.790   3.068   5.317
10839TIP3    H232463   7.759   2.937   5.253
10840TIP3   OH232464   7.889   3.275   5.478
10840TIP3    H132465   7.935   3.195   5.512
10840TIP3    H232466   7.960   3.315   5.425
10841TIP3   OH232467   8.758   4.207   5.106
10841TIP3    H132468   8.854   4.184   5.109
10841TIP3    H232469   8.740   4.220   5.200
10842TIP3   OH232470   8.644   3.713   5.472
10842TIP3    H132471   8.662   3.658   5.395
10842TIP3    H232472   8.731   3.751   5.492
10843TIP3   OH232473   8.385   2.874   5.488
10843TIP3    H132474   8.395   2.942   5.419
10843TIP3    H232475   8.344   2.802   5.437
10844TIP3   OH232476   8.028   3.065   5.578
10844TIP3    H132477   8.109   3.099   5.622
10844TIP3    H232478   8.065   3.012   5.505
10845TIP3   OH232479   8.473   3.270   5.333
10845TIP3    H132480   8.558   3.238   5.370
10845TIP3    H232481   8.425   3.185   5.324
10846TIP3   OH232482   8.413   2.858   5.918
10846TIP3    H132483   8.357   2.898   5.848
10846TIP3    H232484   8.358   2.877   5.997
10847TIP3   OH232485   8.533   3.636   5.726
10847TIP3    H132486   8.451   3.681   5.752
10847TIP3    H232487   8.548   3.672   5.637
10848TIP3   OH232488   8.268   2.967   5.717
10848TIP3    H132489   8.276   3.065   5.720
10848TIP3    H232490   8.318   2.945   5.635
10849TIP3   OH232491   8.338   3.824   5.799
10849TIP3    H132492   8.312   3.912   5.764
10849TIP3    H232493   8.258   3.804   5.852
10850TIP3   OH232494   7.729   3.513   5.034
10850TIP3    H132495   7.688   3.542   4.951
10850TIP3    H232496   7.763   3.597   5.071
10851TIP3   OH232497   8.258   3.418   5.263
10851TIP3    H132498   8.224   3.357   5.196
10851TIP3    H232499   8.338   3.369   5.295
10852TIP3   OH232500   8.393   3.835   5.408
10852TIP3    H132501   8.370   3.790   5.325
10852TIP3    H232502   8.479   3.794   5.432
10853TIP3   OH232503   8.539   3.937   5.952
10853TIP3    H132504   8.474   4.000   5.991
10853TIP3    H232505   8.479   3.883   5.896
10854TIP3   OH232506   8.312   3.505   6.071
10854TIP3    H132507   8.290   3.594   6.104
10854TIP3    H232508   8.229   3.477   6.029
10855TIP3   OH232509   8.640   3.993   4.970
10855TIP3    H132510   8.662   4.079   5.011
10855TIP3    H232511   8.570   4.016   4.907
10856TIP3   OH232512   8.334   4.110   6.031
10856TIP3    H132513   8.300   4.112   5.939
10856TIP3    H232514   8.253   4.088   6.083
10857TIP3   OH232515   8.139   3.252   5.056
10857TIP3    H132516   8.066   3.295   5.007
10857TIP3    H232517   8.096   3.173   5.091
10858TIP3   OH232518   7.914   3.646   5.975
10858TIP3    H132519   7.849   3.619   5.908
10858TIP3    H232520   7.949   3.560   6.007
10859TIP3   OH232521   7.770   3.834   5.606
10859TIP3    H132522   7.866   3.826   5.599
10859TIP3    H232523   7.760   3.911   5.663
10860TIP3   OH232524   8.725   4.057   5.794
10860TIP3    H132525   8.729   4.148   5.829
10860TIP3    H232526   8.655   4.018   5.850
10861TIP3   OH232527   8.503   4.195   4.753
10861TIP3    H132528   8.458   4.183   4.667
10861TIP3    H232529   8.471   4.284   4.779
10862TIP3   OH232530   7.940   4.044   5.140
10862TIP3    H132531   7.988   4.039   5.226
10862TIP3    H232532   7.895   3.957   5.140
10863TIP3   OH232533   8.767   4.158   4.685
10863TIP3    H132534   8.675   4.175   4.713
10863TIP3    H232535   8.778   4.065   4.711
10864TIP3   OH232536   8.118   3.828   5.962
10864TIP3    H132537   8.167   3.811   6.045
10864TIP3    H232538   8.045   3.763   5.968
10865TIP3   OH232539   8.502   2.629   5.775
10865TIP3    H132540   8.412   2.616   5.740
10865TIP3    H232541   8.494   2.721   5.806
10866TIP3   OH232542   8.335   3.042   5.276
10866TIP3    H132543   8.244   3.014   5.302
10866TIP3    H232544   8.344   2.999   5.189
10867TIP3   OH232545   8.301   2.620   4.671
10867TIP3    H132546   8.298   2.644   4.765
10867TIP3    H232547   8.247   2.692   4.633
10868TIP3   OH232548   7.865   2.707   5.559
10868TIP3    H132549   7.932   2.748   5.617
10868TIP3    H232550   7.915   2.687   5.479
10869TIP3   OH232551   7.828   2.693   5.076
10869TIP3    H132552   7.873   2.732   4.998
10869TIP3    H232553   7.768   2.766   5.099
10870TIP3   OH232554   8.096   2.930   5.345
10870TIP3    H132555   8.000   2.937   5.323
10870TIP3    H232556   8.117   2.836   5.331
10871TIP3   OH232557   8.371   2.922   5.032
10871TIP3    H132558   8.453   2.951   4.990
10871TIP3    H232559   8.306   2.938   4.959
10872TIP3   OH232560   8.213   2.948   4.818
10872TIP3    H132561   8.142   2.905   4.766
10872TIP3    H232562   8.266   2.988   4.745
10873TIP3   OH232563   8.274   3.759   6.189
10873TIP3    H132564   8.357   3.781   6.235
10873TIP3    H232565   8.212   3.751   6.264
10874TIP3   OH232566   8.252   2.687   5.323
10874TIP3    H132567   8.224   2.611   5.379
10874TIP3    H232568   8.305   2.643   5.256
10875TIP3   OH232569   8.686   3.115   5.798
10875TIP3    H132570   8.616   3.142   5.737
10875TIP3    H232571   8.759   3.176   5.777
10876TIP3   OH232572   8.427   3.512   4.822
10876TIP3    H132573   8.377   3.428   4.819
10876TIP3    H232574   8.432   3.529   4.919
10877TIP3   OH232575   8.836   3.792   5.856
10877TIP3    H132576   8.844   3.772   5.950
10877TIP3    H232577   8.801   3.882   5.855
10878TIP3   OH232578   8.161   3.504   5.516
10878TIP3    H132579   8.196   3.469   5.432
10878TIP3    H232580   8.199   3.438   5.580
10879TIP3   OH232581   8.567   3.631   4.620
10879TIP3    H132582   8.539   3.722   4.645
10879TIP3    H232583   8.534   3.581   4.698
10880TIP3   OH232584   8.020   3.442   6.122
10880TIP3    H132585   8.063   3.426   6.208
10880TIP3    H232586   7.969   3.361   6.107
10881TIP3   OH232587   8.750   3.545   6.137
10881TIP3    H132588   8.691   3.490   6.081
10881TIP3    H232589   8.837   3.510   6.111
10882TIP3   OH232590   8.254   3.813   5.125
10882TIP3    H132591   8.249   3.893   5.070
10882TIP3    H232592   8.160   3.793   5.139
10883TIP3   OH232593   7.817   3.116   4.833
10883TIP3    H132594   7.861   3.200   4.855
10883TIP3    H232595   7.740   3.119   4.894
10884TIP3   OH232596   8.400   3.579   5.085
10884TIP3    H132597   8.357   3.666   5.095
10884TIP3    H232598   8.353   3.526   5.153
10885TIP3   OH232599   8.518   4.154   5.596
10885TIP3    H132600   8.556   4.230   5.547
10885TIP3    H232601   8.597   4.119   5.641
10886TIP3   OH232602   8.170   4.054   4.977
10886TIP3    H132603   8.086   4.063   5.026
10886TIP3    H232604   8.203   4.146   4.981
10887TIP3   OH232605   8.253   2.906   6.135
10887TIP3    H132606   8.163   2.943   6.135
10887TIP3    H232607   8.254   2.849   6.213
10888TIP3   OH232608   7.959   4.015   5.752
10888TIP3    H132609   8.013   3.944   5.791
10888TIP3    H232610   7.986   4.090   5.807
10889TIP3   OH232611   8.245   3.661   4.439
10889TIP3    H132612   8.251   3.567   4.416
10889TIP3    H232613   8.228   3.656   4.536
10890TIP3   OH232614   8.197   3.666   4.709
10890TIP3    H132615   8.277   3.633   4.754
10890TIP3    H232616   8.203   3.763   4.724
10891TIP3   OH232617   7.926   3.359   4.914
10891TIP3    H132618   7.859   3.404   4.970
10891TIP3    H232619   7.941   3.429   4.847
10892TIP3   OH232620   8.460   3.877   4.663
10892TIP3    H132621   8.370   3.898   4.695
10892TIP3    H232622   8.483   3.960   4.618
10893TIP3   OH232623   8.201   3.941   4.727
10893TIP3    H132624   8.169   4.012   4.666
10893TIP3    H232625   8.188   3.984   4.814
10894TIP3   OH232626   8.317   2.661   4.955
10894TIP3    H132627   8.296   2.741   5.007
10894TIP3    H232628   8.399   2.692   4.911
10895TIP3   OH232629   7.926   3.566   4.716
10895TIP3    H132630   7.998   3.631   4.729
10895TIP3    H232631   7.969   3.509   4.649
10896TIP3   OH232632   7.866   2.845   4.851
10896TIP3    H132633   7.867   2.943   4.851
10896TIP3    H232634   7.782   2.827   4.807
10897TIP3   OH232635   8.237   2.567   5.722
10897TIP3    H132636   8.221   2.530   5.633
10897TIP3    H232637   8.233   2.489   5.779
10898TIP3   OH232638   7.793   3.786   5.101
10898TIP3    H132639   7.726   3.812   5.165
10898TIP3    H232640   7.759   3.825   5.018
10899TIP3   OH232641   7.951   4.331   6.178
10899TIP3    H132642   8.039   4.329   6.222
10899TIP3    H232643   7.930   4.236   6.174
10900TIP3   OH232644   8.431   4.288   6.220
10900TIP3    H132645   8.523   4.260   6.226
10900TIP3    H232646   8.400   4.229   6.148
10901TIP3   OH232647   8.405   3.863   4.348
10901TIP3    H132648   8.344   3.793   4.383
10901TIP3    H232649   8.490   3.829   4.378
10902TIP3   OH232650   8.077   3.734   6.381
10902TIP3    H132651   8.093   3.638   6.387
10902TIP3    H232652   7.992   3.736   6.332
10903TIP3   OH232653   8.066   3.381   4.570
10903TIP3    H132654   8.118   3.352   4.648
10903TIP3    H232655   8.136   3.387   4.503
10904TIP3   OH232656   8.701   3.822   6.146
10904TIP3    H132657   8.644   3.838   6.067
10904TIP3    H232658   8.714   3.725   6.144
10905TIP3   OH232659   8.555   3.561   4.364
10905TIP3    H132660   8.573   3.596   4.455
10905TIP3    H232661   8.477   3.506   4.384
10906TIP3   OH232662   8.200   3.466   6.354
10906TIP3    H132663   8.282   3.433   6.315
10906TIP3    H232664   8.230   3.495   6.442
10907TIP3   OH232665   8.257   3.286   4.786
10907TIP3    H132666   8.232   3.252   4.874
10907TIP3    H232667   8.302   3.210   4.745
10908TIP3   OH232668   8.515   3.334   6.046
10908TIP3    H132669   8.438   3.392   6.065
10908TIP3    H232670   8.524   3.350   5.951
10909TIP3   OH232671   8.370   3.076   4.632
10909TIP3    H132672   8.333   3.087   4.542
10909TIP3    H232673   8.463   3.054   4.608
10910TIP3   OH232674   8.666   3.135   6.145
10910TIP3    H132675   8.660   3.054   6.092
10910TIP3    H232676   8.608   3.197   6.095
10911TIP3   OH232677   8.676   2.906   5.970
10911TIP3    H132678   8.674   2.974   5.899
10911TIP3    H232679   8.585   2.871   5.963
10912TIP3   OH232680   8.690   3.463   5.856
10912TIP3    H132681   8.665   3.402   5.787
10912TIP3    H232682   8.633   3.540   5.832
10913TIP3   OH232683   8.495   3.273   6.357
10913TIP3    H132684   8.440   3.193   6.370
10913TIP3    H232685   8.527   3.260   6.266
10914TIP3   OH232686   8.361   3.037   6.419
10914TIP3    H132687   8.368   2.945   6.388
10914TIP3    H232688   8.408   3.032   6.505
10915TIP3   OH232689   8.163   4.144   4.539
10915TIP3    H132690   8.260   4.139   4.529
10915TIP3    H232691   8.142   4.197   4.460
10916TIP3   OH232692   7.655   3.528   4.751
10916TIP3    H132693   7.750   3.548   4.738
10916TIP3    H232694   7.648   3.439   4.712
10917TIP3   OH232695   7.577   4.132   5.155
10917TIP3    H132696   7.501   4.075   5.131
10917TIP3    H232697   7.616   4.079   5.228
10918TIP3   OH232698   7.700   3.990   5.355
10918TIP3    H132699   7.687   3.920   5.420
10918TIP3    H232700   7.755   4.051   5.408
10919TIP3   OH232701   7.910   3.394   5.730
10919TIP3    H132702   7.894   3.359   5.640
10919TIP3    H232703   8.007   3.391   5.732
10920TIP3   OH232704   8.093   3.071   6.388
10920TIP3    H132705   8.192   3.075   6.390
10920TIP3    H232706   8.079   2.990   6.441
10921TIP3   OH232707   8.062   2.779   5.737
10921TIP3    H132708   8.125   2.705   5.741
10921TIP3    H232709   8.125   2.854   5.731
10922TIP3   OH232710   7.869   3.047   5.805
10922TIP3    H132711   7.918   3.039   5.720
10922TIP3    H232712   7.914   3.124   5.844
10923TIP3   OH232713   7.856   2.539   5.297
10923TIP3    H132714   7.766   2.543   5.334
10923TIP3    H232715   7.851   2.604   5.225
10924TIP3   OH232716   8.072   2.624   6.118
10924TIP3    H132717   8.020   2.629   6.200
10924TIP3    H232718   8.012   2.670   6.055
10925TIP3   OH232719   8.114   4.067   6.195
10925TIP3    H132720   8.023   4.039   6.177
10925TIP3    H232721   8.128   4.037   6.285
10926TIP3   OH232722   8.295   4.096   5.747
10926TIP3    H132723   8.247   4.172   5.707
10926TIP3    H232724   8.380   4.107   5.700
10927TIP3   OH232725   8.727   4.323   5.888
10927TIP3    H132726   8.776   4.330   5.973
10927TIP3    H232727   8.778   4.381   5.828
10928TIP3   OH232728   8.871   4.487   5.709
10928TIP3    H132729   8.918   4.481   5.622
10928TIP3    H232730   8.906   4.570   5.743
10929TIP3   OH232731   7.969   4.347   5.770
10929TIP3    H132732   7.880   4.380   5.746
10929TIP3    H232733   7.982   4.393   5.854
10930TIP3   OH232734   8.204   4.327   5.627
10930TIP3    H132735   8.117   4.340   5.670
10930TIP3    H232736   8.186   4.361   5.537
10931TIP3   OH232737   8.603   4.363   5.428
10931TIP3    H132738   8.529   4.375   5.365
10931TIP3    H232739   8.615   4.455   5.460
10932TIP3   OH232740   8.854   4.262   5.407
10932TIP3    H132741   8.763   4.298   5.415
10932TIP3    H232742   8.907   4.340   5.432
10933TIP3   OH232743   7.882   4.142   5.511
10933TIP3    H132744   7.907   4.114   5.602
10933TIP3    H232745   7.955   4.098   5.461
10934TIP3   OH232746   8.078   4.013   5.373
10934TIP3    H132747   8.092   3.928   5.421
10934TIP3    H232748   8.170   4.049   5.369
10935TIP3   OH232749   8.344   4.107   5.377
10935TIP3    H132750   8.370   4.013   5.368
10935TIP3    H232751   8.391   4.130   5.459
10936TIP3   OH232752   8.174   2.464   5.468
10936TIP3    H132753   8.082   2.433   5.476
10936TIP3    H232754   8.221   2.379   5.454
10937TIP3   OH232755   7.955   2.343   5.111
10937TIP3    H132756   7.983   2.408   5.043
10937TIP3    H232757   7.928   2.402   5.184
10938TIP3   OH232758   7.669   3.916   4.898
10938TIP3    H132759   7.588   3.896   4.848
10938TIP3    H232760   7.643   3.995   4.947
10939TIP3   OH232761   8.070   2.503   4.891
10939TIP3    H132762   8.114   2.446   4.824
10939TIP3    H232763   8.144   2.559   4.921
10940TIP3   OH232764   8.432   4.101   4.495
10940TIP3    H132765   8.524   4.111   4.463
10940TIP3    H232766   8.404   4.029   4.434
10941TIP3   OH232767   8.373   2.756   6.371
10941TIP3    H132768   8.357   2.695   6.445
10941TIP3    H232769   8.466   2.742   6.352
10942TIP3   OH232770   7.752   3.938   4.550
10942TIP3    H132771   7.764   3.933   4.646
10942TIP3    H232772   7.835   3.894   4.519
10943TIP3   OH232773   1.311   4.271   6.732
10943TIP3    H132774   1.281   4.362   6.712
10943TIP3    H232775   1.233   4.220   6.703
10944TIP3   OH232776   1.309   4.270   7.120
10944TIP3    H132777   1.345   4.247   7.208
10944TIP3    H232778   1.267   4.187   7.093
10945TIP3   OH232779   0.639   4.141   7.439
10945TIP3    H132780   0.607   4.099   7.520
10945TIP3    H232781   0.674   4.224   7.471
10946TIP3   OH232782   1.553   4.576   6.800
10946TIP3    H132783   1.539   4.506   6.864
10946TIP3    H232784   1.585   4.650   6.855
10947TIP3   OH232785   0.590   4.559   7.156
10947TIP3    H132786   0.569   4.465   7.171
10947TIP3    H232787   0.682   4.563   7.185
10948TIP3   OH232788   0.370   4.056   7.113
10948TIP3    H132789   0.392   4.025   7.201
10948TIP3    H232790   0.406   4.145   7.113
10949TIP3   OH232791   1.206   5.035   6.818
10949TIP3    H132792   1.248   4.964   6.764
10949TIP3    H232793   1.198   4.991   6.903
10950TIP3   OH232794   1.109   4.495   7.164
10950TIP3    H132795   1.151   4.416   7.125
10950TIP3    H232796   1.191   4.542   7.190
10951TIP3   OH232797   2.123   3.814   7.161
10951TIP3    H132798   2.153   3.897   7.203
10951TIP3    H232799   2.151   3.828   7.069
10952TIP3   OH232800   1.520   3.996   7.194
10952TIP3    H132801   1.564   3.912   7.216
10952TIP3    H232802   1.488   3.977   7.103
10953TIP3   OH232803   0.862   3.654   7.161
10953TIP3    H132804   0.845   3.728   7.099
10953TIP3    H232805   0.814   3.582   7.116
10954TIP3   OH232806   1.555   3.747   6.780
10954TIP3    H132807   1.625   3.733   6.848
10954TIP3    H232808   1.610   3.782   6.707
10955TIP3   OH232809   0.491   3.845   7.282
10955TIP3    H132810   0.576   3.850   7.329
10955TIP3    H232811   0.520   3.815   7.193
10956TIP3   OH232812   0.939   4.055   7.046
10956TIP3    H132813   1.031   4.031   7.070
10956TIP3    H232814   0.901   3.968   7.023
10957TIP3   OH232815   2.196   4.023   7.333
10957TIP3    H132816   2.112   4.068   7.313
10957TIP3    H232817   2.214   4.056   7.422
10958TIP3   OH232818   0.852   3.626   7.594
10958TIP3    H132819   0.800   3.678   7.529
10958TIP3    H232820   0.815   3.656   7.678
10959TIP3   OH232821   1.200   4.492   6.600
10959TIP3    H132822   1.156   4.477   6.516
10959TIP3    H232823   1.155   4.574   6.630
10960TIP3   OH232824   0.960   4.421   7.391
10960TIP3    H132825   0.899   4.486   7.433
10960TIP3    H232826   1.000   4.472   7.318
10961TIP3   OH232827   1.757   3.755   6.959
10961TIP3    H132828   1.750   3.707   7.043
10961TIP3    H232829   1.812   3.832   6.985
10962TIP3   OH232830   0.737   3.753   7.382
10962TIP3    H132831   0.794   3.830   7.406
10962TIP3    H232832   0.789   3.718   7.306
10963TIP3   OH232833   0.776   4.598   7.511
10963TIP3    H132834   0.729   4.668   7.463
10963TIP3    H232835   0.703   4.560   7.564
10964TIP3   OH232836   1.621   4.818   6.964
10964TIP3    H132837   1.532   4.808   7.003
10964TIP3    H232838   1.613   4.905   6.919
10965TIP3   OH232839   1.916   3.715   7.328
10965TIP3    H132840   1.829   3.743   7.295
10965TIP3    H232841   1.977   3.748   7.258
10966TIP3   OH232842   1.207   3.349   7.306
10966TIP3    H132843   1.195   3.255   7.331
10966TIP3    H232844   1.131   3.389   7.354
10967TIP3   OH232845   1.321   4.861   6.635
10967TIP3    H132846   1.372   4.778   6.618
10967TIP3    H232847   1.384   4.926   6.595
10968TIP3   OH232848   1.468   4.646   6.547
10968TIP3    H132849   1.423   4.566   6.516
10968TIP3    H232850   1.507   4.615   6.632
10969TIP3   OH232851   1.848   4.726   7.309
10969TIP3    H132852   1.836   4.649   7.250
10969TIP3    H232853   1.831   4.801   7.248
10970TIP3   OH232854   1.140   4.120   6.567
10970TIP3    H132855   1.061   4.174   6.547
10970TIP3    H232856   1.187   4.120   6.482
10971TIP3   OH232857   1.099   3.908   6.278
10971TIP3    H132858   1.165   3.961   6.327
10971TIP3    H232859   1.158   3.843   6.234
10972TIP3   OH232860   2.042   4.365   7.154
10972TIP3    H132861   1.959   4.418   7.157
10972TIP3    H232862   2.074   4.389   7.065
10973TIP3   OH232863   1.488   4.204   6.535
10973TIP3    H132864   1.434   4.228   6.614
10973TIP3    H232865   1.573   4.180   6.578
10974TIP3   OH232866   1.721   4.243   7.453
10974TIP3    H132867   1.717   4.327   7.502
10974TIP3    H232868   1.635   4.245   7.407
10975TIP3   OH232869   0.725   4.196   6.953
10975TIP3    H132870   0.685   4.137   6.886
10975TIP3    H232871   0.805   4.145   6.980
10976TIP3   OH232872   0.869   4.627   7.097
10976TIP3    H132873   0.838   4.579   7.019
10976TIP3    H232874   0.956   4.584   7.114
10977TIP3   OH232875   0.909   4.164   7.304
10977TIP3    H132876   0.914   4.157   7.207
10977TIP3    H232877   0.920   4.259   7.321
10978TIP3   OH232878   1.381   4.811   7.086
10978TIP3    H132879   1.370   4.891   7.141
10978TIP3    H232880   1.365   4.738   7.149
10979TIP3   OH232881   0.993   4.727   7.633
10979TIP3    H132882   0.934   4.787   7.684
10979TIP3    H232883   0.926   4.669   7.591
10980TIP3   OH232884   1.327   4.063   6.362
10980TIP3    H132885   1.386   4.123   6.413
10980TIP3    H232886   1.353   4.085   6.270
10981TIP3   OH232887   0.727   4.259   7.713
10981TIP3    H132888   0.751   4.342   7.762
10981TIP3    H232889   0.633   4.279   7.697
10982TIP3   OH232890   1.074   4.738   6.636
10982TIP3    H132891   1.156   4.791   6.647
10982TIP3    H232892   1.013   4.803   6.599
10983TIP3   OH232893   0.777   4.889   7.711
10983TIP3    H132894   0.747   4.898   7.619
10983TIP3    H232895   0.697   4.855   7.755
10984TIP3   OH232896   1.843   3.302   6.412
10984TIP3    H132897   1.762   3.323   6.463
10984TIP3    H232898   1.858   3.385   6.363
10985TIP3   OH232899   0.603   4.034   6.752
10985TIP3    H132900   0.537   4.082   6.697
10985TIP3    H232901   0.552   3.957   6.780
10986TIP3   OH232902   1.641   4.674   5.950
10986TIP3    H132903   1.658   4.770   5.941
10986TIP3    H232904   1.733   4.639   5.941
10987TIP3   OH232905   2.085   5.076   7.357
10987TIP3    H132906   2.084   4.979   7.369
10987TIP3    H232907   2.001   5.099   7.403
10988TIP3   OH232908   1.190   4.855   7.489
10988TIP3    H132909   1.188   4.948   7.520
10988TIP3    H232910   1.119   4.815   7.543
10989TIP3   OH232911   0.957   4.988   6.442
10989TIP3    H132912   0.905   4.976   6.361
10989TIP3    H232913   0.927   5.075   6.475
10990TIP3   OH232914   1.156   4.887   6.081
10990TIP3    H132915   1.216   4.817   6.050
10990TIP3    H232916   1.187   4.901   6.173
10991TIP3   OH232917   1.206   4.937   6.348
10991TIP3    H132918   1.117   4.948   6.389
10991TIP3    H232919   1.256   4.899   6.422
10992TIP3   OH232920   1.971   4.201   7.633
10992TIP3    H132921   1.891   4.211   7.579
10992TIP3    H232922   1.990   4.106   7.622
10993TIP3   OH232923   0.971   3.434   7.431
10993TIP3    H132924   0.882   3.404   7.404
10993TIP3    H232925   0.946   3.514   7.481
10994TIP3   OH232926   1.509   3.557   7.617
10994TIP3    H132927   1.582   3.523   7.674
10994TIP3    H232928   1.428   3.533   7.667
10995TIP3   OH232929   1.743   3.979   7.549
10995TIP3    H132930   1.696   3.975   7.636
10995TIP3    H232931   1.718   4.067   7.515
10996TIP3   OH232932   1.401   4.104   6.105
10996TIP3    H132933   1.370   4.082   6.016
10996TIP3    H232934   1.487   4.146   6.084
10997TIP3   OH232935   1.117   3.482   6.412
10997TIP3    H132936   1.083   3.480   6.504
10997TIP3    H232937   1.078   3.400   6.378
10998TIP3   OH232938   0.905   3.948   7.463
10998TIP3    H132939   0.854   3.974   7.543
10998TIP3    H232940   0.899   4.030   7.408
10999TIP3   OH232941   0.790   3.833   6.973
10999TIP3    H132942   0.695   3.818   6.989
10999TIP3    H232943   0.800   3.795   6.883
11000TIP3   OH232944   1.276   3.919   6.701
11000TIP3    H132945   1.227   3.991   6.657
11000TIP3    H232946   1.333   3.887   6.628
11001TIP3   OH232947   1.464   4.210   7.780
11001TIP3    H132948   1.437   4.129   7.827
11001TIP3    H232949   1.559   4.214   7.801
11002TIP3   OH232950   1.433   3.947   6.938
11002TIP3    H132951   1.371   3.975   6.868
11002TIP3    H232952   1.469   3.867   6.893
11003TIP3   OH232953   0.733   3.970   7.686
11003TIP3    H132954   0.758   4.060   7.713
11003TIP3    H232955   0.653   3.956   7.737
11004TIP3   OH232956   0.772   3.455   6.375
11004TIP3    H132957   0.763   3.457   6.472
11004TIP3    H232958   0.693   3.505   6.347
11005TIP3   OH232959   0.354   3.504   7.252
11005TIP3    H132960   0.398   3.545   7.331
11005TIP3    H232961   0.435   3.477   7.205
11006TIP3   OH232962   0.326   3.539   6.808
11006TIP3    H132963   0.357   3.530   6.716
11006TIP3    H232964   0.297   3.632   6.805
11007TIP3   OH232965   1.446   4.196   7.357
11007TIP3    H132966   1.479   4.124   7.298
11007TIP3    H232967   1.414   4.142   7.433
11008TIP3   OH232968   1.118   3.661   7.033
11008TIP3    H132969   1.042   3.658   7.093
11008TIP3    H232970   1.193   3.648   7.094
11009TIP3   OH232971   0.551   3.704   7.040
11009TIP3    H132972   0.467   3.690   6.995
11009TIP3    H232973   0.600   3.622   7.020
11010TIP3   OH232974   0.812   3.706   6.731
11010TIP3    H132975   0.907   3.723   6.715
11010TIP3    H232976   0.769   3.733   6.646
11011TIP3   OH232977   1.608   3.736   7.238
11011TIP3    H132978   1.574   3.750   7.329
11011TIP3    H232979   1.543   3.674   7.203
11012TIP3   OH232980   0.662   3.745   6.503
11012TIP3    H132981   0.599   3.701   6.443
11012TIP3    H232982   0.719   3.789   6.436
11013TIP3   OH232983   1.781   5.423   7.456
11013TIP3    H132984   1.777   5.447   7.362
11013TIP3    H232985   1.860   5.471   7.485
11014TIP3   OH232986   0.749   4.491   7.851
11014TIP3    H132987   0.821   4.550   7.884
11014TIP3    H232988   0.683   4.508   7.919
11015TIP3   OH232989   1.197   3.989   7.130
11015TIP3    H132990   1.272   3.949   7.084
11015TIP3    H232991   1.200   3.945   7.217
11016TIP3   OH232992   0.709   3.477   7.010
11016TIP3    H132993   0.685   3.394   7.056
11016TIP3    H232994   0.767   3.445   6.940
11017TIP3   OH232995   1.173   3.889   7.416
11017TIP3    H132996   1.084   3.927   7.431
11017TIP3    H232997   1.231   3.950   7.466
11018TIP3   OH232998   0.911   4.273   6.513
11018TIP3    H132999   0.838   4.209   6.502
11018TIP3    H233000   0.892   4.307   6.604
11019TIP3   OH233001   1.808   4.512   7.142
11019TIP3    H133002   1.834   4.562   7.061
11019TIP3    H233003   1.725   4.468   7.114
11020TIP3   OH233004   1.364   3.591   6.363
11020TIP3    H133005   1.271   3.568   6.386
11020TIP3    H233006   1.377   3.680   6.403
11021TIP3   OH233007   1.310   4.595   7.513
11021TIP3    H133008   1.331   4.575   7.605
11021TIP3    H233009   1.271   4.684   7.518
11022TIP3   OH233010   1.437   3.832   6.482
11022TIP3    H133011   1.533   3.838   6.500
11022TIP3    H233012   1.420   3.914   6.433
11023TIP3   OH233013   0.606   4.284   7.192
11023TIP3    H133014   0.653   4.243   7.118
11023TIP3    H233015   0.620   4.222   7.266
11024TIP3   OH233016   1.054   4.424   6.336
11024TIP3    H133017   1.005   4.510   6.340
11024TIP3    H233018   1.000   4.369   6.398
11025TIP3   OH233019   1.213   4.334   7.804
11025TIP3    H133020   1.150   4.271   7.765
11025TIP3    H233021   1.299   4.296   7.776
11026TIP3   OH233022   1.468   4.853   7.406
11026TIP3    H133023   1.372   4.850   7.422
11026TIP3    H233024   1.497   4.907   7.483
11027TIP3   OH233025   1.873   3.928   6.319
11027TIP3    H133026   1.811   3.884   6.256
11027TIP3    H233027   1.873   4.017   6.278
11028TIP3   OH233028   2.099   4.788   7.396
11028TIP3    H133029   2.001   4.778   7.387
11028TIP3    H233030   2.126   4.756   7.307
11029TIP3   OH233031   1.576   4.745   6.224
11029TIP3    H133032   1.554   4.681   6.294
11029TIP3    H233033   1.592   4.688   6.147
11030TIP3   OH233034   1.575   4.374   7.058
11030TIP3    H133035   1.482   4.349   7.072
11030TIP3    H233036   1.609   4.293   7.015
11031TIP3   OH233037   0.705   4.600   6.811
11031TIP3    H133038   0.695   4.680   6.757
11031TIP3    H233039   0.624   4.600   6.863
11032TIP3   OH233040   0.275   3.912   6.535
11032TIP3    H133041   0.333   3.989   6.552
11032TIP3    H233042   0.188   3.954   6.544
11033TIP3   OH233043   0.837   4.363   6.756
11033TIP3    H133044   0.801   4.452   6.774
11033TIP3    H233045   0.804   4.313   6.833
11034TIP3   OH233046   0.981   4.945   7.286
11034TIP3    H133047   1.024   5.016   7.235
11034TIP3    H233048   1.058   4.907   7.333
11035TIP3   OH233049   0.618   4.843   6.673
11035TIP3    H133050   0.542   4.866   6.727
11035TIP3    H233051   0.662   4.931   6.668
11036TIP3   OH233052   1.359   4.579   7.245
11036TIP3    H133053   1.349   4.577   7.343
11036TIP3    H233054   1.438   4.524   7.233
11037TIP3   OH233055   1.334   4.480   6.132
11037TIP3    H133056   1.392   4.453   6.208
11037TIP3    H233057   1.249   4.443   6.161
11038TIP3   OH233058   1.610   5.110   7.294
11038TIP3    H133059   1.530   5.054   7.289
11038TIP3    H233060   1.593   5.174   7.222
11039TIP3   OH233061   1.676   4.959   5.939
11039TIP3    H133062   1.729   5.040   5.926
11039TIP3    H233063   1.596   4.998   5.979
11040TIP3   OH233064   1.499   4.402   6.337
11040TIP3    H133065   1.488   4.338   6.411
11040TIP3    H233066   1.596   4.400   6.328
11041TIP3   OH233067   0.703   4.449   6.124
11041TIP3    H133068   0.715   4.355   6.101
11041TIP3    H233069   0.683   4.443   6.219
11042TIP3   OH233070   0.651   4.458   6.398
11042TIP3    H133071   0.724   4.432   6.456
11042TIP3    H233072   0.654   4.556   6.406
11043TIP3   OH233073   0.399   4.144   6.609
11043TIP3    H133074   0.344   4.193   6.672
11043TIP3    H233075   0.410   4.211   6.539
11044TIP3   OH233076   1.532   3.797   7.496
11044TIP3    H133077   1.618   3.830   7.528
11044TIP3    H233078   1.522   3.712   7.545
11045TIP3   OH233079   1.414   3.537   6.663
11045TIP3    H133080   1.405   3.563   6.570
11045TIP3    H233081   1.455   3.616   6.702
11046TIP3   OH233082   0.913   4.656   6.345
11046TIP3    H133083   0.827   4.678   6.386
11046TIP3    H233084   0.928   4.736   6.294
11047TIP3   OH233085   1.092   3.721   6.764
11047TIP3    H133086   1.158   3.792   6.746
11047TIP3    H233087   1.103   3.710   6.861
11048TIP3   OH233088   1.369   4.031   7.560
11048TIP3    H133089   1.388   4.075   7.644
11048TIP3    H233090   1.422   3.949   7.565
11049TIP3   OH233091   1.242   3.438   6.860
11049TIP3    H133092   1.247   3.509   6.926
11049TIP3    H233093   1.304   3.473   6.792
11050TIP3   OH233094   0.659   4.729   6.421
11050TIP3    H133095   0.630   4.798   6.357
11050TIP3    H233096   0.639   4.773   6.506
11051TIP3   OH233097   0.756   3.444   6.653
11051TIP3    H133098   0.758   3.535   6.688
11051TIP3    H233099   0.852   3.423   6.660
11052TIP3   OH233100   2.009   3.937   7.552
11052TIP3    H133101   1.911   3.935   7.556
11052TIP3    H233102   2.023   3.890   7.469
11053TIP3   OH233103   1.661   4.130   6.939
11053TIP3    H133104   1.585   4.070   6.952
11053TIP3    H233105   1.733   4.084   6.987
11054TIP3   OH233106   0.383   4.359   6.444
11054TIP3    H133107   0.460   4.418   6.435
11054TIP3    H233108   0.393   4.309   6.361
11055TIP3   OH233109   0.286   3.633   6.551
11055TIP3    H133110   0.296   3.731   6.547
11055TIP3    H233111   0.265   3.614   6.458
11056TIP3   OH233112   1.630   5.089   6.886
11056TIP3    H133113   1.588   5.135   6.811
11056TIP3    H233114   1.725   5.108   6.866
11057TIP3   OH233115   0.704   3.351   7.411
11057TIP3    H133116   0.678   3.315   7.324
11057TIP3    H233117   0.698   3.271   7.468
11058TIP3   OH233118   0.860   5.094   7.885
11058TIP3    H133119   0.945   5.084   7.930
11058TIP3    H233120   0.859   5.017   7.824
11059TIP3   OH233121   0.863   4.653   6.034
11059TIP3    H133122   0.807   4.583   6.074
11059TIP3    H233123   0.939   4.600   6.005
11060TIP3   OH233124   1.524   4.994   7.635
11060TIP3    H133125   1.512   4.918   7.697
11060TIP3    H233126   1.600   5.041   7.674
11061TIP3   OH233127   1.309   4.686   5.961
11061TIP3    H133128   1.318   4.618   6.031
11061TIP3    H233129   1.395   4.679   5.918
11062TIP3   OH233130   0.510   4.172   6.269
11062TIP3    H133131   0.571   4.148   6.340
11062TIP3    H233132   0.573   4.176   6.193
11063TIP3   OH233133   1.165   4.611   7.821
11063TIP3    H133134   1.112   4.631   7.741
11063TIP3    H233135   1.183   4.514   7.810
11064TIP3   OH233136   1.027   4.371   6.068
11064TIP3    H133137   1.026   4.383   6.165
11064TIP3    H233138   1.026   4.273   6.063
11065TIP3   OH233139   1.632   4.620   7.450
11065TIP3    H133140   1.708   4.662   7.404
11065TIP3    H233141   1.562   4.686   7.433
11066TIP3   OH233142   0.714   4.079   6.480
11066TIP3    H133143   0.695   4.038   6.566
11066TIP3    H233144   0.753   4.004   6.430
11067TIP3   OH233145   0.990   4.144   7.712
11067TIP3    H133146   0.909   4.198   7.707
11067TIP3    H233147   1.039   4.175   7.632
11068TIP3   OH233148   0.822   3.874   6.323
11068TIP3    H133149   0.796   3.880   6.229
11068TIP3    H233150   0.920   3.875   6.315
11069TIP3   OH233151   1.511   4.537   7.847
11069TIP3    H133152   1.578   4.507   7.786
11069TIP3    H233153   1.503   4.462   7.908
11070TIP3   OH233154   1.634   4.199   5.989
11070TIP3    H133155   1.620   4.154   5.903
11070TIP3    H233156   1.601   4.289   5.965
11071TIP3   OH233157   1.105   3.922   7.833
11071TIP3    H133158   1.096   3.848   7.771
11071TIP3    H233159   1.049   3.992   7.793
11072TIP3   OH233160   1.105   3.723   7.635
11072TIP3    H133161   1.134   3.772   7.555
11072TIP3    H233162   1.013   3.700   7.613
11073TIP3   OH233163   1.139   4.253   7.516
11073TIP3    H133164   1.222   4.264   7.469
11073TIP3    H233165   1.079   4.315   7.469
11074TIP3   OH233166   1.731   4.208   7.890
11074TIP3    H133167   1.767   4.118   7.904
11074TIP3    H233168   1.805   4.251   7.845
11075TIP3   OH233169   1.760   4.473   7.634
11075TIP3    H133170   1.704   4.528   7.575
11075TIP3    H233171   1.849   4.492   7.596
11076TIP3   OH233172   1.246   3.485   7.674
11076TIP3    H133173   1.198   3.570   7.664
11076TIP3    H233174   1.174   3.420   7.659
11077TIP3   OH233175   1.362   3.979   7.883
11077TIP3    H133176   1.343   4.020   7.970
11077TIP3    H233177   1.271   3.949   7.859
11078TIP3   OH233178   1.620   3.938   7.785
11078TIP3    H133179   1.534   3.931   7.830
11078TIP3    H233180   1.683   3.912   7.856
11079TIP3   OH233181   1.830   3.902   7.972
11079TIP3    H133182   1.860   3.808   7.963
11079TIP3    H233183   1.823   3.908   8.070
11080TIP3   OH233184   1.259   3.330   7.905
11080TIP3    H133185   1.314   3.376   7.972
11080TIP3    H233186   1.268   3.389   7.828
11081TIP3   OH233187   0.629   4.922   6.227
11081TIP3    H133188   0.724   4.924   6.205
11081TIP3    H233189   0.595   4.982   6.159
11082TIP3   OH233190   1.884   5.179   6.847
11082TIP3    H133191   1.913   5.209   6.935
11082TIP3    H233192   1.953   5.216   6.789
11083TIP3   OH233193   1.912   5.197   7.130
11083TIP3    H133194   1.867   5.110   7.125
11083TIP3    H233195   1.989   5.172   7.183
11084TIP3   OH233196   1.961   4.873   7.707
11084TIP3    H133197   1.885   4.883   7.767
11084TIP3    H233198   2.001   4.962   7.708
11085TIP3   OH233199   1.777   4.388   6.319
11085TIP3    H133200   1.845   4.451   6.289
11085TIP3    H233201   1.821   4.350   6.398
11086TIP3   OH233202   1.903   4.255   6.524
11086TIP3    H133203   1.838   4.214   6.585
11086TIP3    H233204   1.972   4.289   6.585
11087TIP3   OH233205   1.960   4.647   6.954
11087TIP3    H133206   2.014   4.579   6.910
11087TIP3    H233207   1.957   4.718   6.887
11088TIP3   OH233208   1.787   4.947   7.150
11088TIP3    H133209   1.715   4.988   7.200
11088TIP3    H233210   1.739   4.900   7.078
11089TIP3   OH233211   1.839   4.162   6.169
11089TIP3    H133212   1.768   4.166   6.102
11089TIP3    H233213   1.813   4.238   6.225
11090TIP3   OH233214   1.705   3.834   6.127
11090TIP3    H133215   1.672   3.870   6.044
11090TIP3    H233216   1.684   3.739   6.115
11091TIP3   OH233217   1.714   4.113   6.669
11091TIP3    H133218   1.726   4.017   6.663
11091TIP3    H233219   1.701   4.126   6.766
11092TIP3   OH233220   2.008   4.537   7.530
11092TIP3    H133221   2.078   4.469   7.520
11092TIP3    H233222   2.031   4.601   7.461
11093TIP3   OH233223   2.188   4.338   7.545
11093TIP3    H133224   2.113   4.286   7.581
11093TIP3    H233225   2.262   4.274   7.559
11094TIP3   OH233226   1.659   3.565   6.104
11094TIP3    H133227   1.739   3.542   6.158
11094TIP3    H233228   1.592   3.506   6.140
11095TIP3   OH233229   1.713   3.827   6.560
11095TIP3    H133230   1.755   3.739   6.575
11095TIP3    H233231   1.772   3.861   6.491
11096TIP3   OH233232   1.873   3.999   7.059
11096TIP3    H133233   1.959   4.024   7.017
11096TIP3    H233234   1.889   4.035   7.148
11097TIP3   OH233235   1.946   4.145   7.290
11097TIP3    H133236   1.868   4.180   7.337
11097TIP3    H233237   1.979   4.226   7.244
11098TIP3   OH233238   2.395   3.740   7.845
11098TIP3    H133239   2.459   3.680   7.801
11098TIP3    H233240   2.367   3.797   7.770
11099TIP3   OH233241   1.821   3.578   6.602
11099TIP3    H133242   1.871   3.562   6.685
11099TIP3    H233243   1.761   3.500   6.602
11100TIP3   OH233244   0.539   3.569   7.438
11100TIP3    H133245   0.602   3.493   7.437
11100TIP3    H233246   0.600   3.642   7.413
11101TIP3   OH233247   2.264   3.873   7.645
11101TIP3    H133248   2.176   3.914   7.660
11101TIP3    H233249   2.237   3.800   7.586
11102TIP3   OH233250   1.899   3.511   6.233
11102TIP3    H133251   1.943   3.440   6.182
11102TIP3    H233252   1.968   3.581   6.235
11103TIP3   OH233253   0.242   3.383   7.014
11103TIP3    H133254   0.224   3.294   6.975
11103TIP3    H233255   0.285   3.429   6.937
11104TIP3   OH233256   1.468   5.043   6.500
11104TIP3    H133257   1.524   5.036   6.420
11104TIP3    H233258   1.516   5.110   6.552
11105TIP3   OH233259   0.743   4.901   7.422
11105TIP3    H133260   0.724   4.992   7.392
11105TIP3    H233261   0.834   4.892   7.386
11106TIP3   OH233262   1.189   5.119   7.566
11106TIP3    H133263   1.228   5.121   7.656
11106TIP3    H233264   1.254   5.175   7.517
11107TIP3   OH233265   1.369   5.279   7.433
11107TIP3    H133266   1.439   5.227   7.392
11107TIP3    H233267   1.421   5.336   7.494
11108TIP3   OH233268   2.167   3.633   7.523
11108TIP3    H133269   2.075   3.621   7.493
11108TIP3    H233270   2.201   3.541   7.514
11109TIP3   OH233271   0.676   5.144   7.265
11109TIP3    H133272   0.635   5.197   7.336
11109TIP3    H233273   0.599   5.125   7.209
11110TIP3   OH233274   1.088   5.142   7.118
11110TIP3    H133275   1.030   5.162   7.042
11110TIP3    H233276   1.099   5.231   7.158
11111TIP3   OH233277   1.356   5.082   7.168
11111TIP3    H133278   1.262   5.100   7.149
11111TIP3    H233279   1.399   5.156   7.123
11112TIP3   OH233280   1.559   5.273   7.079
11112TIP3    H133281   1.546   5.358   7.031
11112TIP3    H233282   1.587   5.213   7.007
11113TIP3   OH233283   0.535   4.804   7.053
11113TIP3    H133284   0.542   4.715   7.093
11113TIP3    H233285   0.627   4.834   7.055
11114TIP3   OH233286   0.810   4.899   7.064
11114TIP3    H133287   0.837   4.806   7.055
11114TIP3    H233288   0.855   4.920   7.148
11115TIP3   OH233289   1.361   3.546   7.140
11115TIP3    H133290   1.327   3.476   7.198
11115TIP3    H233291   1.443   3.506   7.104
11116TIP3   OH233292   1.889   3.435   7.053
11116TIP3    H133293   1.926   3.485   6.978
11116TIP3    H233294   1.794   3.454   7.047
11117TIP3   OH233295   1.986   3.532   6.817
11117TIP3    H133296   2.060   3.479   6.781
11117TIP3    H233297   2.022   3.623   6.803
11118TIP3   OH233298   0.611   3.257   7.166
11118TIP3    H133299   0.523   3.217   7.167
11118TIP3    H233300   0.668   3.176   7.164
11119TIP3   OH233301   0.435   3.123   6.816
11119TIP3    H133302   0.467   3.176   6.740
11119TIP3    H233303   0.344   3.154   6.825
11120TIP3   OH233304   1.060   3.300   7.053
11120TIP3    H133305   1.116   3.343   6.986
11120TIP3    H233306   1.103   3.327   7.136
11121TIP3   OH233307   1.602   3.440   7.032
11121TIP3    H133308   1.614   3.396   6.946
11121TIP3    H233309   1.593   3.361   7.091
11122TIP3   OH233310   1.638   3.364   6.594
11122TIP3    H133311   1.552   3.406   6.613
11122TIP3    H233312   1.627   3.278   6.640
11123TIP3   OH233313   0.528   3.281   6.593
11123TIP3    H133314   0.571   3.222   6.528
11123TIP3    H233315   0.604   3.337   6.620
11124TIP3   OH233316   1.033   3.469   6.675
11124TIP3    H133317   1.094   3.422   6.734
11124TIP3    H233318   1.054   3.562   6.701
11125TIP3   OH233319   0.896   4.887   6.175
11125TIP3    H133320   0.985   4.909   6.141
11125TIP3    H233321   0.874   4.811   6.116
11126TIP3   OH233322   1.616   5.011   6.266
11126TIP3    H133323   1.605   4.913   6.258
11126TIP3    H233324   1.563   5.041   6.190
11127TIP3   OH233325   1.938   3.647   7.958
11127TIP3    H133326   1.971   3.582   8.025
11127TIP3    H233327   2.007   3.636   7.890
11128TIP3   OH233328   1.836   5.152   7.459
11128TIP3    H133329   1.759   5.122   7.406
11128TIP3    H233330   1.818   5.248   7.462
11129TIP3   OH233331   3.108   4.533   6.217
11129TIP3    H133332   3.072   4.620   6.192
11129TIP3    H233333   3.034   4.476   6.191
11130TIP3   OH233334   3.107   4.531   6.605
11130TIP3    H133335   3.122   4.487   6.691
11130TIP3    H233336   3.069   4.455   6.558
11131TIP3   OH233337   2.402   4.423   6.976
11131TIP3    H133338   2.429   4.355   7.040
11131TIP3    H233339   2.487   4.450   6.939
11132TIP3   OH233340   3.363   4.827   6.288
11132TIP3    H133341   3.329   4.754   6.343
11132TIP3    H233342   3.367   4.901   6.351
11133TIP3   OH233343   2.377   4.830   6.690
11133TIP3    H133344   2.369   4.732   6.691
11133TIP3    H233345   2.474   4.839   6.683
11134TIP3   OH233346   2.081   4.029   6.473
11134TIP3    H133347   2.037   4.114   6.492
11134TIP3    H233348   2.008   3.980   6.430
11135TIP3   OH233349   2.139   4.319   6.652
11135TIP3    H133350   2.189   4.241   6.687
11135TIP3    H233351   2.205   4.360   6.594
11136TIP3   OH233352   3.003   5.292   6.305
11136TIP3    H133353   3.043   5.221   6.250
11136TIP3    H233354   2.991   5.247   6.389
11137TIP3   OH233355   2.903   4.753   6.653
11137TIP3    H133356   2.940   4.671   6.615
11137TIP3    H233357   2.987   4.798   6.674
11138TIP3   OH233358   3.925   4.065   6.648
11138TIP3    H133359   3.955   4.151   6.684
11138TIP3    H233360   3.968   4.067   6.559
11139TIP3   OH233361   3.336   4.260   6.681
11139TIP3    H133362   3.364   4.167   6.692
11139TIP3    H233363   3.258   4.248   6.622
11140TIP3   OH233364   2.654   3.910   6.649
11140TIP3    H133365   2.642   3.986   6.588
11140TIP3    H233366   2.604   3.841   6.600
11141TIP3   OH233367   3.353   3.989   6.265
11141TIP3    H133368   3.423   3.981   6.335
11141TIP3    H233369   3.403   4.038   6.197
11142TIP3   OH233370   2.287   4.114   6.755
11142TIP3    H133371   2.370   4.095   6.803
11142TIP3    H233372   2.303   4.060   6.675
11143TIP3   OH233373   2.710   4.316   6.557
11143TIP3    H133374   2.805   4.296   6.580
11143TIP3    H233375   2.684   4.229   6.520
11144TIP3   OH233376   3.994   4.277   6.823
11144TIP3    H133377   3.911   4.323   6.800
11144TIP3    H233378   4.017   4.321   6.906
11145TIP3   OH233379   2.651   3.896   7.084
11145TIP3    H133380   2.595   3.934   7.014
11145TIP3    H233381   2.598   3.917   7.163
11146TIP3   OH233382   2.990   4.749   6.091
11146TIP3    H133383   2.955   4.733   6.002
11146TIP3    H233384   2.943   4.831   6.116
11147TIP3   OH233385   2.761   4.671   6.874
11147TIP3    H133386   2.700   4.740   6.909
11147TIP3    H233387   2.803   4.717   6.798
11148TIP3   OH233388   3.556   4.005   6.449
11148TIP3    H133389   3.527   3.974   6.536
11148TIP3    H233390   3.606   4.085   6.471
11149TIP3   OH233391   2.515   4.002   6.866
11149TIP3    H133392   2.574   4.077   6.892
11149TIP3    H233393   2.568   3.966   6.791
11150TIP3   OH233394   2.588   4.870   6.976
11150TIP3    H133395   2.561   4.956   6.939
11150TIP3    H233396   2.509   4.850   7.030
11151TIP3   OH233397   1.977   4.558   6.212
11151TIP3    H133398   1.941   4.587   6.126
11151TIP3    H233399   2.012   4.642   6.248
11152TIP3   OH233400   3.423   5.075   6.450
11152TIP3    H133401   3.335   5.064   6.493
11152TIP3    H233402   3.409   5.162   6.406
11153TIP3   OH233403   3.712   3.969   6.816
11153TIP3    H133404   3.623   3.992   6.783
11153TIP3    H233405   3.770   4.003   6.744
11154TIP3   OH233406   3.004   3.609   6.800
11154TIP3    H133407   2.985   3.515   6.818
11154TIP3    H233408   2.928   3.652   6.845
11155TIP3   OH233409   3.116   5.118   6.123
11155TIP3    H133410   3.165   5.034   6.104
11155TIP3    H233411   3.180   5.182   6.083
11156TIP3   OH233412   3.261   4.903   6.039
11156TIP3    H133413   3.235   4.824   5.991
11156TIP3    H233414   3.302   4.865   6.120
11157TIP3   OH233415   3.650   4.981   6.794
11157TIP3    H133416   3.633   4.903   6.737
11157TIP3    H233417   3.627   5.055   6.734
11158TIP3   OH233418   2.936   4.380   6.054
11158TIP3    H133419   2.857   4.433   6.031
11158TIP3    H233420   2.983   4.375   5.968
11159TIP3   OH233421   2.895   4.163   5.770
11159TIP3    H133422   2.962   4.216   5.816
11159TIP3    H233423   2.953   4.100   5.722
11160TIP3   OH233424   3.844   4.622   6.653
11160TIP3    H133425   3.761   4.674   6.643
11160TIP3    H233426   3.877   4.617   6.562
11161TIP3   OH233427   3.286   4.462   6.022
11161TIP3    H133428   3.231   4.485   6.101
11161TIP3    H233429   3.369   4.435   6.066
11162TIP3   OH233430   3.524   4.497   6.939
11162TIP3    H133431   3.513   4.583   6.983
11162TIP3    H233432   3.435   4.488   6.897
11163TIP3   OH233433   2.514   4.462   6.440
11163TIP3    H133434   2.476   4.400   6.374
11163TIP3    H233435   2.589   4.409   6.477
11164TIP3   OH233436   2.646   4.870   6.589
11164TIP3    H133437   2.627   4.834   6.501
11164TIP3    H233438   2.735   4.833   6.607
11165TIP3   OH233439   2.637   4.434   6.800
11165TIP3    H133440   2.675   4.397   6.717
11165TIP3    H233441   2.693   4.512   6.816
11166TIP3   OH233442   3.186   5.067   6.574
11166TIP3    H133443   3.169   5.145   6.630
11166TIP3    H233444   3.167   4.992   6.634
11167TIP3   OH233445   2.792   4.986   7.121
11167TIP3    H133446   2.730   5.047   7.166
11167TIP3    H233447   2.729   4.932   7.069
11168TIP3   OH233448   3.122   4.320   5.852
11168TIP3    H133449   3.182   4.379   5.902
11168TIP3    H233450   3.149   4.341   5.759
11169TIP3   OH233451   2.551   4.543   7.233
11169TIP3    H133452   2.548   4.633   7.272
11169TIP3    H233453   2.456   4.522   7.228
11170TIP3   OH233454   2.868   4.999   6.129
11170TIP3    H133455   2.951   5.049   6.134
11170TIP3    H233456   2.810   5.059   6.080
11171TIP3   OH233457   2.584   5.153   7.207
11171TIP3    H133458   2.551   5.155   7.115
11171TIP3    H233459   2.503   5.131   7.258
11172TIP3   OH233460   3.638   3.557   5.899
11172TIP3    H133461   3.558   3.583   5.950
11172TIP3    H233462   3.656   3.640   5.849
11173TIP3   OH233463   2.383   4.301   6.247
11173TIP3    H133464   2.314   4.342   6.191
11173TIP3    H233465   2.350   4.211   6.257
11174TIP3   OH233466   3.442   4.925   5.452
11174TIP3    H133467   3.450   5.021   5.432
11174TIP3    H233468   3.534   4.895   5.438
11175TIP3   OH233469   2.162   4.688   7.153
11175TIP3    H133470   2.097   4.664   7.084
11175TIP3    H233471   2.201   4.601   7.178
11176TIP3   OH233472   2.019   4.879   6.782
11176TIP3    H133473   2.115   4.867   6.774
11176TIP3    H233474   2.014   4.955   6.842
11177TIP3   OH233475   3.879   5.326   6.846
11177TIP3    H133476   3.881   5.230   6.862
11177TIP3    H233477   3.796   5.351   6.892
11178TIP3   OH233478   2.984   5.116   6.976
11178TIP3    H133479   2.983   5.208   7.009
11178TIP3    H233480   2.914   5.076   7.031
11179TIP3   OH233481   2.751   5.241   5.930
11179TIP3    H133482   2.706   5.221   5.846
11179TIP3    H233483   2.717   5.329   5.953
11180TIP3   OH233484   2.186   5.091   6.318
11180TIP3    H133485   2.236   5.084   6.402
11180TIP3    H233486   2.139   5.005   6.318
11181TIP3   OH233487   2.950   5.146   5.567
11181TIP3    H133488   3.007   5.075   5.530
11181TIP3    H233489   2.986   5.154   5.658
11182TIP3   OH233490   3.003   5.195   5.838
11182TIP3    H133491   2.914   5.203   5.879
11182TIP3    H233492   3.052   5.150   5.909
11183TIP3   OH233493   3.765   4.456   7.117
11183TIP3    H133494   3.685   4.468   7.064
11183TIP3    H233495   3.782   4.361   7.106
11184TIP3   OH233496   2.367   4.871   7.139
11184TIP3    H133497   2.417   4.851   7.221
11184TIP3    H233498   2.293   4.806   7.145
11185TIP3   OH233499   2.767   3.688   6.929
11185TIP3    H133500   2.677   3.660   6.900
11185TIP3    H233501   2.744   3.772   6.973
11186TIP3   OH233502   3.303   3.804   7.123
11186TIP3    H133503   3.370   3.776   7.188
11186TIP3    H233504   3.218   3.787   7.168
11187TIP3   OH233505   3.544   4.235   7.045
11187TIP3    H133506   3.489   4.235   7.126
11187TIP3    H233507   3.517   4.317   7.000
11188TIP3   OH233508   3.203   4.363   5.599
11188TIP3    H133509   3.164   4.341   5.513
11188TIP3    H233510   3.288   4.404   5.571
11189TIP3   OH233511   2.914   3.736   5.902
11189TIP3    H133512   2.879   3.733   5.993
11189TIP3    H233513   2.871   3.657   5.865
11190TIP3   OH233514   2.680   4.195   6.949
11190TIP3    H133515   2.647   4.241   7.028
11190TIP3    H233516   2.698   4.270   6.889
11191TIP3   OH233517   2.582   4.090   6.459
11191TIP3    H133518   2.490   4.063   6.478
11191TIP3    H233519   2.595   4.048   6.370
11192TIP3   OH233520   3.065   4.170   6.182
11192TIP3    H133521   3.020   4.247   6.141
11192TIP3    H233522   3.127   4.143   6.111
11193TIP3   OH233523   3.254   4.461   7.287
11193TIP3    H133524   3.230   4.385   7.344
11193TIP3    H233525   3.350   4.467   7.304
11194TIP3   OH233526   3.254   4.222   6.401
11194TIP3    H133527   3.165   4.238   6.365
11194TIP3    H233528   3.268   4.130   6.373
11195TIP3   OH233529   2.504   4.244   7.167
11195TIP3    H133530   2.561   4.298   7.223
11195TIP3    H233531   2.505   4.157   7.212
11196TIP3   OH233532   2.569   3.713   5.863
11196TIP3    H133533   2.558   3.715   5.960
11196TIP3    H233534   2.493   3.767   5.835
11197TIP3   OH233535   2.113   3.754   6.735
11197TIP3    H133536   2.184   3.789   6.792
11197TIP3    H233537   2.159   3.729   6.654
11198TIP3   OH233538   2.074   3.735   6.255
11198TIP3    H133539   2.121   3.771   6.176
11198TIP3    H233540   2.016   3.811   6.274
11199TIP3   OH233541   3.265   4.454   6.853
11199TIP3    H133542   3.287   4.383   6.787
11199TIP3    H233543   3.219   4.401   6.920
11200TIP3   OH233544   2.918   3.913   6.523
11200TIP3    H133545   2.838   3.911   6.579
11200TIP3    H233546   2.970   3.981   6.571
11201TIP3   OH233547   2.343   3.971   6.528
11201TIP3    H133548   2.249   3.976   6.498
11201TIP3    H233549   2.370   3.880   6.504
11202TIP3   OH233550   2.609   3.963   6.217
11202TIP3    H133551   2.704   3.981   6.201
11202TIP3    H233552   2.566   3.988   6.133
11203TIP3   OH233553   3.404   3.986   6.725
11203TIP3    H133554   3.368   4.006   6.814
11203TIP3    H233555   3.331   3.931   6.690
11204TIP3   OH233556   2.458   4.002   5.992
11204TIP3    H133557   2.392   3.955   5.938
11204TIP3    H233558   2.513   4.043   5.921
11205TIP3   OH233559   3.576   5.681   6.944
11205TIP3    H133560   3.573   5.705   6.849
11205TIP3    H233561   3.657   5.727   6.974
11206TIP3   OH233562   2.528   4.794   7.363
11206TIP3    H133563   2.609   4.820   7.410
11206TIP3    H233564   2.465   4.790   7.437
11207TIP3   OH233565   2.507   3.732   6.497
11207TIP3    H133566   2.475   3.653   6.546
11207TIP3    H233567   2.560   3.692   6.427
11208TIP3   OH233568   2.702   4.532   5.999
11208TIP3    H133569   2.631   4.465   5.988
11208TIP3    H233570   2.683   4.564   6.090
11209TIP3   OH233571   3.606   4.764   6.622
11209TIP3    H133572   3.602   4.818   6.542
11209TIP3    H233573   3.521   4.713   6.614
11210TIP3   OH233574   3.164   3.841   5.867
11210TIP3    H133575   3.068   3.824   5.877
11210TIP3    H233576   3.174   3.935   5.892
11211TIP3   OH233577   3.120   4.861   6.994
11211TIP3    H133578   3.127   4.820   7.081
11211TIP3    H233579   3.067   4.941   7.011
11212TIP3   OH233580   3.234   4.090   5.968
11212TIP3    H133581   3.330   4.097   5.986
11212TIP3    H233582   3.216   4.171   5.917
11213TIP3   OH233583   2.399   4.551   6.674
11213TIP3    H133584   2.435   4.526   6.586
11213TIP3    H233585   2.459   4.501   6.732
11214TIP3   OH233586   2.855   4.681   5.830
11214TIP3    H133587   2.805   4.766   5.832
11214TIP3    H233588   2.798   4.625   5.888
11215TIP3   OH233589   2.276   4.480   7.295
11215TIP3    H133590   2.300   4.460   7.387
11215TIP3    H233591   2.215   4.406   7.274
11216TIP3   OH233592   3.010   4.590   7.311
11216TIP3    H133593   2.956   4.545   7.243
11216TIP3    H233594   3.098   4.554   7.288
11217TIP3   OH233595   3.266   5.126   6.889
11217TIP3    H133596   3.172   5.107   6.905
11217TIP3    H233597   3.291   5.169   6.973
11218TIP3   OH233598   3.670   4.184   5.805
11218TIP3    H133599   3.609   4.139   5.742
11218TIP3    H233600   3.667   4.273   5.764
11219TIP3   OH233601   3.904   5.035   6.875
11219TIP3    H133602   3.807   5.026   6.859
11219TIP3    H233603   3.941   4.967   6.816
11220TIP3   OH233604   3.381   4.998   5.716
11220TIP3    H133605   3.350   4.925   5.770
11220TIP3    H233606   3.392   4.957   5.628
11221TIP3   OH233607   3.372   4.629   6.549
11221TIP3    H133608   3.280   4.600   6.567
11221TIP3    H233609   3.406   4.549   6.505
11222TIP3   OH233610   2.503   4.861   6.309
11222TIP3    H133611   2.502   4.939   6.250
11222TIP3    H233612   2.409   4.837   6.311
11223TIP3   OH233613   2.065   4.160   6.008
11223TIP3    H133614   2.112   4.244   6.030
11223TIP3    H233615   1.989   4.164   6.070
11224TIP3   OH233616   2.631   4.622   6.243
11224TIP3    H133617   2.600   4.711   6.267
11224TIP3    H233618   2.601   4.569   6.319
11225TIP3   OH233619   2.770   5.200   6.771
11225TIP3    H133620   2.813   5.272   6.721
11225TIP3    H233621   2.847   5.161   6.817
11226TIP3   OH233622   2.416   5.099   6.153
11226TIP3    H133623   2.332   5.108   6.202
11226TIP3    H233624   2.450   5.191   6.157
11227TIP3   OH233625   3.158   4.835   6.727
11227TIP3    H133626   3.149   4.836   6.825
11227TIP3    H233627   3.222   4.764   6.714
11228TIP3   OH233628   3.136   4.733   5.615
11228TIP3    H133629   3.188   4.707   5.695
11228TIP3    H233630   3.048   4.700   5.639
11229TIP3   OH233631   3.409   5.365   6.780
11229TIP3    H133632   3.331   5.305   6.782
11229TIP3    H233633   3.385   5.427   6.708
11230TIP3   OH233634   3.471   5.200   5.432
11230TIP3    H133635   3.507   5.271   5.377
11230TIP3    H233636   3.391   5.246   5.466
11231TIP3   OH233637   2.490   3.980   7.298
11231TIP3    H133638   2.392   3.980   7.306
11231TIP3    H233639   2.515   3.919   7.369
11232TIP3   OH233640   3.295   4.669   5.835
11232TIP3    H133641   3.283   4.598   5.902
11232TIP3    H233642   3.391   4.660   5.818
11233TIP3   OH233643   2.206   5.061   6.930
11233TIP3    H133644   2.261   4.988   6.963
11233TIP3    H233645   2.238   5.135   6.984
11234TIP3   OH233646   2.494   4.710   5.617
11234TIP3    H133647   2.506   4.620   5.582
11234TIP3    H233648   2.473   4.693   5.710
11235TIP3   OH233649   2.436   4.713   5.893
11235TIP3    H133650   2.517   4.684   5.938
11235TIP3    H233651   2.444   4.811   5.897
11236TIP3   OH233652   2.174   4.403   6.090
11236TIP3    H133653   2.109   4.450   6.146
11236TIP3    H233654   2.193   4.470   6.023
11237TIP3   OH233655   3.330   4.045   6.987
11237TIP3    H133656   3.413   4.081   7.022
11237TIP3    H233657   3.318   3.962   7.038
11238TIP3   OH233658   3.212   3.783   6.149
11238TIP3    H133659   3.197   3.811   6.057
11238TIP3    H233660   3.254   3.864   6.188
11239TIP3   OH233661   2.709   4.908   5.838
11239TIP3    H133662   2.622   4.937   5.871
11239TIP3    H233663   2.722   4.971   5.765
11240TIP3   OH233664   2.890   3.973   6.253
11240TIP3    H133665   2.954   4.046   6.232
11240TIP3    H233666   2.901   3.967   6.350
11241TIP3   OH233667   3.171   4.309   7.062
11241TIP3    H133668   3.207   4.348   7.143
11241TIP3    H233669   3.208   4.219   7.061
11242TIP3   OH233670   3.037   3.696   6.354
11242TIP3    H133671   3.024   3.774   6.412
11242TIP3    H233672   3.100   3.733   6.288
11243TIP3   OH233673   2.454   4.986   5.903
11243TIP3    H133674   2.425   5.057   5.841
11243TIP3    H233675   2.439   5.030   5.990
11244TIP3   OH233676   2.553   3.701   6.141
11244TIP3    H133677   2.551   3.791   6.178
11244TIP3    H233678   2.649   3.683   6.148
11245TIP3   OH233679   3.810   4.187   7.043
11245TIP3    H133680   3.712   4.187   7.049
11245TIP3    H233681   3.821   4.157   6.952
11246TIP3   OH233682   3.463   4.395   6.428
11246TIP3    H133683   3.383   4.337   6.432
11246TIP3    H233684   3.527   4.341   6.478
11247TIP3   OH233685   2.170   4.612   5.891
11247TIP3    H133686   2.246   4.673   5.902
11247TIP3    H233687   2.211   4.551   5.826
11248TIP3   OH233688   2.110   3.889   6.033
11248TIP3    H133689   2.118   3.987   6.029
11248TIP3    H233690   2.037   3.874   5.973
11249TIP3   OH233691   3.426   5.346   6.373
11249TIP3    H133692   3.383   5.394   6.299
11249TIP3    H233693   3.521   5.360   6.351
11250TIP3   OH233694   2.500   3.611   6.900
11250TIP3    H133695   2.472   3.577   6.813
11250TIP3    H233696   2.491   3.532   6.957
11251TIP3   OH233697   2.041   4.828   6.280
11251TIP3    H133698   1.975   4.858   6.344
11251TIP3    H233699   2.009   4.870   6.196
11252TIP3   OH233700   2.200   5.377   7.355
11252TIP3    H133701   2.288   5.376   7.400
11252TIP3    H233702   2.182   5.281   7.351
11253TIP3   OH233703   2.676   5.331   7.399
11253TIP3    H133704   2.771   5.314   7.404
11253TIP3    H233705   2.650   5.271   7.326
11254TIP3   OH233706   2.661   4.913   5.530
11254TIP3    H133707   2.609   4.836   5.563
11254TIP3    H233708   2.734   4.867   5.484
11255TIP3   OH233709   3.315   5.245   7.134
11255TIP3    H133710   3.309   5.173   7.202
11255TIP3    H233711   3.394   5.294   7.163
11256TIP3   OH233712   3.097   4.951   5.440
11256TIP3    H133713   3.136   4.883   5.498
11256TIP3    H233714   3.152   4.945   5.359
11257TIP3   OH233715   2.327   4.778   7.556
11257TIP3    H133716   2.345   4.682   7.558
11257TIP3    H233717   2.241   4.780   7.507
11258TIP3   OH233718   2.304   4.424   5.751
11258TIP3    H133719   2.365   4.394   5.821
11258TIP3    H233720   2.368   4.428   5.675
11259TIP3   OH233721   2.932   4.864   7.329
11259TIP3    H133722   2.893   4.883   7.242
11259TIP3    H233723   2.964   4.772   7.318
11260TIP3   OH233724   2.821   4.625   5.561
11260TIP3    H133725   2.823   4.637   5.658
11260TIP3    H233726   2.823   4.527   5.554
11261TIP3   OH233727   3.433   4.874   6.940
11261TIP3    H133728   3.503   4.925   6.896
11261TIP3    H233729   3.354   4.929   6.921
11262TIP3   OH233730   2.447   4.518   7.538
11262TIP3    H133731   2.524   4.472   7.503
11262TIP3    H233732   2.478   4.546   7.626
11263TIP3   OH233733   2.508   4.334   5.965
11263TIP3    H133734   2.489   4.291   6.050
11263TIP3    H233735   2.550   4.261   5.914
11264TIP3   OH233736   2.769   4.384   7.194
11264TIP3    H133737   2.700   4.454   7.200
11264TIP3    H233738   2.831   4.426   7.129
11265TIP3   OH233739   2.617   4.129   5.812
11265TIP3    H133740   2.591   4.133   5.717
11265TIP3    H233741   2.715   4.131   5.803
11266TIP3   OH233742   3.304   4.801   7.332
11266TIP3    H133743   3.374   4.765   7.276
11266TIP3    H233744   3.295   4.732   7.399
11267TIP3   OH233745   3.434   4.455   5.477
11267TIP3    H133746   3.415   4.411   5.392
11267TIP3    H233747   3.401   4.546   5.455
11268TIP3   OH233748   2.909   4.188   7.321
11268TIP3    H133749   2.910   4.110   7.261
11268TIP3    H233750   2.863   4.254   7.263
11269TIP3   OH233751   2.908   3.980   7.126
11269TIP3    H133752   2.929   4.029   7.045
11269TIP3    H233753   2.815   3.956   7.109
11270TIP3   OH233754   2.932   4.518   7.031
11270TIP3    H133755   2.996   4.470   6.976
11270TIP3    H233756   2.884   4.573   6.966
11271TIP3   OH233757   3.519   4.474   7.386
11271TIP3    H133758   3.565   4.389   7.385
11271TIP3    H233759   3.584   4.532   7.343
11272TIP3   OH233760   3.557   4.731   7.130
11272TIP3    H133761   3.501   4.783   7.068
11272TIP3    H233762   3.645   4.746   7.090
11273TIP3   OH233763   2.787   4.292   7.557
11273TIP3    H133764   2.719   4.223   7.570
11273TIP3    H233765   2.818   4.271   7.467
11274TIP3   OH233766   3.039   3.740   7.202
11274TIP3    H133767   2.991   3.820   7.173
11274TIP3    H233768   2.971   3.670   7.188
11275TIP3   OH233769   3.167   4.235   7.415
11275TIP3    H133770   3.145   4.220   7.509
11275TIP3    H233771   3.079   4.215   7.375
11276TIP3   OH233772   3.409   4.196   7.275
11276TIP3    H133773   3.331   4.192   7.334
11276TIP3    H233774   3.480   4.161   7.331
11277TIP3   OH233775   3.643   4.132   7.423
11277TIP3    H133776   3.650   4.035   7.438
11277TIP3    H233777   3.634   4.168   7.514
11278TIP3   OH233778   2.623   4.073   7.611
11278TIP3    H133779   2.627   3.982   7.576
11278TIP3    H233780   2.661   4.060   7.700
11279TIP3   OH233781   3.134   3.744   7.459
11279TIP3    H133782   3.198   3.671   7.450
11279TIP3    H233783   3.093   3.743   7.370
11280TIP3   OH233784   3.202   3.960   7.615
11280TIP3    H133785   3.180   3.888   7.551
11280TIP3    H233786   3.123   4.018   7.606
11281TIP3   OH233787   2.425   5.191   5.717
11281TIP3    H133788   2.520   5.180   5.698
11281TIP3    H233789   2.399   5.242   5.638
11282TIP3   OH233790   1.901   4.572   5.932
11282TIP3    H133791   1.995   4.593   5.916
11282TIP3    H233792   1.895   4.482   5.892
11283TIP3   OH233793   1.821   5.179   6.345
11283TIP3    H133794   1.752   5.118   6.311
11283TIP3    H233795   1.864   5.122   6.412
11284TIP3   OH233796   1.951   5.028   6.534
11284TIP3    H133797   1.942   4.958   6.601
11284TIP3    H233798   2.006   5.092   6.585
11285TIP3   OH233799   3.690   5.411   6.336
11285TIP3    H133800   3.706   5.452   6.423
11285TIP3    H233801   3.731   5.474   6.276
11286TIP3   OH233802   3.707   5.453   6.616
11286TIP3    H133803   3.663   5.366   6.615
11286TIP3    H233804   3.782   5.433   6.675
11287TIP3   OH233805   3.756   5.131   7.187
11287TIP3    H133806   3.684   5.140   7.253
11287TIP3    H233807   3.799   5.219   7.192
11288TIP3   OH233808   3.571   4.643   5.807
11288TIP3    H133809   3.639   4.705   5.774
11288TIP3    H233810   3.616   4.606   5.887
11289TIP3   OH233811   3.698   4.518   6.015
11289TIP3    H133812   3.634   4.471   6.074
11289TIP3    H233813   3.770   4.541   6.077
11290TIP3   OH233814   3.771   4.915   6.429
11290TIP3    H133815   3.792   4.821   6.413
11290TIP3    H233816   3.689   4.931   6.380
11291TIP3   OH233817   3.584   5.203   6.637
11291TIP3    H133818   3.515   5.247   6.691
11291TIP3    H233819   3.530   5.160   6.567
11292TIP3   OH233820   3.637   4.419   5.657
11292TIP3    H133821   3.566   4.420   5.589
11292TIP3    H233822   3.607   4.494   5.712
11293TIP3   OH233823   3.507   4.091   5.608
11293TIP3    H133824   3.463   4.127   5.531
11293TIP3    H233825   3.484   3.996   5.599
11294TIP3   OH233826   3.512   4.369   6.157
11294TIP3    H133827   3.519   4.273   6.148
11294TIP3    H233828   3.497   4.380   6.253
11295TIP3   OH233829   2.138   4.442   6.905
11295TIP3    H133830   2.138   4.407   6.813
11295TIP3    H233831   2.235   4.445   6.922
11296TIP3   OH233832   3.802   4.790   7.019
11296TIP3    H133833   3.873   4.723   7.009
11296TIP3    H233834   3.823   4.851   6.948
11297TIP3   OH233835   3.985   4.592   7.034
11297TIP3    H133836   3.909   4.541   7.068
11297TIP3    H233837   4.057   4.528   7.045
11298TIP3   OH233838   3.454   3.823   5.591
11298TIP3    H133839   3.527   3.794   5.649
11298TIP3    H233840   3.379   3.767   5.617
11299TIP3   OH233841   3.511   4.087   6.047
11299TIP3    H133842   3.551   3.999   6.063
11299TIP3    H233843   3.569   4.119   5.976
11300TIP3   OH233844   3.679   4.256   6.539
11300TIP3    H133845   3.761   4.277   6.492
11300TIP3    H233846   3.696   4.293   6.628
11301TIP3   OH233847   3.744   4.397   6.776
11301TIP3    H133848   3.664   4.429   6.823
11301TIP3    H233849   3.779   4.481   6.739
11302TIP3   OH233850   2.357   4.128   7.581
11302TIP3    H133851   2.455   4.121   7.582
11302TIP3    H233852   2.334   4.040   7.617
11303TIP3   OH233853   4.243   3.977   7.304
11303TIP3    H133854   4.197   3.897   7.274
11303TIP3    H233855   4.186   4.046   7.262
11304TIP3   OH233856   3.619   3.836   6.088
11304TIP3    H133857   3.668   3.821   6.172
11304TIP3    H233858   3.558   3.761   6.088
11305TIP3   OH233859   2.313   3.817   6.916
11305TIP3    H133860   2.376   3.742   6.921
11305TIP3    H233861   2.376   3.891   6.902
11306TIP3   OH233862   2.118   4.093   6.979
11306TIP3    H133863   2.169   4.088   6.895
11306TIP3    H233864   2.153   4.174   7.017
11307TIP3   OH233865   4.057   4.120   7.159
11307TIP3    H133866   3.975   4.174   7.170
11307TIP3    H233867   4.026   4.060   7.089
11308TIP3   OH233868   3.695   3.766   5.724
11308TIP3    H133869   3.740   3.699   5.669
11308TIP3    H233870   3.760   3.839   5.724
11309TIP3   OH233871   2.105   3.590   6.480
11309TIP3    H133872   2.013   3.590   6.512
11309TIP3    H233873   2.101   3.652   6.404
11310TIP3   OH233874   3.267   5.301   5.991
11310TIP3    H133875   3.313   5.287   5.906
11310TIP3    H233876   3.321   5.371   6.030
11311TIP3   OH233877   2.328   3.681   7.296
11311TIP3    H133878   2.274   3.671   7.376
11311TIP3    H233879   2.261   3.715   7.233
11312TIP3   OH233880   2.363   5.111   7.371
11312TIP3    H133881   2.271   5.081   7.354
11312TIP3    H233882   2.376   5.085   7.463
11313TIP3   OH233883   2.544   5.142   6.922
11313TIP3    H133884   2.498   5.219   6.882
11313TIP3    H233885   2.630   5.153   6.877
11314TIP3   OH233886   2.984   5.383   7.060
11314TIP3    H133887   3.027   5.381   7.148
11314TIP3    H233888   3.049   5.433   7.008
11315TIP3   OH233889   3.163   5.536   6.920
11315TIP3    H133890   3.231   5.483   6.876
11315TIP3    H233891   3.218   5.592   6.980
11316TIP3   OH233892   3.958   3.892   7.019
11316TIP3    H133893   3.871   3.889   6.976
11316TIP3    H233894   3.990   3.800   7.006
11317TIP3   OH233895   2.217   5.394   6.945
11317TIP3    H133896   2.127   5.426   6.923
11317TIP3    H233897   2.232   5.438   7.030
11318TIP3   OH233898   2.455   5.375   6.805
11318TIP3    H133899   2.367   5.386   6.847
11318TIP3    H233900   2.437   5.405   6.714
11319TIP3   OH233901   2.879   5.399   6.603
11319TIP3    H133902   2.811   5.417   6.536
11319TIP3    H233903   2.891   5.487   6.643
11320TIP3   OH233904   3.149   5.341   6.655
11320TIP3    H133905   3.055   5.357   6.634
11320TIP3    H233906   3.192   5.415   6.608
11321TIP3   OH233907   3.356   5.531   6.566
11321TIP3    H133908   3.342   5.615   6.518
11321TIP3    H233909   3.381   5.470   6.493
11322TIP3   OH233910   2.129   5.186   6.689
11322TIP3    H133911   2.156   5.158   6.779
11322TIP3    H233912   2.202   5.143   6.638
11323TIP3   OH233913   2.326   5.060   6.550
11323TIP3    H133914   2.341   4.975   6.597
11323TIP3    H233915   2.418   5.094   6.545
11324TIP3   OH233916   2.593   5.151   6.554
11324TIP3    H133917   2.623   5.059   6.541
11324TIP3    H233918   2.642   5.172   6.636
11325TIP3   OH233919   3.193   3.809   6.656
11325TIP3    H133920   3.127   3.744   6.686
11325TIP3    H233921   3.254   3.756   6.601
11326TIP3   OH233922   3.688   3.687   6.543
11326TIP3    H133923   3.724   3.741   6.469
11326TIP3    H233924   3.593   3.710   6.538
11327TIP3   OH233925   3.783   3.782   6.305
11327TIP3    H133926   3.858   3.732   6.265
11327TIP3    H233927   3.817   3.874   6.292
11328TIP3   OH233928   2.414   3.516   6.652
11328TIP3    H133929   2.322   3.483   6.656
11328TIP3    H233930   2.462   3.431   6.648
11329TIP3   OH233931   2.198   3.390   6.299
11329TIP3    H133932   2.232   3.446   6.228
11329TIP3    H233933   2.175   3.456   6.368
11330TIP3   OH233934   2.860   3.549   6.535
11330TIP3    H133935   2.914   3.599   6.471
11330TIP3    H233936   2.884   3.593   6.618
11331TIP3   OH233937   3.409   3.693   6.514
11331TIP3    H133938   3.402   3.660   6.424
11331TIP3    H233939   3.394   3.613   6.569
11332TIP3   OH233940   3.434   3.623   6.080
11332TIP3    H133941   3.351   3.670   6.098
11332TIP3    H233942   3.418   3.538   6.125
11333TIP3   OH233943   1.920   4.959   6.079
11333TIP3    H133944   1.836   4.926   6.043
11333TIP3    H233945   1.906   5.054   6.079
11334TIP3   OH233946   2.321   3.546   6.065
11334TIP3    H133947   2.369   3.485   6.006
11334TIP3    H233948   2.395   3.601   6.099
11335TIP3   OH233949   2.830   3.723   6.166
11335TIP3    H133950   2.894   3.680   6.226
11335TIP3    H233951   2.848   3.817   6.189
11336TIP3   OH233952   2.691   5.147   5.663
11336TIP3    H133953   2.779   5.168   5.626
11336TIP3    H233954   2.669   5.071   5.604
11337TIP3   OH233955   3.409   5.266   5.758
11337TIP3    H133956   3.403   5.168   5.746
11337TIP3    H233957   3.365   5.296   5.676
11338TIP3   OH233958   2.621   3.798   7.547
11338TIP3    H133959   2.587   3.725   7.602
11338TIP3    H233960   2.715   3.798   7.574
11339TIP3   OH233961   2.871   3.797   7.666
11339TIP3    H133962   2.955   3.771   7.624
11339TIP3    H233963   2.861   3.726   7.733
11340TIP3   OH233964   2.009   5.007   5.729
11340TIP3    H133965   2.018   4.996   5.824
11340TIP3    H233966   2.083   4.952   5.697
11341TIP3   OH233967   3.699   3.858   7.451
11341TIP3    H133968   3.715   3.828   7.543
11341TIP3    H233969   3.788   3.847   7.411
11342TIP3   OH233970   3.633   5.410   6.943
11342TIP3    H133971   3.555   5.381   6.892
11342TIP3    H233972   3.614   5.506   6.949
11343TIP3   OH233973   4.903   4.781   5.708
11343TIP3    H133974   4.873   4.872   5.689
11343TIP3    H233975   4.827   4.731   5.672
11344TIP3   OH233976   4.897   4.784   6.095
11344TIP3    H133977   4.933   4.757   6.181
11344TIP3    H233978   4.856   4.701   6.063
11345TIP3   OH233979   4.204   4.698   6.463
11345TIP3    H133980   4.212   4.608   6.502
11345TIP3    H233981   4.290   4.703   6.417
11346TIP3   OH233982   5.149   5.086   5.767
11346TIP3    H133983   5.134   5.020   5.837
11346TIP3    H233984   5.216   5.143   5.807
11347TIP3   OH233985   4.160   5.070   6.206
11347TIP3    H133986   4.172   4.975   6.184
11347TIP3    H233987   4.254   5.098   6.203
11348TIP3   OH233988   3.871   4.288   5.967
11348TIP3    H133989   3.825   4.373   5.981
11348TIP3    H233990   3.803   4.238   5.919
11349TIP3   OH233991   3.936   4.566   6.146
11349TIP3    H133992   3.975   4.492   6.199
11349TIP3    H233993   4.002   4.573   6.076
11350TIP3   OH233994   4.803   5.544   5.797
11350TIP3    H133995   4.838   5.477   5.736
11350TIP3    H233996   4.804   5.494   5.880
11351TIP3   OH233997   4.697   5.013   6.142
11351TIP3    H133998   4.738   4.936   6.099
11351TIP3    H233999   4.779   5.063   6.162
11352TIP3   OH234000   5.718   4.327   6.137
11352TIP3    H134001   5.746   4.412   6.177
11352TIP3    H234002   5.737   4.343   6.043
11353TIP3   OH234003   5.114   4.508   6.169
11353TIP3    H134004   5.156   4.422   6.188
11353TIP3    H234005   5.080   4.492   6.078
11354TIP3   OH234006   4.472   4.162   6.129
11354TIP3    H134007   4.429   4.245   6.105
11354TIP3    H234008   4.409   4.098   6.090
11355TIP3   OH234009   5.148   4.262   5.755
11355TIP3    H134010   5.220   4.248   5.821
11355TIP3    H234011   5.200   4.297   5.680
11356TIP3   OH234012   4.520   4.572   6.049
11356TIP3    H134013   4.615   4.547   6.055
11356TIP3    H234014   4.481   4.489   6.011
11357TIP3   OH234015   5.790   4.537   6.308
11357TIP3    H134016   5.708   4.584   6.283
11357TIP3    H234017   5.806   4.574   6.396
11358TIP3   OH234018   4.440   4.166   6.558
11358TIP3    H134019   4.387   4.211   6.490
11358TIP3    H234020   4.387   4.183   6.638
11359TIP3   OH234021   4.785   4.999   5.578
11359TIP3    H134022   4.752   4.989   5.488
11359TIP3    H234023   4.741   5.082   5.606
11360TIP3   OH234024   4.554   4.928   6.362
11360TIP3    H134025   4.495   4.998   6.397
11360TIP3    H234026   4.599   4.974   6.288
11361TIP3   OH234027   5.353   4.266   5.934
11361TIP3    H134028   5.334   4.225   6.019
11361TIP3    H234029   5.404   4.345   5.960
11362TIP3   OH234030   4.380   5.125   6.480
11362TIP3    H134031   4.344   5.209   6.446
11362TIP3    H234032   4.326   5.108   6.559
11363TIP3   OH234033   3.770   4.813   5.696
11363TIP3    H134034   3.733   4.836   5.609
11363TIP3    H234035   3.803   4.898   5.728
11364TIP3   OH234036   5.509   4.226   6.302
11364TIP3    H134037   5.421   4.253   6.269
11364TIP3    H234038   5.568   4.260   6.232
11365TIP3   OH234039   4.806   3.871   6.290
11365TIP3    H134040   4.784   3.776   6.298
11365TIP3    H234041   4.728   3.911   6.333
11366TIP3   OH234042   4.905   5.378   5.599
11366TIP3    H134043   4.956   5.294   5.585
11366TIP3    H234044   4.971   5.442   5.564
11367TIP3   OH234045   5.050   5.161   5.522
11367TIP3    H134046   5.029   5.078   5.477
11367TIP3    H234047   5.088   5.129   5.607
11368TIP3   OH234048   5.440   5.238   6.279
11368TIP3    H134049   5.432   5.161   6.219
11368TIP3    H234050   5.428   5.311   6.216
11369TIP3   OH234051   4.733   4.636   5.541
11369TIP3    H134052   4.653   4.689   5.519
11369TIP3    H234053   4.779   4.632   5.456
11370TIP3   OH234054   4.692   4.421   5.254
11370TIP3    H134055   4.758   4.474   5.300
11370TIP3    H234056   4.750   4.359   5.206
11371TIP3   OH234057   5.640   4.880   6.145
11371TIP3    H134058   5.553   4.926   6.140
11371TIP3    H234059   5.671   4.895   6.053
11372TIP3   OH234060   5.080   4.718   5.509
11372TIP3    H134061   5.026   4.741   5.588
11372TIP3    H234062   5.165   4.694   5.552
11373TIP3   OH234063   5.314   4.754   6.427
11373TIP3    H134064   5.311   4.840   6.471
11373TIP3    H234065   5.228   4.756   6.379
11374TIP3   OH234066   4.313   4.717   5.929
11374TIP3    H134067   4.271   4.657   5.862
11374TIP3    H234068   4.387   4.661   5.962
11375TIP3   OH234069   4.430   5.122   6.083
11375TIP3    H134070   4.414   5.091   5.993
11375TIP3    H234071   4.521   5.089   6.100
11376TIP3   OH234072   4.430   4.688   6.289
11376TIP3    H134073   4.466   4.654   6.204
11376TIP3    H234074   4.485   4.767   6.305
11377TIP3   OH234075   4.913   5.334   6.064
11377TIP3    H134076   4.964   5.402   6.110
11377TIP3    H234077   4.941   5.252   6.109
11378TIP3   OH234078   4.592   5.245   6.609
11378TIP3    H134079   4.527   5.304   6.653
11378TIP3    H234080   4.531   5.189   6.556
11379TIP3   OH234081   4.918   4.576   5.337
11379TIP3    H134082   4.978   4.637   5.387
11379TIP3    H234083   4.944   4.597   5.244
11380TIP3   OH234084   4.348   4.795   6.729
11380TIP3    H134085   4.347   4.886   6.765
11380TIP3    H234086   4.256   4.786   6.699
11381TIP3   OH234087   4.661   5.254   5.618
11381TIP3    H134088   4.747   5.301   5.621
11381TIP3    H234089   4.607   5.316   5.567
11382TIP3   OH234090   4.380   5.409   6.694
11382TIP3    H134091   4.347   5.418   6.602
11382TIP3    H234092   4.298   5.391   6.744
11383TIP3   OH234093   5.436   3.813   5.388
11383TIP3    H134094   5.355   3.838   5.436
11383TIP3    H234095   5.453   3.895   5.337
11384TIP3   OH234096   4.181   4.559   5.735
11384TIP3    H134097   4.108   4.592   5.678
11384TIP3    H234098   4.152   4.469   5.755
11385TIP3   OH234099   5.238   5.181   4.938
11385TIP3    H134100   5.248   5.277   4.919
11385TIP3    H234101   5.330   5.149   4.924
11386TIP3   OH234102   3.900   5.143   6.321
11386TIP3    H134103   3.939   5.184   6.240
11386TIP3    H234104   3.841   5.216   6.352
11387TIP3   OH234105   5.679   5.591   6.332
11387TIP3    H134106   5.675   5.493   6.338
11387TIP3    H234107   5.594   5.614   6.375
11388TIP3   OH234108   4.786   5.372   6.465
11388TIP3    H134109   4.781   5.465   6.496
11388TIP3    H234110   4.715   5.331   6.520
11389TIP3   OH234111   4.546   5.496   5.417
11389TIP3    H134112   4.503   5.476   5.332
11389TIP3    H234113   4.512   5.585   5.439
11390TIP3   OH234114   3.983   5.350   5.802
11390TIP3    H134115   4.033   5.338   5.886
11390TIP3    H234116   3.935   5.265   5.798
11391TIP3   OH234117   4.747   5.403   5.055
11391TIP3    H134118   4.805   5.332   5.018
11391TIP3    H234119   4.782   5.411   5.146
11392TIP3   OH234120   4.799   5.452   5.325
11392TIP3    H134121   4.710   5.459   5.366
11392TIP3    H234122   4.849   5.411   5.398
11393TIP3   OH234123   5.566   4.715   6.605
11393TIP3    H134124   5.484   4.728   6.554
11393TIP3    H234125   5.581   4.619   6.594
11394TIP3   OH234126   4.569   3.946   6.416
11394TIP3    H134127   4.480   3.916   6.386
11394TIP3    H234128   4.544   4.036   6.447
11395TIP3   OH234129   5.099   4.062   6.609
11395TIP3    H134130   5.168   4.033   6.673
11395TIP3    H234131   5.016   4.043   6.655
11396TIP3   OH234132   5.336   4.492   6.527
11396TIP3    H134133   5.284   4.491   6.610
11396TIP3    H234134   5.313   4.578   6.489
11397TIP3   OH234135   4.997   4.620   5.084
11397TIP3    H134136   4.962   4.596   4.995
11397TIP3    H234137   5.083   4.659   5.058
11398TIP3   OH234138   4.709   3.993   5.386
11398TIP3    H134139   4.673   3.990   5.477
11398TIP3    H234140   4.667   3.912   5.350
11399TIP3   OH234141   4.513   4.471   6.444
11399TIP3    H134142   4.438   4.471   6.508
11399TIP3    H234143   4.481   4.536   6.380
11400TIP3   OH234144   4.387   4.359   5.941
11400TIP3    H134145   4.295   4.329   5.958
11400TIP3    H234146   4.402   4.310   5.857
11401TIP3   OH234147   4.870   4.435   5.676
11401TIP3    H134148   4.819   4.507   5.632
11401TIP3    H234149   4.925   4.402   5.602
11402TIP3   OH234150   5.045   4.711   6.760
11402TIP3    H134151   5.023   4.638   6.821
11402TIP3    H234152   5.140   4.724   6.781
11403TIP3   OH234153   5.026   4.462   5.912
11403TIP3    H134154   4.964   4.492   5.843
11403TIP3    H234155   5.060   4.382   5.867
11404TIP3   OH234156   4.314   4.492   6.638
11404TIP3    H134157   4.354   4.553   6.701
11404TIP3    H234158   4.300   4.411   6.690
11405TIP3   OH234159   4.366   3.970   5.351
11405TIP3    H134160   4.354   3.972   5.448
11405TIP3    H234161   4.289   4.024   5.322
11406TIP3   OH234162   3.906   4.006   6.224
11406TIP3    H134163   3.964   4.062   6.278
11406TIP3    H234164   3.954   4.000   6.140
11407TIP3   OH234165   3.870   3.991   5.739
11407TIP3    H134166   3.919   4.028   5.663
11407TIP3    H234167   3.814   4.068   5.760
11408TIP3   OH234168   5.036   4.706   6.333
11408TIP3    H134169   5.070   4.635   6.273
11408TIP3    H234170   5.005   4.651   6.409
11409TIP3   OH234171   4.715   4.162   6.002
11409TIP3    H134172   4.627   4.165   6.046
11409TIP3    H234173   4.774   4.173   6.078
11410TIP3   OH234174   4.149   4.239   5.970
11410TIP3    H134175   4.054   4.249   5.990
11410TIP3    H234176   4.165   4.144   5.982
11411TIP3   OH234177   4.409   4.218   5.703
11411TIP3    H134178   4.502   4.238   5.679
11411TIP3    H234179   4.359   4.243   5.622
11412TIP3   OH234180   5.199   4.246   6.211
11412TIP3    H134181   5.166   4.261   6.302
11412TIP3    H234182   5.129   4.186   6.177
11413TIP3   OH234183   4.257   4.259   5.480
11413TIP3    H134184   4.188   4.212   5.431
11413TIP3    H234185   4.309   4.297   5.407
11414TIP3   OH234186   5.372   5.938   6.430
11414TIP3    H134187   5.369   5.956   6.334
11414TIP3    H234188   5.454   5.983   6.457
11415TIP3   OH234189   4.333   5.050   6.843
11415TIP3    H134190   4.408   5.079   6.897
11415TIP3    H234191   4.261   5.052   6.908
11416TIP3   OH234192   4.789   4.501   6.105
11416TIP3    H134193   4.863   4.462   6.055
11416TIP3    H234194   4.794   4.455   6.190
11417TIP3   OH234195   4.309   3.986   5.993
11417TIP3    H134196   4.274   3.906   6.038
11417TIP3    H234197   4.348   3.949   5.913
11418TIP3   OH234198   4.770   4.397   6.396
11418TIP3    H134199   4.679   4.430   6.410
11418TIP3    H234200   4.825   4.462   6.444
11419TIP3   OH234201   4.499   4.787   5.488
11419TIP3    H134202   4.428   4.721   5.477
11419TIP3    H234203   4.480   4.821   5.578
11420TIP3   OH234204   5.398   5.004   6.129
11420TIP3    H134205   5.403   5.068   6.054
11420TIP3    H234206   5.313   4.960   6.109
11421TIP3   OH234207   4.961   4.095   5.361
11421TIP3    H134208   4.864   4.078   5.365
11421TIP3    H234209   4.968   4.190   5.379
11422TIP3   OH234210   4.899   5.104   6.486
11422TIP3    H134211   4.933   5.089   6.575
11422TIP3    H234212   4.867   5.195   6.489
11423TIP3   OH234213   5.028   4.349   5.458
11423TIP3    H134214   5.125   4.355   5.471
11423TIP3    H234215   5.008   4.428   5.404
11424TIP3   OH234216   4.189   4.807   6.158
11424TIP3    H134217   4.228   4.782   6.072
11424TIP3    H234218   4.233   4.743   6.216
11425TIP3   OH234219   4.650   4.936   5.315
11425TIP3    H134220   4.601   5.022   5.319
11425TIP3    H234221   4.595   4.881   5.375
11426TIP3   OH234222   4.042   4.780   6.795
11426TIP3    H134223   4.086   4.738   6.872
11426TIP3    H234224   3.998   4.704   6.753
11427TIP3   OH234225   4.802   4.845   6.799
11427TIP3    H134226   4.738   4.788   6.752
11427TIP3    H234227   4.887   4.808   6.766
11428TIP3   OH234228   5.063   5.364   6.385
11428TIP3    H134229   4.965   5.365   6.391
11428TIP3    H234230   5.086   5.421   6.461
11429TIP3   OH234231   5.469   4.442   5.291
11429TIP3    H134232   5.406   4.398   5.229
11429TIP3    H234233   5.466   4.531   5.250
11430TIP3   OH234234   5.691   5.298   6.365
11430TIP3    H134235   5.593   5.292   6.357
11430TIP3    H234236   5.717   5.267   6.276
11431TIP3   OH234237   5.172   5.258   5.201
11431TIP3    H134238   5.147   5.187   5.261
11431TIP3    H234239   5.186   5.211   5.116
11432TIP3   OH234240   5.164   4.878   6.048
11432TIP3    H134241   5.068   4.856   6.051
11432TIP3    H234242   5.198   4.802   5.996
11433TIP3   OH234243   4.296   5.120   5.803
11433TIP3    H134244   4.301   5.197   5.743
11433TIP3    H234245   4.208   5.087   5.782
11434TIP3   OH234246   3.862   4.416   5.496
11434TIP3    H134247   3.908   4.500   5.518
11434TIP3    H234248   3.785   4.420   5.558
11435TIP3   OH234249   4.425   4.879   5.731
11435TIP3    H134250   4.400   4.969   5.758
11435TIP3    H234251   4.394   4.826   5.806
11436TIP3   OH234252   4.566   5.455   6.258
11436TIP3    H134253   4.609   5.526   6.206
11436TIP3    H234254   4.644   5.414   6.299
11437TIP3   OH234255   4.214   5.356   5.641
11437TIP3    H134256   4.129   5.366   5.687
11437TIP3    H234257   4.248   5.448   5.643
11438TIP3   OH234258   4.956   5.090   6.214
11438TIP3    H134259   4.946   5.087   6.311
11438TIP3    H234260   5.033   5.035   6.199
11439TIP3   OH234261   4.931   4.990   5.102
11439TIP3    H134262   4.984   4.964   5.181
11439TIP3    H234263   4.844   4.956   5.127
11440TIP3   OH234264   5.192   5.640   6.284
11440TIP3    H134265   5.118   5.578   6.267
11440TIP3    H234266   5.186   5.697   6.205
11441TIP3   OH234267   5.268   5.458   4.918
11441TIP3    H134268   5.305   5.533   4.869
11441TIP3    H234269   5.187   5.500   4.953
11442TIP3   OH234270   4.284   4.237   6.783
11442TIP3    H134271   4.186   4.239   6.789
11442TIP3    H234272   4.308   4.174   6.852
11443TIP3   OH234273   5.091   4.922   5.319
11443TIP3    H134274   5.080   4.853   5.387
11443TIP3    H234275   5.188   4.916   5.304
11444TIP3   OH234276   4.291   4.968   5.104
11444TIP3    H134277   4.305   4.878   5.069
11444TIP3    H234278   4.269   4.950   5.197
11445TIP3   OH234279   4.234   4.970   5.380
11445TIP3    H134280   4.316   4.942   5.424
11445TIP3    H234281   4.242   5.068   5.383
11446TIP3   OH234282   3.970   4.659   5.577
11446TIP3    H134283   3.904   4.705   5.632
11446TIP3    H234284   3.988   4.727   5.509
11447TIP3   OH234285   5.127   4.301   6.471
11447TIP3    H134286   5.210   4.338   6.507
11447TIP3    H234287   5.115   4.220   6.524
11448TIP3   OH234288   5.010   4.045   5.638
11448TIP3    H134289   4.993   4.067   5.544
11448TIP3    H234290   5.047   4.129   5.672
11449TIP3   OH234291   4.506   5.164   5.324
11449TIP3    H134292   4.419   5.194   5.358
11449TIP3    H234293   4.518   5.225   5.250
11450TIP3   OH234294   4.693   4.231   5.734
11450TIP3    H134295   4.756   4.304   5.718
11450TIP3    H234296   4.698   4.222   5.832
11451TIP3   OH234297   4.963   4.546   6.542
11451TIP3    H134298   4.989   4.598   6.621
11451TIP3    H234299   5.017   4.466   6.551
11452TIP3   OH234300   4.834   3.952   5.837
11452TIP3    H134301   4.815   4.032   5.891
11452TIP3    H234302   4.898   3.988   5.771
11453TIP3   OH234303   4.252   5.244   5.390
11453TIP3    H134304   4.222   5.313   5.327
11453TIP3    H234305   4.236   5.287   5.476
11454TIP3   OH234306   4.348   3.956   5.628
11454TIP3    H134307   4.345   4.047   5.665
11454TIP3    H234308   4.444   3.940   5.635
11455TIP3   OH234309   5.603   4.448   6.528
11455TIP3    H134310   5.504   4.446   6.533
11455TIP3    H234311   5.615   4.412   6.439
11456TIP3   OH234312   5.253   4.642   5.913
11456TIP3    H134313   5.177   4.582   5.924
11456TIP3    H234314   5.325   4.595   5.961
11457TIP3   OH234315   3.969   4.868   5.381
11457TIP3    H134316   4.045   4.930   5.389
11457TIP3    H234317   4.008   4.808   5.314
11458TIP3   OH234318   3.909   4.146   5.516
11458TIP3    H134319   3.916   4.243   5.514
11458TIP3    H234320   3.826   4.131   5.469
11459TIP3   OH234321   5.220   5.627   5.873
11459TIP3    H134322   5.178   5.664   5.793
11459TIP3    H234323   5.314   5.631   5.846
11460TIP3   OH234324   4.308   3.869   6.381
11460TIP3    H134325   4.270   3.841   6.296
11460TIP3    H234326   4.286   3.794   6.439
11461TIP3   OH234327   3.837   5.097   5.771
11461TIP3    H134328   3.755   5.122   5.815
11461TIP3    H234329   3.818   5.131   5.680
11462TIP3   OH234330   3.998   5.636   6.841
11462TIP3    H134331   4.084   5.639   6.889
11462TIP3    H234332   3.983   5.540   6.837
11463TIP3   OH234333   4.472   5.589   6.886
11463TIP3    H134334   4.568   5.573   6.893
11463TIP3    H234335   4.450   5.527   6.813
11464TIP3   OH234336   4.460   5.168   5.016
11464TIP3    H134337   4.404   5.094   5.049
11464TIP3    H234338   4.533   5.118   4.974
11465TIP3   OH234339   5.106   5.504   6.624
11465TIP3    H134340   5.103   5.431   6.690
11465TIP3    H234341   5.188   5.551   6.648
11466TIP3   OH234342   4.895   5.208   4.928
11466TIP3    H134343   4.933   5.140   4.988
11466TIP3    H234344   4.951   5.201   4.849
11467TIP3   OH234345   4.129   5.037   7.040
11467TIP3    H134346   4.148   4.941   7.043
11467TIP3    H234347   4.043   5.037   6.993
11468TIP3   OH234348   4.101   4.682   5.237
11468TIP3    H134349   4.160   4.651   5.308
11468TIP3    H234350   4.167   4.687   5.163
11469TIP3   OH234351   4.730   5.120   6.816
11469TIP3    H134352   4.694   5.141   6.728
11469TIP3    H234353   4.762   5.027   6.805
11470TIP3   OH234354   4.620   4.884   5.046
11470TIP3    H134355   4.621   4.894   5.143
11470TIP3    H234356   4.620   4.786   5.037
11471TIP3   OH234357   5.227   5.135   6.425
11471TIP3    H134358   5.302   5.173   6.376
11471TIP3    H234359   5.158   5.203   6.405
11472TIP3   OH234360   4.243   4.773   7.027
11472TIP3    H134361   4.321   4.732   6.988
11472TIP3    H234362   4.276   4.803   7.114
11473TIP3   OH234363   4.307   4.590   5.454
11473TIP3    H134364   4.282   4.549   5.538
11473TIP3    H234365   4.346   4.515   5.405
11474TIP3   OH234366   4.586   4.658   6.696
11474TIP3    H134367   4.505   4.714   6.695
11474TIP3    H234368   4.629   4.684   6.611
11475TIP3   OH234369   4.413   4.386   5.295
11475TIP3    H134370   4.388   4.393   5.200
11475TIP3    H234371   4.511   4.388   5.287
11476TIP3   OH234372   5.099   5.056   6.818
11476TIP3    H134373   5.171   5.023   6.763
11476TIP3    H234374   5.093   4.988   6.888
11477TIP3   OH234375   5.229   4.712   4.966
11477TIP3    H134376   5.217   4.665   4.880
11477TIP3    H234377   5.195   4.801   4.940
11478TIP3   OH234378   4.704   4.441   6.807
11478TIP3    H134379   4.702   4.365   6.745
11478TIP3    H234380   4.661   4.511   6.753
11479TIP3   OH234381   4.702   4.228   6.616
11479TIP3    H134382   4.734   4.272   6.535
11479TIP3    H234383   4.608   4.211   6.594
11480TIP3   OH234384   4.732   4.766   6.495
11480TIP3    H134385   4.816   4.776   6.448
11480TIP3    H234386   4.675   4.830   6.448
11481TIP3   OH234387   5.313   4.730   6.870
11481TIP3    H134388   5.362   4.647   6.875
11481TIP3    H234389   5.379   4.789   6.830
11482TIP3   OH234390   5.353   4.987   6.611
11482TIP3    H134391   5.296   5.042   6.551
11482TIP3    H234392   5.441   5.006   6.572
11483TIP3   OH234393   4.585   4.550   7.045
11483TIP3    H134394   4.513   4.484   7.057
11483TIP3    H234395   4.613   4.532   6.953
11484TIP3   OH234396   4.836   3.993   6.689
11484TIP3    H134397   4.787   4.074   6.661
11484TIP3    H234398   4.769   3.923   6.673
11485TIP3   OH234399   4.963   4.492   6.900
11485TIP3    H134400   4.945   4.478   6.995
11485TIP3    H234401   4.874   4.469   6.864
11486TIP3   OH234402   5.203   4.448   6.758
11486TIP3    H134403   5.127   4.448   6.820
11486TIP3    H234404   5.277   4.417   6.815
11487TIP3   OH234405   5.434   4.388   6.908
11487TIP3    H134406   5.446   4.292   6.923
11487TIP3    H234407   5.429   4.424   6.999
11488TIP3   OH234408   4.415   4.335   7.097
11488TIP3    H134409   4.426   4.247   7.055
11488TIP3    H234410   4.457   4.320   7.184
11489TIP3   OH234411   4.923   4.002   6.948
11489TIP3    H134412   4.991   3.931   6.942
11489TIP3    H234413   4.888   3.998   6.856
11490TIP3   OH234414   4.998   4.215   7.104
11490TIP3    H134415   4.977   4.145   7.039
11490TIP3    H234416   4.921   4.276   7.096
11491TIP3   OH234417   4.222   5.450   5.205
11491TIP3    H134418   4.316   5.439   5.184
11491TIP3    H234419   4.193   5.497   5.125
11492TIP3   OH234420   3.700   4.827   5.421
11492TIP3    H134421   3.794   4.848   5.402
11492TIP3    H234422   3.693   4.738   5.378
11493TIP3   OH234423   3.609   5.445   5.826
11493TIP3    H134424   3.546   5.381   5.788
11493TIP3    H234425   3.657   5.389   5.890
11494TIP3   OH234426   3.744   5.301   6.012
11494TIP3    H134427   3.726   5.221   6.063
11494TIP3    H234428   3.800   5.353   6.073
11495TIP3   OH234429   5.475   5.719   5.815
11495TIP3    H134430   5.511   5.721   5.905
11495TIP3    H234431   5.555   5.715   5.761
11496TIP3   OH234432   5.510   5.716   6.103
11496TIP3    H134433   5.456   5.634   6.101
11496TIP3    H234434   5.586   5.682   6.152
11497TIP3   OH234435   5.554   5.386   6.679
11497TIP3    H134436   5.480   5.397   6.742
11497TIP3    H234437   5.595   5.475   6.680
11498TIP3   OH234438   5.368   4.899   5.293
11498TIP3    H134439   5.435   4.964   5.262
11498TIP3    H234440   5.414   4.861   5.371
11499TIP3   OH234441   5.497   4.765   5.496
11499TIP3    H134442   5.430   4.727   5.557
11499TIP3    H234443   5.562   4.805   5.558
11500TIP3   OH234444   5.387   5.478   6.127
11500TIP3    H134445   5.291   5.481   6.140
11500TIP3    H234446   5.395   5.414   6.052
11501TIP3   OH234447   5.433   4.674   5.143
11501TIP3    H134448   5.362   4.676   5.075
11501TIP3    H234449   5.405   4.751   5.197
11502TIP3   OH234450   5.302   4.347   5.101
11502TIP3    H134451   5.281   4.388   5.016
11502TIP3    H234452   5.276   4.254   5.084
11503TIP3   OH234453   5.307   4.627   5.643
11503TIP3    H134454   5.316   4.531   5.635
11503TIP3    H234455   5.293   4.640   5.740
11504TIP3   OH234456   3.955   4.740   6.362
11504TIP3    H134457   3.944   4.672   6.291
11504TIP3    H234458   4.040   4.707   6.400
11505TIP3   OH234459   5.599   5.050   6.504
11505TIP3    H134460   5.670   4.983   6.490
11505TIP3    H234461   5.616   5.114   6.433
11506TIP3   OH234462   5.782   4.850   6.511
11506TIP3    H134463   5.707   4.802   6.551
11506TIP3    H234464   5.855   4.786   6.529
11507TIP3   OH234465   5.251   4.077   5.076
11507TIP3    H134466   5.319   4.049   5.140
11507TIP3    H234467   5.173   4.024   5.100
11508TIP3   OH234468   5.307   4.342   5.536
11508TIP3    H134469   5.349   4.253   5.549
11508TIP3    H234470   5.363   4.376   5.464
11509TIP3   OH234471   5.468   4.510   6.034
11509TIP3    H134472   5.553   4.536   5.992
11509TIP3    H234473   5.481   4.550   6.122
11510TIP3   OH234474   5.538   4.657   6.264
11510TIP3    H134475   5.460   4.692   6.310
11510TIP3    H234476   5.574   4.738   6.222
11511TIP3   OH234477   4.146   4.375   7.065
11511TIP3    H134478   4.244   4.376   7.066
11511TIP3    H234479   4.128   4.292   7.112
11512TIP3   OH234480   5.991   4.253   6.820
11512TIP3    H134481   6.050   4.187   6.776
11512TIP3    H234482   5.957   4.304   6.743
11513TIP3   OH234483   5.416   4.091   5.575
11513TIP3    H134484   5.463   4.074   5.659
11513TIP3    H234485   5.354   4.016   5.573
11514TIP3   OH234486   4.095   4.078   6.429
11514TIP3    H134487   4.180   4.039   6.403
11514TIP3    H234488   4.103   4.171   6.396
11515TIP3   OH234489   5.855   4.385   6.625
11515TIP3    H134490   5.770   4.430   6.640
11515TIP3    H234491   5.825   4.313   6.566
11516TIP3   OH234492   5.494   4.021   5.214
11516TIP3    H134493   5.534   3.954   5.154
11516TIP3    H234494   5.558   4.095   5.208
11517TIP3   OH234495   3.900   3.839   5.960
11517TIP3    H134496   3.811   3.845   5.998
11517TIP3    H234497   3.896   3.905   5.887
11518TIP3   OH234498   5.058   5.564   5.476
11518TIP3    H134499   5.109   5.548   5.393
11518TIP3    H234500   5.122   5.616   5.528
11519TIP3   OH234501   4.123   3.931   6.786
11519TIP3    H134502   4.065   3.931   6.864
11519TIP3    H234503   4.063   3.970   6.720
11520TIP3   OH234504   4.155   5.366   6.850
11520TIP3    H134505   4.061   5.338   6.844
11520TIP3    H234506   4.179   5.336   6.939
11521TIP3   OH234507   4.339   5.394   6.410
11521TIP3    H134508   4.296   5.473   6.370
11521TIP3    H234509   4.426   5.403   6.365
11522TIP3   OH234510   4.779   5.640   6.547
11522TIP3    H134511   4.824   5.638   6.634
11522TIP3    H234512   4.845   5.690   6.494
11523TIP3   OH234513   4.957   5.795   6.407
11523TIP3    H134514   5.022   5.743   6.356
11523TIP3    H234515   5.016   5.847   6.466
11524TIP3   OH234516   5.757   4.150   6.505
11524TIP3    H134517   5.668   4.143   6.466
11524TIP3    H234518   5.789   4.058   6.494
11525TIP3   OH234519   4.005   5.641   6.415
11525TIP3    H134520   3.915   5.680   6.407
11525TIP3    H234521   4.029   5.671   6.504
11526TIP3   OH234522   4.250   5.627   6.292
11526TIP3    H134523   4.162   5.642   6.331
11526TIP3    H234524   4.237   5.661   6.201
11527TIP3   OH234525   4.673   5.654   6.094
11527TIP3    H134526   4.613   5.675   6.021
11527TIP3    H234527   4.691   5.742   6.132
11528TIP3   OH234528   4.951   5.605   6.152
11528TIP3    H134529   4.858   5.606   6.124
11528TIP3    H234530   4.992   5.667   6.091
11529TIP3   OH234531   5.157   5.802   6.064
11529TIP3    H134532   5.139   5.881   6.009
11529TIP3    H234533   5.183   5.737   5.994
11530TIP3   OH234534   3.930   5.443   6.173
11530TIP3    H134535   3.973   5.476   6.254
11530TIP3    H234536   4.006   5.400   6.126
11531TIP3   OH234537   4.126   5.313   6.038
11531TIP3    H134538   4.152   5.225   6.071
11531TIP3    H234539   4.214   5.355   6.028
11532TIP3   OH234540   4.388   5.411   6.041
11532TIP3    H134541   4.422   5.322   6.021
11532TIP3    H234542   4.440   5.430   6.122
11533TIP3   OH234543   4.974   4.069   6.137
11533TIP3    H134544   4.923   3.998   6.180
11533TIP3    H234545   5.039   4.020   6.084
11534TIP3   OH234546   5.483   3.947   6.029
11534TIP3    H134547   5.519   3.998   5.954
11534TIP3    H234548   5.387   3.966   6.022
11535TIP3   OH234549   5.579   4.041   5.792
11535TIP3    H134550   5.653   3.991   5.753
11535TIP3    H234551   5.612   4.133   5.779
11536TIP3   OH234552   4.209   3.771   6.140
11536TIP3    H134553   4.116   3.740   6.143
11536TIP3    H234554   4.256   3.686   6.135
11537TIP3   OH234555   3.999   3.643   5.787
11537TIP3    H134556   4.029   3.702   5.715
11537TIP3    H234557   3.970   3.708   5.854
11538TIP3   OH234558   4.661   3.800   6.021
11538TIP3    H134559   4.714   3.851   5.958
11538TIP3    H234560   4.667   3.855   6.100
11539TIP3   OH234561   5.201   3.954   6.003
11539TIP3    H134562   5.197   3.916   5.914
11539TIP3    H234563   5.188   3.874   6.059
11540TIP3   OH234564   5.231   3.880   5.568
11540TIP3    H134565   5.147   3.926   5.584
11540TIP3    H234566   5.215   3.794   5.611
11541TIP3   OH234567   3.712   5.221   5.567
11541TIP3    H134568   3.627   5.186   5.534
11541TIP3    H234569   3.703   5.313   5.536
11542TIP3   OH234570   4.117   3.800   5.553
11542TIP3    H134571   4.166   3.741   5.492
11542TIP3    H234572   4.189   3.857   5.587
11543TIP3   OH234573   4.626   3.980   5.650
11543TIP3    H134574   4.688   3.936   5.711
11543TIP3    H234575   4.645   4.073   5.673
11544TIP3   OH234576   4.487   5.404   5.149
11544TIP3    H134577   4.576   5.425   5.113
11544TIP3    H234578   4.465   5.329   5.089
11545TIP3   OH234579   5.206   5.524   5.245
11545TIP3    H134580   5.200   5.426   5.235
11545TIP3    H234581   5.161   5.553   5.163
11546TIP3   OH234582   4.430   4.063   7.025
11546TIP3    H134583   4.386   4.022   7.100
11546TIP3    H234584   4.524   4.049   7.047
11547TIP3   OH234585   4.690   4.028   7.156
11547TIP3    H134586   4.753   4.048   7.085
11547TIP3    H234587   4.737   3.951   7.195
11548TIP3   OH234588   3.793   5.239   5.202
11548TIP3    H134589   3.801   5.257   5.297
11548TIP3    H234590   3.878   5.194   5.183
11549TIP3   OH234591   5.495   4.117   6.936
11549TIP3    H134592   5.514   4.086   7.028
11549TIP3    H234593   5.584   4.111   6.895
11550TIP3   OH234594   5.429   5.666   6.432
11550TIP3    H134595   5.353   5.634   6.378
11550TIP3    H234596   5.407   5.761   6.435
11551TIP3   OH234597   6.691   5.040   5.202
11551TIP3    H134598   6.669   5.131   5.176
11551TIP3    H234599   6.616   4.992   5.160
11552TIP3   OH234600   6.704   5.051   5.580
11552TIP3    H134601   6.727   5.003   5.661
11552TIP3    H234602   6.659   4.983   5.528
11553TIP3   OH234603   6.005   4.936   5.938
11553TIP3    H134604   6.033   4.867   6.001
11553TIP3    H234605   6.087   4.987   5.928
11554TIP3   OH234606   6.936   5.343   5.261
11554TIP3    H134607   6.930   5.263   5.315
11554TIP3    H234608   6.990   5.402   5.314
11555TIP3   OH234609   5.978   5.349   5.666
11555TIP3    H134610   5.967   5.251   5.668
11555TIP3    H234611   6.073   5.356   5.647
11556TIP3   OH234612   5.675   4.541   5.449
11556TIP3    H134613   5.630   4.626   5.468
11556TIP3    H234614   5.603   4.495   5.402
11557TIP3   OH234615   5.732   4.835   5.622
11557TIP3    H134616   5.782   4.760   5.661
11557TIP3    H234617   5.793   4.866   5.554
11558TIP3   OH234618   6.592   5.811   5.274
11558TIP3    H134619   6.634   5.737   5.225
11558TIP3    H234620   6.570   5.771   5.359
11559TIP3   OH234621   6.488   5.263   5.624
11559TIP3    H134622   6.495   5.198   5.553
11559TIP3    H234623   6.577   5.259   5.660
11560TIP3   OH234624   7.513   4.579   5.625
11560TIP3    H134625   7.540   4.663   5.669
11560TIP3    H234626   7.545   4.594   5.534
11561TIP3   OH234627   6.909   4.765   5.653
11561TIP3    H134628   6.949   4.678   5.673
11561TIP3    H234629   6.874   4.750   5.563
11562TIP3   OH234630   6.253   4.425   5.619
11562TIP3    H134631   6.230   4.499   5.558
11562TIP3    H234632   6.203   4.352   5.576
11563TIP3   OH234633   6.944   4.518   5.246
11563TIP3    H134634   7.018   4.504   5.309
11563TIP3    H234635   6.993   4.553   5.169
11564TIP3   OH234636   5.880   4.628   5.730
11564TIP3    H134637   5.963   4.609   5.777
11564TIP3    H234638   5.894   4.574   5.649
11565TIP3   OH234639   6.318   4.826   5.529
11565TIP3    H134640   6.413   4.802   5.537
11565TIP3    H234641   6.280   4.743   5.492
11566TIP3   OH234642   7.585   4.790   5.792
11566TIP3    H134643   7.512   4.849   5.760
11566TIP3    H234644   7.595   4.825   5.882
11567TIP3   OH234645   6.243   4.410   6.058
11567TIP3    H134646   6.185   4.447   5.989
11567TIP3    H234647   6.189   4.429   6.137
11568TIP3   OH234648   6.603   5.269   5.068
11568TIP3    H134649   6.543   5.207   5.025
11568TIP3    H234650   6.545   5.346   5.085
11569TIP3   OH234651   6.350   5.188   5.852
11569TIP3    H134652   6.287   5.254   5.890
11569TIP3    H234653   6.384   5.237   5.774
11570TIP3   OH234654   7.154   4.522   5.421
11570TIP3    H134655   7.125   4.485   5.506
11570TIP3    H234656   7.205   4.600   5.449
11571TIP3   OH234657   6.117   4.523   5.839
11571TIP3    H134658   6.178   4.596   5.863
11571TIP3    H234659   6.166   4.484   5.763
11572TIP3   OH234660   6.179   5.381   5.952
11572TIP3    H134661   6.153   5.466   5.911
11572TIP3    H234662   6.099   5.364   6.006
11573TIP3   OH234663   5.568   5.072   5.184
11573TIP3    H134664   5.530   5.096   5.098
11573TIP3    H234665   5.603   5.157   5.217
11574TIP3   OH234666   6.996   5.583   5.422
11574TIP3    H134667   6.900   5.596   5.421
11574TIP3    H234668   7.023   5.664   5.373
11575TIP3   OH234669   7.303   4.481   5.789
11575TIP3    H134670   7.216   4.510   5.758
11575TIP3    H234671   7.363   4.516   5.719
11576TIP3   OH234672   6.599   4.127   5.777
11576TIP3    H134673   6.580   4.032   5.789
11576TIP3    H234674   6.521   4.166   5.821
11577TIP3   OH234675   6.718   5.630   5.111
11577TIP3    H134676   6.763   5.546   5.085
11577TIP3    H234677   6.776   5.694   5.063
11578TIP3   OH234678   6.854   5.417   5.007
11578TIP3    H134679   6.796   5.345   4.977
11578TIP3    H234680   6.888   5.380   5.091
11579TIP3   OH234681   6.475   4.686   4.735
11579TIP3    H134682   6.509   4.742   4.808
11579TIP3    H234683   6.555   4.638   4.706
11580TIP3   OH234684   6.874   4.988   5.001
11580TIP3    H134685   6.811   5.001   5.076
11580TIP3    H234686   6.954   4.958   5.047
11581TIP3   OH234687   7.113   5.009   5.920
11581TIP3    H134688   7.104   5.088   5.976
11581TIP3    H234689   7.027   5.009   5.874
11582TIP3   OH234690   6.101   4.968   5.419
11582TIP3    H134691   6.058   4.910   5.351
11582TIP3    H234692   6.181   4.916   5.441
11583TIP3   OH234693   6.237   5.384   5.550
11583TIP3    H134694   6.219   5.339   5.465
11583TIP3    H234695   6.324   5.345   5.572
11584TIP3   OH234696   6.253   4.939   5.775
11584TIP3    H134697   6.276   4.915   5.683
11584TIP3    H234698   6.290   5.029   5.784
11585TIP3   OH234699   6.820   5.557   5.633
11585TIP3    H134700   6.793   5.651   5.642
11585TIP3    H234701   6.733   5.514   5.638
11586TIP3   OH234702   6.381   5.494   6.102
11586TIP3    H134703   6.319   5.558   6.144
11586TIP3    H234704   6.318   5.443   6.047
11587TIP3   OH234705   6.751   4.804   4.817
11587TIP3    H134706   6.750   4.883   4.874
11587TIP3    H234707   6.755   4.845   4.728
11588TIP3   OH234708   6.140   5.049   6.204
11588TIP3    H134709   6.143   5.139   6.241
11588TIP3    H234710   6.044   5.031   6.211
11589TIP3   OH234711   6.463   5.511   5.101
11589TIP3    H134712   6.542   5.568   5.109
11589TIP3    H234713   6.400   5.567   5.054
11590TIP3   OH234714   6.177   5.666   6.182
11590TIP3    H134715   6.145   5.667   6.090
11590TIP3    H234716   6.096   5.643   6.232
11591TIP3   OH234717   7.224   4.063   4.879
11591TIP3    H134718   7.147   4.077   4.939
11591TIP3    H234719   7.214   4.140   4.822
11592TIP3   OH234720   5.966   4.815   5.232
11592TIP3    H134721   5.906   4.858   5.167
11592TIP3    H234722   5.939   4.723   5.222
11593TIP3   OH234723   7.033   5.438   4.420
11593TIP3    H134724   7.042   5.535   4.406
11593TIP3    H234725   7.126   5.409   4.409
11594TIP3   OH234726   5.755   5.199   6.122
11594TIP3    H134727   5.686   5.187   6.053
11594TIP3    H234728   5.789   5.109   6.134
11595TIP3   OH234729   5.622   5.419   5.730
11595TIP3    H134730   5.685   5.347   5.738
11595TIP3    H234731   5.556   5.392   5.797
11596TIP3   OH234732   7.470   5.836   5.821
11596TIP3    H134733   7.474   5.746   5.856
11596TIP3    H234734   7.389   5.871   5.865
11597TIP3   OH234735   6.555   5.628   5.937
11597TIP3    H134736   6.572   5.715   5.978
11597TIP3    H234737   6.496   5.586   6.003
11598TIP3   OH234738   6.345   5.756   4.902
11598TIP3    H134739   6.295   5.735   4.822
11598TIP3    H234740   6.309   5.843   4.928
11599TIP3   OH234741   5.781   5.605   5.287
11599TIP3    H134742   5.824   5.596   5.376
11599TIP3    H234743   5.732   5.521   5.282
11600TIP3   OH234744   6.542   5.659   4.540
11600TIP3    H134745   6.600   5.588   4.505
11600TIP3    H234746   6.576   5.669   4.631
11601TIP3   OH234747   6.595   5.708   4.807
11601TIP3    H134748   6.506   5.717   4.850
11601TIP3    H234749   6.645   5.662   4.876
11602TIP3   OH234750   7.371   4.978   6.084
11602TIP3    H134751   7.289   4.985   6.033
11602TIP3    H234752   7.387   4.881   6.079
11603TIP3   OH234753   5.961   5.382   6.117
11603TIP3    H134754   6.009   5.359   6.199
11603TIP3    H234755   5.886   5.319   6.119
11604TIP3   OH234756   6.361   4.204   5.902
11604TIP3    H134757   6.272   4.174   5.873
11604TIP3    H234758   6.334   4.285   5.949
11605TIP3   OH234759   6.894   4.318   6.096
11605TIP3    H134760   6.962   4.290   6.160
11605TIP3    H234761   6.810   4.300   6.142
11606TIP3   OH234762   7.134   4.746   6.016
11606TIP3    H134763   7.080   4.746   6.098
11606TIP3    H234764   7.112   4.832   5.976
11607TIP3   OH234765   6.784   4.875   4.557
11607TIP3    H134766   6.756   4.853   4.466
11607TIP3    H234767   6.867   4.924   4.541
11608TIP3   OH234768   6.508   4.245   4.874
11608TIP3    H134769   6.470   4.246   4.964
11608TIP3    H234770   6.463   4.167   4.837
11609TIP3   OH234771   6.296   4.717   5.922
11609TIP3    H134772   6.242   4.737   6.002
11609TIP3    H234773   6.282   4.798   5.869
11610TIP3   OH234774   6.178   4.606   5.433
11610TIP3    H134775   6.084   4.585   5.449
11610TIP3    H234776   6.190   4.567   5.343
11611TIP3   OH234777   6.656   4.701   5.162
11611TIP3    H134778   6.593   4.768   5.126
11611TIP3    H234779   6.704   4.678   5.081
11612TIP3   OH234780   6.841   4.966   6.245
11612TIP3    H134781   6.818   4.894   6.308
11612TIP3    H234782   6.934   4.980   6.268
11613TIP3   OH234783   6.820   4.721   5.395
11613TIP3    H134784   6.757   4.752   5.326
11613TIP3    H234785   6.852   4.641   5.349
11614TIP3   OH234786   6.116   4.748   6.127
11614TIP3    H134787   6.129   4.816   6.195
11614TIP3    H234788   6.100   4.668   6.179
11615TIP3   OH234789   6.162   4.227   4.838
11615TIP3    H134790   6.149   4.229   4.935
11615TIP3    H234791   6.087   4.282   4.809
11616TIP3   OH234792   5.704   4.265   5.713
11616TIP3    H134793   5.778   4.302   5.765
11616TIP3    H234794   5.744   4.246   5.627
11617TIP3   OH234795   5.669   4.251   5.228
11617TIP3    H134796   5.712   4.288   5.147
11617TIP3    H234797   5.608   4.325   5.248
11618TIP3   OH234798   6.849   4.962   5.827
11618TIP3    H134799   6.875   4.891   5.763
11618TIP3    H234800   6.809   4.908   5.898
11619TIP3   OH234801   6.509   4.419   5.495
11619TIP3    H134802   6.423   4.423   5.542
11619TIP3    H234803   6.572   4.426   5.568
11620TIP3   OH234804   5.937   4.486   5.501
11620TIP3    H134805   5.842   4.496   5.473
11620TIP3    H234806   5.958   4.395   5.476
11621TIP3   OH234807   6.207   4.482   5.191
11621TIP3    H134808   6.297   4.506   5.161
11621TIP3    H234809   6.153   4.500   5.110
11622TIP3   OH234810   6.994   4.503   5.694
11622TIP3    H134811   6.964   4.517   5.787
11622TIP3    H234812   6.924   4.442   5.663
11623TIP3   OH234813   6.057   4.498   4.969
11623TIP3    H134814   5.985   4.462   4.914
11623TIP3    H234815   6.107   4.548   4.900
11624TIP3   OH234816   7.161   6.192   5.904
11624TIP3    H134817   7.164   6.221   5.812
11624TIP3    H234818   7.233   6.248   5.938
11625TIP3   OH234819   6.123   5.301   6.337
11625TIP3    H134820   6.202   5.333   6.385
11625TIP3    H234821   6.057   5.300   6.409
11626TIP3   OH234822   6.585   4.756   5.594
11626TIP3    H134823   6.658   4.719   5.543
11626TIP3    H234824   6.593   4.710   5.680
11627TIP3   OH234825   6.108   4.243   5.474
11627TIP3    H134826   6.071   4.165   5.521
11627TIP3    H234827   6.140   4.203   5.391
11628TIP3   OH234828   6.563   4.654   5.880
11628TIP3    H134829   6.471   4.687   5.893
11628TIP3    H234830   6.617   4.719   5.930
11629TIP3   OH234831   7.121   5.353   5.607
11629TIP3    H134832   7.212   5.346   5.572
11629TIP3    H234833   7.086   5.263   5.586
11630TIP3   OH234834   6.755   4.352   4.832
11630TIP3    H134835   6.659   4.334   4.846
11630TIP3    H234836   6.766   4.444   4.865
11631TIP3   OH234837   6.719   5.376   5.962
11631TIP3    H134838   6.715   5.354   6.056
11631TIP3    H234839   6.675   5.463   5.958
11632TIP3   OH234840   6.833   4.589   4.947
11632TIP3    H134841   6.926   4.610   4.966
11632TIP3    H234842   6.805   4.669   4.896
11633TIP3   OH234843   5.997   5.074   5.652
11633TIP3    H134844   6.031   5.041   5.566
11633TIP3    H234845   6.025   5.004   5.713
11634TIP3   OH234846   6.441   5.181   4.784
11634TIP3    H134847   6.391   5.260   4.813
11634TIP3    H234848   6.428   5.116   4.855
11635TIP3   OH234849   5.876   4.980   6.262
11635TIP3    H134850   5.881   4.963   6.358
11635TIP3    H234851   5.799   4.924   6.237
11636TIP3   OH234852   6.599   5.101   6.286
11636TIP3    H134853   6.535   5.043   6.241
11636TIP3    H234854   6.684   5.065   6.252
11637TIP3   OH234855   7.266   4.690   4.780
11637TIP3    H134856   7.210   4.644   4.713
11637TIP3    H234857   7.265   4.779   4.739
11638TIP3   OH234858   7.468   5.540   5.846
11638TIP3    H134859   7.375   5.565   5.841
11638TIP3    H234860   7.484   5.505   5.755
11639TIP3   OH234861   6.967   5.509   4.687
11639TIP3    H134862   6.940   5.439   4.748
11639TIP3    H234863   6.980   5.461   4.603
11640TIP3   OH234864   6.965   5.142   5.513
11640TIP3    H134865   6.874   5.118   5.537
11640TIP3    H234866   6.996   5.059   5.471
11641TIP3   OH234867   6.075   5.377   5.269
11641TIP3    H134868   6.071   5.459   5.216
11641TIP3    H234869   5.982   5.358   5.285
11642TIP3   OH234870   5.659   4.670   4.981
11642TIP3    H134871   5.705   4.755   5.001
11642TIP3    H234872   5.581   4.677   5.041
11643TIP3   OH234873   6.264   5.184   5.320
11643TIP3    H134874   6.201   5.247   5.280
11643TIP3    H234875   6.212   5.102   5.324
11644TIP3   OH234876   6.363   5.712   5.744
11644TIP3    H134877   6.409   5.785   5.699
11644TIP3    H234878   6.435   5.678   5.802
11645TIP3   OH234879   6.006   5.615   5.125
11645TIP3    H134880   5.922   5.621   5.175
11645TIP3    H234881   6.037   5.708   5.130
11646TIP3   OH234882   6.724   5.245   4.587
11646TIP3    H134883   6.779   5.219   4.665
11646TIP3    H234884   6.638   5.213   4.617
11647TIP3   OH234885   6.997   5.882   5.744
11647TIP3    H134886   6.909   5.842   5.733
11647TIP3    H234887   6.991   5.954   5.677
11648TIP3   OH234888   7.066   5.716   4.407
11648TIP3    H134889   7.107   5.792   4.363
11648TIP3    H234890   6.983   5.759   4.438
11649TIP3   OH234891   6.079   4.491   6.271
11649TIP3    H134892   5.982   4.495   6.280
11649TIP3    H234893   6.104   4.432   6.343
11650TIP3   OH234894   6.888   5.174   4.795
11650TIP3    H134895   6.872   5.112   4.869
11650TIP3    H234896   6.986   5.168   4.789
11651TIP3   OH234897   5.812   5.605   5.914
11651TIP3    H134898   5.830   5.511   5.907
11651TIP3    H234899   5.858   5.627   5.995
11652TIP3   OH234900   6.088   5.220   4.588
11652TIP3    H134901   6.098   5.127   4.561
11652TIP3    H234902   6.066   5.209   4.683
11653TIP3   OH234903   6.028   5.230   4.859
11653TIP3    H134904   6.095   5.194   4.919
11653TIP3    H234905   6.040   5.327   4.871
11654TIP3   OH234906   5.766   4.916   5.065
11654TIP3    H134907   5.699   4.964   5.118
11654TIP3    H234908   5.783   4.981   4.994
11655TIP3   OH234909   6.926   4.555   5.955
11655TIP3    H134910   7.005   4.593   5.997
11655TIP3    H234911   6.909   4.474   6.009
11656TIP3   OH234912   6.812   4.301   5.122
11656TIP3    H134913   6.787   4.327   5.031
11656TIP3    H234914   6.844   4.386   5.158
11657TIP3   OH234915   6.303   5.420   4.815
11657TIP3    H134916   6.215   5.447   4.848
11657TIP3    H234917   6.318   5.488   4.749
11658TIP3   OH234918   6.499   4.483   5.222
11658TIP3    H134919   6.553   4.562   5.202
11658TIP3    H234920   6.499   4.484   5.320
11659TIP3   OH234921   6.757   4.803   6.028
11659TIP3    H134922   6.781   4.856   6.106
11659TIP3    H234923   6.810   4.722   6.040
11660TIP3   OH234924   6.632   4.211   5.325
11660TIP3    H134925   6.608   4.293   5.374
11660TIP3    H234926   6.694   4.247   5.258
11661TIP3   OH234927   6.050   5.503   4.878
11661TIP3    H134928   6.017   5.572   4.817
11661TIP3    H234929   6.031   5.544   4.965
11662TIP3   OH234930   6.145   4.214   5.117
11662TIP3    H134931   6.141   4.307   5.147
11662TIP3    H234932   6.242   4.200   5.123
11663TIP3   OH234933   7.401   4.707   6.016
11663TIP3    H134934   7.303   4.706   6.023
11663TIP3    H234935   7.411   4.670   5.927
11664TIP3   OH234936   7.047   4.897   5.401
11664TIP3    H134937   6.970   4.838   5.410
11664TIP3    H234938   7.116   4.849   5.451
11665TIP3   OH234939   5.764   5.127   4.867
11665TIP3    H134940   5.837   5.191   4.874
11665TIP3    H234941   5.808   5.063   4.806
11666TIP3   OH234942   5.701   4.401   5.002
11666TIP3    H134943   5.710   4.498   5.002
11666TIP3    H234944   5.620   4.390   4.950
11667TIP3   OH234945   7.028   5.840   5.341
11667TIP3    H134946   6.978   5.890   5.272
11667TIP3    H234947   7.119   5.871   5.319
11668TIP3   OH234948   6.097   4.124   5.872
11668TIP3    H134949   6.065   4.091   5.785
11668TIP3    H234950   6.084   4.046   5.929
11669TIP3   OH234951   5.636   5.349   5.252
11669TIP3    H134952   5.573   5.373   5.321
11669TIP3    H234953   5.595   5.389   5.172
11670TIP3   OH234954   5.792   5.890   6.327
11670TIP3    H134955   5.879   5.887   6.372
11670TIP3    H234956   5.769   5.795   6.325
11671TIP3   OH234957   6.270   5.845   6.373
11671TIP3    H134958   6.365   5.827   6.375
11671TIP3    H234959   6.242   5.784   6.301
11672TIP3   OH234960   6.252   5.420   4.500
11672TIP3    H134961   6.192   5.351   4.537
11672TIP3    H234962   6.328   5.365   4.477
11673TIP3   OH234963   6.902   5.772   6.116
11673TIP3    H134964   6.898   5.691   6.171
11673TIP3    H234965   6.989   5.808   6.138
11674TIP3   OH234966   6.689   5.462   4.415
11674TIP3    H134967   6.724   5.395   4.477
11674TIP3    H234968   6.750   5.457   4.340
11675TIP3   OH234969   5.919   5.292   6.526
11675TIP3    H134970   5.935   5.195   6.530
11675TIP3    H234971   5.833   5.295   6.479
11676TIP3   OH234972   5.912   4.946   4.740
11676TIP3    H134973   5.968   4.905   4.811
11676TIP3    H234974   5.975   4.945   4.665
11677TIP3   OH234975   6.528   5.378   6.303
11677TIP3    H134976   6.483   5.401   6.219
11677TIP3    H234977   6.556   5.286   6.289
11678TIP3   OH234978   6.412   5.140   4.519
11678TIP3    H134979   6.414   5.152   4.617
11678TIP3    H234980   6.409   5.042   4.515
11679TIP3   OH234981   6.040   5.032   6.515
11679TIP3    H134982   6.115   4.982   6.482
11679TIP3    H234983   6.072   5.062   6.602
11680TIP3   OH234984   6.071   4.833   4.921
11680TIP3    H134985   6.114   4.844   5.007
11680TIP3    H234986   6.126   4.766   4.878
11681TIP3   OH234987   6.381   4.914   6.178
11681TIP3    H134988   6.298   4.967   6.176
11681TIP3    H234989   6.427   4.948   6.097
11682TIP3   OH234990   6.208   4.634   4.783
11682TIP3    H134991   6.183   4.646   4.690
11682TIP3    H234992   6.305   4.646   4.778
11683TIP3   OH234993   6.894   5.311   6.311
11683TIP3    H134994   6.980   5.286   6.277
11683TIP3    H234995   6.880   5.244   6.381
11684TIP3   OH234996   7.028   4.967   4.448
11684TIP3    H134997   7.006   4.926   4.362
11684TIP3    H234998   6.995   5.059   4.430
11685TIP3   OH234999   6.502   4.700   6.294
11685TIP3    H135000   6.499   4.622   6.235
11685TIP3    H235001   6.457   4.769   6.239
11686TIP3   OH235002   6.502   4.486   6.105
11686TIP3    H135003   6.529   4.528   6.021
11686TIP3    H235004   6.408   4.464   6.087
11687TIP3   OH235005   6.525   5.024   5.981
11687TIP3    H135006   6.608   5.034   5.932
11687TIP3    H235007   6.466   5.087   5.935
11688TIP3   OH235008   7.108   4.986   6.359
11688TIP3    H135009   7.155   4.901   6.366
11688TIP3    H235010   7.178   5.045   6.327
11689TIP3   OH235011   7.146   5.245   6.087
11689TIP3    H135012   7.090   5.311   6.046
11689TIP3    H235013   7.233   5.262   6.045
11690TIP3   OH235014   6.382   4.804   6.532
11690TIP3    H135015   6.312   4.737   6.545
11690TIP3    H235016   6.411   4.784   6.441
11691TIP3   OH235017   6.633   4.248   6.176
11691TIP3    H135018   6.584   4.329   6.151
11691TIP3    H235019   6.565   4.179   6.163
11692TIP3   OH235020   6.759   4.748   6.389
11692TIP3    H135021   6.739   4.735   6.483
11692TIP3    H235022   6.671   4.727   6.351
11693TIP3   OH235023   6.998   4.701   6.245
11693TIP3    H135024   6.922   4.703   6.307
11693TIP3    H235025   7.071   4.671   6.302
11694TIP3   OH235026   7.232   4.645   6.394
11694TIP3    H135027   7.242   4.549   6.409
11694TIP3    H235028   7.225   4.681   6.485
11695TIP3   OH235029   6.216   4.587   6.584
11695TIP3    H135030   6.218   4.495   6.549
11695TIP3    H235031   6.252   4.574   6.674
11696TIP3   OH235032   6.726   4.256   6.434
11696TIP3    H135033   6.792   4.185   6.424
11696TIP3    H235034   6.686   4.255   6.344
11697TIP3   OH235035   6.794   4.472   6.592
11697TIP3    H135036   6.772   4.401   6.527
11697TIP3    H235037   6.716   4.531   6.584
11698TIP3   OH235038   6.018   5.710   4.692
11698TIP3    H135039   6.112   5.696   4.671
11698TIP3    H235040   5.989   5.756   4.611
11699TIP3   OH235041   5.496   5.081   4.907
11699TIP3    H135042   5.589   5.104   4.888
11699TIP3    H235043   5.488   4.994   4.862
11700TIP3   OH235044   5.408   5.699   5.320
11700TIP3    H135045   5.344   5.635   5.282
11700TIP3    H235046   5.455   5.641   5.384
11701TIP3   OH235047   5.547   5.551   5.501
11701TIP3    H135048   5.548   5.478   5.566
11701TIP3    H235049   5.595   5.616   5.555
11702TIP3   OH235050   7.275   5.941   5.298
11702TIP3    H135051   7.291   5.961   5.393
11702TIP3    H235052   7.331   6.007   5.255
11703TIP3   OH235053   7.309   5.934   5.570
11703TIP3    H135054   7.311   5.852   5.620
11703TIP3    H235055   7.360   5.994   5.627
11704TIP3   OH235056   7.346   5.644   6.157
11704TIP3    H135057   7.275   5.651   6.224
11704TIP3    H235058   7.389   5.732   6.166
11705TIP3   OH235059   7.167   5.155   4.775
11705TIP3    H135060   7.234   5.221   4.748
11705TIP3    H235061   7.208   5.115   4.854
11706TIP3   OH235062   7.287   5.015   4.974
11706TIP3    H135063   7.224   4.979   5.040
11706TIP3    H235064   7.360   5.051   5.030
11707TIP3   OH235065   7.350   5.425   5.423
11707TIP3    H135066   7.373   5.343   5.376
11707TIP3    H235067   7.356   5.493   5.352
11708TIP3   OH235068   7.141   5.667   5.646
11708TIP3    H135069   7.108   5.751   5.685
11708TIP3    H235070   7.154   5.693   5.553
11709TIP3   OH235071   7.231   4.927   4.628
11709TIP3    H135072   7.159   4.934   4.562
11709TIP3    H235073   7.206   5.001   4.687
11710TIP3   OH235074   7.116   4.592   4.573
11710TIP3    H135075   7.059   4.650   4.521
11710TIP3    H235076   7.077   4.504   4.554
11711TIP3   OH235077   7.104   4.883   5.133
11711TIP3    H135078   7.107   4.786   5.123
11711TIP3    H235079   7.087   4.894   5.230
11712TIP3   OH235080   5.737   4.914   5.898
11712TIP3    H135081   5.717   4.922   5.803
11712TIP3    H235082   5.834   4.933   5.899
11713TIP3   OH235083   7.393   5.309   5.988
11713TIP3    H135084   7.459   5.239   5.969
11713TIP3    H235085   7.421   5.378   5.926
11714TIP3   OH235086   7.591   5.116   5.997
11714TIP3    H135087   7.511   5.069   6.030
11714TIP3    H235088   7.658   5.046   6.016
11715TIP3   OH235089   7.037   4.323   4.563
11715TIP3    H135090   7.065   4.300   4.652
11715TIP3    H235091   6.948   4.284   4.559
11716TIP3   OH235092   7.109   4.601   5.029
11716TIP3    H135093   7.147   4.511   5.040
11716TIP3    H235094   7.164   4.635   4.956
11717TIP3   OH235095   7.273   4.775   5.511
11717TIP3    H135096   7.339   4.826   5.463
11717TIP3    H235097   7.286   4.813   5.601
11718TIP3   OH235098   7.330   4.912   5.743
11718TIP3    H135099   7.258   4.957   5.790
11718TIP3    H235100   7.376   4.991   5.704
11719TIP3   OH235101   5.948   4.638   6.554
11719TIP3    H135102   6.046   4.633   6.556
11719TIP3    H235103   5.925   4.551   6.592
11720TIP3   OH235104   7.789   4.510   6.307
11720TIP3    H135105   7.846   4.444   6.263
11720TIP3    H235106   7.754   4.561   6.230
11721TIP3   OH235107   7.202   4.345   5.059
11721TIP3    H135108   7.259   4.330   5.137
11721TIP3    H235109   7.142   4.268   5.065
11722TIP3   OH235110   5.912   4.333   5.885
11722TIP3    H135111   5.975   4.259   5.890
11722TIP3    H235112   5.973   4.408   5.874
11723TIP3   OH235113   5.713   4.610   5.956
11723TIP3    H135114   5.762   4.603   5.872
11723TIP3    H235115   5.723   4.705   5.974
11724TIP3   OH235116   7.653   4.642   6.112
11724TIP3    H135117   7.568   4.687   6.128
11724TIP3    H235118   7.622   4.570   6.053
11725TIP3   OH235119   5.698   4.106   5.454
11725TIP3    H135120   5.605   4.103   5.483
11725TIP3    H235121   5.692   4.167   5.377
11726TIP3   OH235122   6.852   5.812   4.963
11726TIP3    H135123   6.903   5.801   4.880
11726TIP3    H235124   6.906   5.878   5.011
11727TIP3   OH235125   5.919   4.189   6.270
11727TIP3    H135126   5.866   4.186   6.351
11727TIP3    H235127   5.855   4.228   6.208
11728TIP3   OH235128   5.956   5.622   6.347
11728TIP3    H135129   5.864   5.596   6.329
11728TIP3    H235130   5.965   5.598   6.440
11729TIP3   OH235131   6.140   5.654   5.899
11729TIP3    H135132   6.086   5.724   5.858
11729TIP3    H235133   6.223   5.669   5.850
11730TIP3   OH235134   6.578   5.895   6.032
11730TIP3    H135135   6.621   5.892   6.121
11730TIP3    H235136   6.646   5.944   5.981
11731TIP3   OH235137   6.759   6.049   5.893
11731TIP3    H135138   6.836   6.000   5.860
11731TIP3    H235139   6.804   6.111   5.955
11732TIP3   OH235140   7.554   4.406   5.992
11732TIP3    H135141   7.464   4.398   5.955
11732TIP3    H235142   7.586   4.313   5.981
11733TIP3   OH235143   5.817   5.933   5.911
11733TIP3    H135144   5.724   5.956   5.891
11733TIP3    H235145   5.814   5.931   6.007
11734TIP3   OH235146   6.051   5.889   5.778
11734TIP3    H135147   5.965   5.903   5.823
11734TIP3    H235148   6.029   5.913   5.686
11735TIP3   OH235149   6.480   5.912   5.574
11735TIP3    H135150   6.405   5.928   5.514
11735TIP3    H235151   6.490   6.000   5.616
11736TIP3   OH235152   6.752   5.828   5.610
11736TIP3    H135153   6.658   5.855   5.601
11736TIP3    H235154   6.797   5.906   5.571
11737TIP3   OH235155   6.929   6.039   5.535
11737TIP3    H135156   6.930   6.133   5.506
11737TIP3    H235157   6.974   5.997   5.460
11738TIP3   OH235158   5.722   5.707   5.667
11738TIP3    H135159   5.746   5.674   5.757
11738TIP3    H235160   5.789   5.657   5.615
11739TIP3   OH235161   5.915   5.574   5.524
11739TIP3    H135162   5.926   5.490   5.576
11739TIP3    H235163   6.007   5.605   5.520
11740TIP3   OH235164   6.189   5.666   5.524
11740TIP3    H135165   6.212   5.571   5.511
11740TIP3    H235166   6.236   5.682   5.608
11741TIP3   OH235167   6.768   4.326   5.626
11741TIP3    H135168   6.717   4.255   5.670
11741TIP3    H235169   6.830   4.276   5.570
11742TIP3   OH235170   7.279   4.199   5.512
11742TIP3    H135171   7.313   4.255   5.439
11742TIP3    H235172   7.183   4.220   5.510
11743TIP3   OH235173   7.377   4.297   5.273
11743TIP3    H135174   7.453   4.248   5.237
11743TIP3    H235175   7.410   4.389   5.260
11744TIP3   OH235176   6.007   4.030   5.626
11744TIP3    H135177   5.913   3.999   5.629
11744TIP3    H235178   6.053   3.944   5.621
11745TIP3   OH235179   5.801   3.902   5.277
11745TIP3    H135180   5.826   3.959   5.202
11745TIP3    H235181   5.769   3.968   5.342
11746TIP3   OH235182   6.458   4.057   5.507
11746TIP3    H135183   6.512   4.110   5.446
11746TIP3    H235184   6.469   4.106   5.590
11747TIP3   OH235185   6.999   4.211   5.489
11747TIP3    H135186   6.987   4.173   5.401
11747TIP3    H235187   6.985   4.132   5.547
11748TIP3   OH235188   7.026   4.131   5.056
11748TIP3    H135189   6.944   4.182   5.073
11748TIP3    H235190   7.004   4.046   5.102
11749TIP3   OH235191   5.510   5.476   5.049
11749TIP3    H135192   5.425   5.440   5.017
11749TIP3    H235193   5.498   5.569   5.025
11750TIP3   OH235194   5.913   4.056   5.041
11750TIP3    H135195   5.961   3.997   4.980
11750TIP3    H235196   5.985   4.113   5.074
11751TIP3   OH235197   6.422   4.237   5.136
11751TIP3    H135198   6.481   4.191   5.198
11751TIP3    H235199   6.443   4.330   5.160
11752TIP3   OH235200   6.282   5.657   4.635
11752TIP3    H135201   6.371   5.679   4.599
11752TIP3    H235202   6.260   5.582   4.576
11753TIP3   OH235203   6.995   5.775   4.730
11753TIP3    H135204   6.988   5.677   4.719
11753TIP3    H235205   6.952   5.806   4.648
11754TIP3   OH235206   6.213   4.312   6.520
11754TIP3    H135207   6.178   4.241   6.576
11754TIP3    H235208   6.307   4.312   6.547
11755TIP3   OH235209   6.465   4.311   6.637
11755TIP3    H135210   6.549   4.285   6.595
11755TIP3    H235211   6.452   4.239   6.702
11756TIP3   OH235212   5.591   5.503   4.693
11756TIP3    H135213   5.589   5.507   4.789
11756TIP3    H235214   5.676   5.456   4.676
11757TIP3   OH235215   7.292   4.373   6.423
11757TIP3    H135216   7.309   4.342   6.515
11757TIP3    H235217   7.381   4.368   6.383
11758TIP3   OH235218   7.225   5.924   5.909
11758TIP3    H135219   7.142   5.896   5.866
11758TIP3    H235220   7.209   6.021   5.915
11759TIP3   OH235221   8.496   5.274   4.688
11759TIP3    H135222   8.487   5.370   4.707
11759TIP3    H235223   8.409   5.255   4.651
11760TIP3   OH235224   8.500   5.293   5.060
11760TIP3    H135225   8.522   5.278   5.153
11760TIP3    H235226   8.450   5.214   5.037
11761TIP3   OH235227   8.777   5.574   4.757
11761TIP3    H135228   8.681   5.552   4.751
11761TIP3    H235229   8.772   5.662   4.796
11762TIP3   OH235230   7.770   5.603   5.161
11762TIP3    H135231   7.762   5.505   5.157
11762TIP3    H235232   7.865   5.612   5.138
11763TIP3   OH235233   7.478   4.784   4.931
11763TIP3    H135234   7.444   4.870   4.960
11763TIP3    H235235   7.399   4.748   4.886
11764TIP3   OH235236   7.520   5.080   5.094
11764TIP3    H135237   7.568   5.018   5.154
11764TIP3    H235238   7.592   5.139   5.068
11765TIP3   OH235239   8.378   6.066   4.774
11765TIP3    H135240   8.416   6.007   4.705
11765TIP3    H235241   8.382   6.005   4.849
11766TIP3   OH235242   8.287   5.524   5.114
11766TIP3    H135243   8.324   5.465   5.046
11766TIP3    H235244   8.371   5.565   5.144
11767TIP3   OH235245   8.701   5.044   5.140
11767TIP3    H135246   8.711   4.949   5.164
11767TIP3    H235247   8.654   5.034   5.055
11768TIP3   OH235248   8.037   4.677   5.108
11768TIP3    H135249   8.027   4.753   5.047
11768TIP3    H235250   7.983   4.611   5.062
11769TIP3   OH235251   8.727   4.775   4.742
11769TIP3    H135252   8.798   4.723   4.783
11769TIP3    H235253   8.777   4.836   4.686
11770TIP3   OH235254   7.678   4.895   5.213
11770TIP3    H135255   7.750   4.874   5.276
11770TIP3    H235256   7.703   4.840   5.137
11771TIP3   OH235257   8.119   5.082   5.011
11771TIP3    H135258   8.213   5.058   5.023
11771TIP3    H235259   8.082   4.997   4.977
11772TIP3   OH235260   8.040   4.664   5.546
11772TIP3    H135261   7.984   4.704   5.477
11772TIP3    H235262   7.985   4.682   5.625
11773TIP3   OH235263   8.149   5.438   5.335
11773TIP3    H135264   8.091   5.511   5.366
11773TIP3    H235265   8.195   5.480   5.259
11774TIP3   OH235266   7.911   4.778   5.331
11774TIP3    H135267   7.969   4.854   5.353
11774TIP3    H235268   7.959   4.741   5.253
11775TIP3   OH235269   7.977   5.637   5.445
11775TIP3    H135270   7.945   5.719   5.401
11775TIP3    H235271   7.902   5.611   5.500
11776TIP3   OH235272   7.368   5.327   4.671
11776TIP3    H135273   7.327   5.357   4.587
11776TIP3    H235274   7.399   5.412   4.708
11777TIP3   OH235275   8.815   5.855   4.913
11777TIP3    H135276   8.732   5.831   4.961
11777TIP3    H235277   8.786   5.938   4.872
11778TIP3   OH235278   8.383   4.373   5.260
11778TIP3    H135279   8.363   4.279   5.280
11778TIP3    H235280   8.306   4.417   5.304
11779TIP3   OH235281   8.503   5.906   4.599
11779TIP3    H135282   8.514   5.810   4.614
11779TIP3    H235283   8.581   5.933   4.546
11780TIP3   OH235284   8.661   5.624   4.454
11780TIP3    H135285   8.572   5.610   4.495
11780TIP3    H235286   8.712   5.625   4.536
11781TIP3   OH235287   9.033   5.744   5.264
11781TIP3    H135288   9.036   5.669   5.201
11781TIP3    H235289   9.030   5.821   5.204
11782TIP3   OH235290   8.316   5.144   4.512
11782TIP3    H135291   8.236   5.199   4.496
11782TIP3    H235292   8.360   5.152   4.426
11783TIP3   OH235293   8.282   4.902   4.257
11783TIP3    H135294   8.334   4.977   4.288
11783TIP3    H235295   8.343   4.864   4.191
11784TIP3   OH235296   8.663   5.230   4.477
11784TIP3    H135297   8.604   5.260   4.551
11784TIP3    H235298   8.736   5.192   4.529
11785TIP3   OH235299   8.886   5.246   5.397
11785TIP3    H135300   8.895   5.332   5.443
11785TIP3    H235301   8.804   5.261   5.348
11786TIP3   OH235302   7.902   5.224   4.906
11786TIP3    H135303   7.864   5.167   4.836
11786TIP3    H235304   7.980   5.173   4.935
11787TIP3   OH235305   8.027   5.629   5.053
11787TIP3    H135306   8.014   5.608   4.959
11787TIP3    H235307   8.118   5.597   5.069
11788TIP3   OH235308   8.035   5.197   5.253
11788TIP3    H135309   8.074   5.175   5.166
11788TIP3    H235310   8.079   5.282   5.275
11789TIP3   OH235311   8.583   5.840   5.045
11789TIP3    H135312   8.554   5.921   5.092
11789TIP3    H235313   8.546   5.767   5.099
11790TIP3   OH235314   8.183   5.761   5.576
11790TIP3    H135315   8.121   5.816   5.628
11790TIP3    H235316   8.120   5.706   5.525
11791TIP3   OH235317   8.511   5.074   4.313
11791TIP3    H135318   8.562   5.142   4.362
11791TIP3    H235319   8.534   5.097   4.220
11792TIP3   OH235320   7.970   5.920   5.666
11792TIP3    H135321   7.942   5.933   5.574
11792TIP3    H235322   7.888   5.889   5.709
11793TIP3   OH235323   7.774   5.067   4.701
11793TIP3    H135324   7.710   5.118   4.647
11793TIP3    H235325   7.721   4.990   4.724
11794TIP3   OH235326   8.833   5.687   3.904
11794TIP3    H135327   8.807   5.779   3.920
11794TIP3    H235328   8.919   5.697   3.861
11795TIP3   OH235329   7.547   5.440   5.607
11795TIP3    H135330   7.477   5.455   5.541
11795TIP3    H235331   7.540   5.341   5.607
11796TIP3   OH235332   7.403   5.647   5.257
11796TIP3    H135333   7.497   5.641   5.234
11796TIP3    H235334   7.399   5.735   5.298
11797TIP3   OH235335   8.369   5.895   5.433
11797TIP3    H135336   8.406   5.948   5.505
11797TIP3    H235337   8.303   5.841   5.481
11798TIP3   OH235338   8.138   6.025   4.378
11798TIP3    H135339   8.085   6.010   4.298
11798TIP3    H235340   8.105   6.111   4.412
11799TIP3   OH235341   7.578   5.866   4.774
11799TIP3    H135342   7.624   5.851   4.860
11799TIP3    H235343   7.517   5.790   4.773
11800TIP3   OH235344   8.336   5.918   4.027
11800TIP3    H135345   8.393   5.843   4.002
11800TIP3    H235346   8.366   5.935   4.120
11801TIP3   OH235347   8.387   5.962   4.296
11801TIP3    H135348   8.297   5.976   4.335
11801TIP3    H235349   8.433   5.926   4.374
11802TIP3   OH235350   7.776   5.574   5.676
11802TIP3    H135351   7.770   5.664   5.719
11802TIP3    H235352   7.690   5.567   5.629
11803TIP3   OH235353   8.155   4.460   5.390
11803TIP3    H135354   8.065   4.433   5.361
11803TIP3    H235355   8.131   4.543   5.436
11804TIP3   OH235356   8.658   4.595   5.569
11804TIP3    H135357   8.720   4.550   5.629
11804TIP3    H235358   8.572   4.574   5.611
11805TIP3   OH235359   8.968   5.007   5.512
11805TIP3    H135360   8.900   5.005   5.582
11805TIP3    H235361   8.941   5.086   5.460
11806TIP3   OH235362   8.595   5.118   4.060
11806TIP3    H135363   8.552   5.105   3.973
11806TIP3    H235364   8.680   5.154   4.036
11807TIP3   OH235365   8.311   4.503   4.361
11807TIP3    H135366   8.274   4.504   4.451
11807TIP3    H235367   8.268   4.423   4.325
11808TIP3   OH235368   8.087   4.978   5.406
11808TIP3    H135369   8.036   4.996   5.488
11808TIP3    H235370   8.068   5.059   5.354
11809TIP3   OH235371   7.977   4.863   4.920
11809TIP3    H135372   7.882   4.844   4.938
11809TIP3    H235373   7.986   4.822   4.831
11810TIP3   OH235374   8.458   4.948   4.645
11810TIP3    H135375   8.404   5.023   4.610
11810TIP3    H235376   8.512   4.927   4.568
11811TIP3   OH235377   8.628   5.214   5.722
11811TIP3    H135378   8.626   5.147   5.793
11811TIP3    H235379   8.718   5.251   5.733
11812TIP3   OH235380   8.599   4.983   4.889
11812TIP3    H135381   8.543   5.009   4.813
11812TIP3    H235382   8.631   4.896   4.856
11813TIP3   OH235383   7.922   4.981   5.623
11813TIP3    H135384   7.933   5.034   5.702
11813TIP3    H235385   7.888   4.897   5.659
11814TIP3   OH235386   7.955   4.481   4.325
11814TIP3    H135387   7.949   4.491   4.422
11814TIP3    H235388   7.883   4.540   4.295
11815TIP3   OH235389   7.520   4.516   5.198
11815TIP3    H135390   7.571   4.555   5.272
11815TIP3    H235391   7.565   4.554   5.122
11816TIP3   OH235392   8.601   5.228   5.313
11816TIP3    H135393   8.645   5.166   5.251
11816TIP3    H235394   8.581   5.167   5.388
11817TIP3   OH235395   8.292   4.698   4.977
11817TIP3    H135396   8.221   4.689   5.043
11817TIP3    H235397   8.370   4.664   5.025
11818TIP3   OH235398   7.738   4.743   4.989
11818TIP3    H135399   7.643   4.752   4.961
11818TIP3    H235400   7.763   4.654   4.959
11819TIP3   OH235401   7.997   4.731   4.679
11819TIP3    H135402   8.092   4.751   4.663
11819TIP3    H235403   7.954   4.759   4.595
11820TIP3   OH235404   8.714   4.776   5.177
11820TIP3    H135405   8.703   4.787   5.274
11820TIP3    H235406   8.793   4.718   5.173
11821TIP3   OH235407   7.849   4.759   4.451
11821TIP3    H135408   7.781   4.724   4.390
11821TIP3    H235409   7.904   4.809   4.387
11822TIP3   OH235410   8.381   5.013   5.081
11822TIP3    H135411   8.450   4.975   5.023
11822TIP3    H235412   8.391   4.962   5.163
11823TIP3   OH235413   7.886   4.500   4.948
11823TIP3    H135414   7.868   4.420   5.002
11823TIP3    H235415   7.958   4.471   4.891
11824TIP3   OH235416   8.355   4.904   5.377
11824TIP3    H135417   8.267   4.945   5.382
11824TIP3    H235418   8.413   4.970   5.420
11825TIP3   OH235419   8.094   5.297   4.459
11825TIP3    H135420   8.017   5.238   4.445
11825TIP3    H235421   8.073   5.334   4.548
11826TIP3   OH235422   8.991   5.547   5.076
11826TIP3    H135423   8.985   5.558   4.980
11826TIP3    H235424   8.909   5.496   5.090
11827TIP3   OH235425   8.561   4.608   4.321
11827TIP3    H135426   8.465   4.585   4.331
11827TIP3    H235427   8.561   4.704   4.334
11828TIP3   OH235428   8.487   5.603   5.473
11828TIP3    H135429   8.548   5.586   5.547
11828TIP3    H235430   8.476   5.699   5.476
11829TIP3   OH235431   8.660   4.866   4.406
11829TIP3    H135432   8.735   4.924   4.426
11829TIP3    H235433   8.599   4.930   4.365
11830TIP3   OH235434   7.786   5.324   5.138
11830TIP3    H135435   7.823   5.299   5.051
11830TIP3    H235436   7.837   5.268   5.197
11831TIP3   OH235437   8.274   5.459   4.287
11831TIP3    H135438   8.221   5.541   4.292
11831TIP3    H235439   8.218   5.399   4.339
11832TIP3   OH235440   7.731   5.239   5.787
11832TIP3    H135441   7.688   5.192   5.862
11832TIP3    H235442   7.682   5.192   5.714
11833TIP3   OH235443   8.395   5.347   5.764
11833TIP3    H135444   8.351   5.300   5.692
11833TIP3    H235445   8.488   5.326   5.741
11834TIP3   OH235446   8.656   5.862   5.395
11834TIP3    H135447   8.570   5.890   5.359
11834TIP3    H235448   8.660   5.909   5.480
11835TIP3   OH235449   8.744   5.774   4.167
11835TIP3    H135450   8.734   5.741   4.258
11835TIP3    H235451   8.791   5.701   4.125
11836TIP3   OH235452   8.764   5.390   5.047
11836TIP3    H135453   8.667   5.382   5.037
11836TIP3    H235454   8.792   5.321   4.985
11837TIP3   OH235455   7.895   5.630   4.776
11837TIP3    H135456   7.893   5.707   4.715
11837TIP3    H235457   7.803   5.603   4.774
11838TIP3   OH235458   7.460   4.921   4.474
11838TIP3    H135459   7.502   5.008   4.490
11838TIP3    H235460   7.381   4.929   4.531
11839TIP3   OH235461   8.013   5.385   4.702
11839TIP3    H135462   7.995   5.478   4.724
11839TIP3    H235463   7.979   5.340   4.782
11840TIP3   OH235464   8.157   5.967   5.235
11840TIP3    H135465   8.196   6.037   5.178
11840TIP3    H235466   8.237   5.933   5.279
11841TIP3   OH235467   7.806   5.855   4.615
11841TIP3    H135468   7.719   5.868   4.657
11841TIP3    H235469   7.834   5.947   4.602
11842TIP3   OH235470   8.536   5.604   5.198
11842TIP3    H135471   8.528   5.593   5.295
11842TIP3    H235472   8.623   5.566   5.182
11843TIP3   OH235473   8.530   5.454   4.054
11843TIP3    H135474   8.580   5.449   4.140
11843TIP3    H235475   8.437   5.446   4.088
11844TIP3   OH235476   7.871   4.736   5.757
11844TIP3    H135477   7.774   4.744   5.772
11844TIP3    H235478   7.898   4.682   5.833
11845TIP3   OH235479   8.704   5.427   4.276
11845TIP3    H135480   8.685   5.355   4.338
11845TIP3    H235481   8.698   5.504   4.338
11846TIP3   OH235482   7.587   5.840   5.383
11846TIP3    H135483   7.664   5.784   5.400
11846TIP3    H235484   7.601   5.915   5.442
11847TIP3   OH235485   7.883   5.483   4.076
11847TIP3    H135486   7.933   5.405   4.047
11847TIP3    H235487   7.865   5.461   4.169
11848TIP3   OH235488   7.829   5.481   4.352
11848TIP3    H135489   7.915   5.459   4.391
11848TIP3    H235490   7.831   5.579   4.354
11849TIP3   OH235491   7.564   5.173   4.551
11849TIP3    H135492   7.498   5.220   4.606
11849TIP3    H235493   7.581   5.241   4.483
11850TIP3   OH235494   8.719   4.834   5.449
11850TIP3    H135495   8.806   4.854   5.486
11850TIP3    H235496   8.695   4.750   5.494
11851TIP3   OH235497   8.578   4.572   4.616
11851TIP3    H135498   8.575   4.589   4.521
11851TIP3    H235499   8.624   4.650   4.651
11852TIP3   OH235500   8.096   5.674   4.294
11852TIP3    H135501   8.010   5.702   4.331
11852TIP3    H235502   8.118   5.753   4.243
11853TIP3   OH235503   8.277   4.746   4.708
11853TIP3    H135504   8.342   4.817   4.690
11853TIP3    H235505   8.286   4.735   4.805
11854TIP3   OH235506   8.546   5.052   5.514
11854TIP3    H135507   8.574   5.107   5.590
11854TIP3    H235508   8.611   4.979   5.514
11855TIP3   OH235509   8.421   4.455   4.806
11855TIP3    H135510   8.446   4.509   4.884
11855TIP3    H235511   8.478   4.498   4.737
11856TIP3   OH235512   7.838   5.753   4.358
11856TIP3    H135513   7.810   5.826   4.298
11856TIP3    H235514   7.822   5.794   4.446
11857TIP3   OH235515   7.936   4.473   4.605
11857TIP3    H135516   7.943   4.566   4.637
11857TIP3    H235517   8.032   4.450   4.610
11858TIP3   OH235518   8.844   5.136   4.916
11858TIP3    H135519   8.755   5.105   4.891
11858TIP3    H235520   8.848   5.100   5.007
11859TIP3   OH235521   7.559   5.385   4.357
11859TIP3    H135522   7.634   5.447   4.367
11859TIP3    H235523   7.600   5.324   4.291
11860TIP3   OH235524   7.492   4.633   4.513
11860TIP3    H135525   7.518   4.727   4.504
11860TIP3    H235526   7.405   4.641   4.469
11861TIP3   OH235527   8.831   6.140   4.843
11861TIP3    H135528   8.778   6.181   4.771
11861TIP3    H235529   8.910   6.113   4.793
11862TIP3   OH235530   7.888   4.382   5.359
11862TIP3    H135531   7.859   4.346   5.273
11862TIP3    H235532   7.881   4.304   5.417
11863TIP3   OH235533   7.426   5.592   4.740
11863TIP3    H135534   7.360   5.626   4.802
11863TIP3    H235535   7.397   5.637   4.656
11864TIP3   OH235536   7.630   6.085   5.753
11864TIP3    H135537   7.682   6.111   5.831
11864TIP3    H235538   7.543   6.069   5.792
11865TIP3   OH235539   8.030   6.127   5.843
11865TIP3    H135540   8.126   6.144   5.846
11865TIP3    H235541   8.026   6.049   5.785
11866TIP3   OH235542   8.053   5.672   3.983
11866TIP3    H135543   7.984   5.615   4.026
11866TIP3    H235544   8.123   5.606   3.975
11867TIP3   OH235545   8.497   5.717   3.910
11867TIP3    H135546   8.572   5.718   3.972
11867TIP3    H235547   8.539   5.730   3.823
11868TIP3   OH235548   7.719   5.494   5.964
11868TIP3    H135549   7.731   5.463   6.056
11868TIP3    H235550   7.629   5.531   5.962
11869TIP3   OH235551   7.688   5.192   4.220
11869TIP3    H135552   7.753   5.170   4.289
11869TIP3    H235553   7.748   5.193   4.141
11870TIP3   OH235554   8.314   5.615   5.780
11870TIP3    H135555   8.292   5.638   5.688
11870TIP3    H235556   8.353   5.526   5.770
11871TIP3   OH235557   8.796   5.634   5.351
11871TIP3    H135558   8.879   5.674   5.318
11871TIP3    H235559   8.740   5.715   5.359
11872TIP3   OH235560   7.889   5.104   4.424
11872TIP3    H135561   7.873   5.066   4.511
11872TIP3    H235562   7.934   5.031   4.376
11873TIP3   OH235563   8.185   5.161   5.654
11873TIP3    H135564   8.145   5.248   5.663
11873TIP3    H235565   8.238   5.176   5.572
11874TIP3   OH235566   8.004   4.895   4.276
11874TIP3    H135567   7.983   4.906   4.180
11874TIP3    H235568   8.103   4.894   4.272
11875TIP3   OH235569   8.658   5.534   5.722
11875TIP3    H135570   8.750   5.544   5.694
11875TIP3    H235571   8.667   5.510   5.814
11876TIP3   OH235572   8.300   4.953   5.781
11876TIP3    H135573   8.297   4.875   5.723
11876TIP3    H235574   8.255   5.021   5.726
11877TIP3   OH235575   8.297   4.741   5.596
11877TIP3    H135576   8.326   4.787   5.514
11877TIP3    H235577   8.203   4.722   5.575
11878TIP3   OH235578   8.333   5.278   5.466
11878TIP3    H135579   8.418   5.292   5.422
11878TIP3    H235580   8.275   5.341   5.417
11879TIP3   OH235581   8.891   5.257   5.796
11879TIP3    H135582   8.941   5.182   5.761
11879TIP3    H235583   8.957   5.328   5.794
11880TIP3   OH235584   8.910   5.482   5.539
11880TIP3    H135585   8.844   5.539   5.492
11880TIP3    H235586   8.991   5.516   5.496
11881TIP3   OH235587   8.185   5.060   6.018
11881TIP3    H135588   8.106   5.004   6.030
11881TIP3    H235589   8.209   5.040   5.925
11882TIP3   OH235590   8.419   4.504   5.666
11882TIP3    H135591   8.368   4.585   5.643
11882TIP3    H235592   8.352   4.434   5.652
11883TIP3   OH235593   8.562   4.992   5.878
11883TIP3    H135594   8.527   4.986   5.969
11883TIP3    H235595   8.478   4.978   5.830
11884TIP3   OH235596   8.799   4.954   5.726
11884TIP3    H135597   8.716   4.959   5.778
11884TIP3    H235598   8.861   4.918   5.794
11885TIP3   OH235599   8.979   4.875   5.916
11885TIP3    H135600   9.058   4.820   5.929
11885TIP3    H235601   9.000   4.954   5.969
11886TIP3   OH235602   8.011   4.845   6.071
11886TIP3    H135603   8.016   4.754   6.034
11886TIP3    H235604   8.050   4.831   6.159
11887TIP3   OH235605   8.521   4.513   5.920
11887TIP3    H135606   8.578   4.434   5.915
11887TIP3    H235607   8.480   4.512   5.831
11888TIP3   OH235608   8.587   4.726   6.080
11888TIP3    H135609   8.569   4.657   6.013
11888TIP3    H235610   8.513   4.788   6.067
11889TIP3   OH235611   7.810   5.958   4.172
11889TIP3    H135612   7.906   5.948   4.154
11889TIP3    H235613   7.786   6.015   4.096
11890TIP3   OH235614   7.291   5.342   4.389
11890TIP3    H135615   7.386   5.365   4.377
11890TIP3    H235616   7.287   5.253   4.349
11891TIP3   OH235617   7.192   5.946   4.810
11891TIP3    H135618   7.129   5.882   4.771
11891TIP3    H235619   7.243   5.887   4.870
11892TIP3   OH235620   7.343   5.802   4.989
11892TIP3    H135621   7.328   5.733   5.057
11892TIP3    H235622   7.389   5.870   5.041
11893TIP3   OH235623   9.001   5.961   5.088
11893TIP3    H135624   8.935   6.006   5.143
11893TIP3    H235625   8.942   5.918   5.021
11894TIP3   OH235626   8.876   5.103   4.609
11894TIP3    H135627   8.967   5.065   4.620
11894TIP3    H235628   8.869   5.152   4.693
11895TIP3   OH235629   7.745   4.897   6.043
11895TIP3    H135630   7.843   4.891   6.043
11895TIP3    H235631   7.722   4.809   6.079
11896TIP3   OH235632   7.703   4.595   5.386
11896TIP3    H135633   7.766   4.520   5.386
11896TIP3    H235634   7.764   4.669   5.369
11897TIP3   OH235635   8.663   6.069   4.444
11897TIP3    H135636   8.704   6.065   4.355
11897TIP3    H235637   8.708   6.144   4.484
11898TIP3   OH235638   7.714   4.443   5.758
11898TIP3    H135639   7.662   4.440   5.840
11898TIP3    H235640   7.649   4.482   5.697
11899TIP3   OH235641   7.752   5.813   5.808
11899TIP3    H135642   7.663   5.855   5.801
11899TIP3    H235643   7.782   5.849   5.893
11900TIP3   OH235644   7.927   5.912   5.382
11900TIP3    H135645   7.881   5.987   5.340
11900TIP3    H235646   8.014   5.922   5.337
11901TIP3   OH235647   7.607   6.155   5.417
11901TIP3    H135648   7.516   6.186   5.396
11901TIP3    H235649   7.617   6.192   5.506
11902TIP3   OH235650   7.835   6.152   5.269
11902TIP3    H135651   7.756   6.163   5.326
11902TIP3    H235652   7.799   6.173   5.182
11903TIP3   OH235653   8.256   6.160   5.064
11903TIP3    H135654   8.234   6.179   4.971
11903TIP3    H235655   8.272   6.250   5.100
11904TIP3   OH235656   8.520   6.095   5.130
11904TIP3    H135657   8.433   6.119   5.095
11904TIP3    H235658   8.575   6.168   5.094
11905TIP3   OH235659   8.659   6.296   5.006
11905TIP3    H135660   8.700   6.383   5.010
11905TIP3    H235661   8.723   6.243   4.955
11906TIP3   OH235662   7.524   5.971   5.145
11906TIP3    H135663   7.542   5.939   5.237
11906TIP3    H235664   7.590   5.916   5.096
11907TIP3   OH235665   7.707   5.824   5.013
11907TIP3    H135666   7.724   5.740   5.061
11907TIP3    H235667   7.799   5.860   5.009
11908TIP3   OH235668   7.965   5.915   5.024
11908TIP3    H135669   8.008   5.833   4.997
11908TIP3    H235670   8.025   5.945   5.094
11909TIP3   OH235671   8.508   4.544   5.057
11909TIP3    H135672   8.495   4.491   5.137
11909TIP3    H235673   8.606   4.540   5.046
11910TIP3   OH235674   7.806   4.282   5.111
11910TIP3    H135675   7.715   4.248   5.123
11910TIP3    H235676   7.856   4.198   5.110
11911TIP3   OH235677   8.246   4.322   4.997
11911TIP3    H135678   8.298   4.367   4.928
11911TIP3    H235679   8.282   4.361   5.077
11912TIP3   OH235680   8.762   4.449   4.978
11912TIP3    H135681   8.783   4.431   4.886
11912TIP3    H235682   8.759   4.360   5.017
11913TIP3   OH235683   7.306   5.734   4.544
11913TIP3    H135684   7.222   5.700   4.509
11913TIP3    H235685   7.298   5.827   4.518
11914TIP3   OH235686   7.703   4.342   4.558
11914TIP3    H135687   7.729   4.258   4.512
11914TIP3    H235688   7.795   4.377   4.573
11915TIP3   OH235689   8.214   4.494   4.623
11915TIP3    H135690   8.280   4.452   4.683
11915TIP3    H235691   8.233   4.588   4.646
11916TIP3   OH235692   8.075   5.912   4.118
11916TIP3    H135693   8.164   5.937   4.085
11916TIP3    H235694   8.058   5.834   4.061
11917TIP3   OH235695   8.798   6.051   4.209
11917TIP3    H135696   8.780   5.958   4.185
11917TIP3    H235697   8.801   6.095   4.123
11918TIP3   OH235698   8.010   4.569   6.006
11918TIP3    H135699   7.974   4.497   6.063
11918TIP3    H235700   8.104   4.568   6.034
11919TIP3   OH235701   8.261   4.568   6.125
11919TIP3    H135702   8.345   4.541   6.083
11919TIP3    H235703   8.249   4.496   6.190
11920TIP3   OH235704   7.381   5.747   4.177
11920TIP3    H135705   7.392   5.774   4.269
11920TIP3    H235706   7.469   5.706   4.158
11921TIP3   OH235707   0.949   6.085   6.371
11921TIP3    H135708   0.915   6.176   6.372
11921TIP3    H235709   0.878   6.040   6.322
11922TIP3   OH235710   0.969   6.067   6.740
11922TIP3    H135711   0.988   6.046   6.833
11922TIP3    H235712   0.913   5.992   6.714
11923TIP3   OH235713   1.192   6.387   6.437
11923TIP3    H135714   1.178   6.323   6.508
11923TIP3    H235715   1.220   6.466   6.487
11924TIP3   OH235716   0.892   6.876   6.436
11924TIP3    H135717   0.938   6.792   6.422
11924TIP3    H235718   0.822   6.848   6.498
11925TIP3   OH235719   0.771   6.270   6.827
11925TIP3    H135720   0.799   6.207   6.759
11925TIP3    H235721   0.853   6.322   6.837
11926TIP3   OH235722   1.761   5.629   6.800
11926TIP3    H135723   1.790   5.713   6.842
11926TIP3    H235724   1.784   5.646   6.707
11927TIP3   OH235725   1.157   5.810   6.836
11927TIP3    H135726   1.198   5.724   6.854
11927TIP3    H235727   1.125   5.796   6.744
11928TIP3   OH235728   1.192   5.564   6.419
11928TIP3    H135729   1.263   5.549   6.486
11928TIP3    H235730   1.245   5.599   6.346
11929TIP3   OH235731   1.833   5.838   6.971
11929TIP3    H135732   1.749   5.884   6.950
11929TIP3    H235733   1.852   5.873   7.059
11930TIP3   OH235734   0.816   6.312   6.253
11930TIP3    H135735   0.802   6.274   6.165
11930TIP3    H235736   0.886   6.377   6.236
11931TIP3   OH235737   1.397   5.568   6.597
11931TIP3    H135738   1.380   5.524   6.681
11931TIP3    H235739   1.449   5.646   6.625
11932TIP3   OH235740   1.259   6.628   6.596
11932TIP3    H135741   1.170   6.621   6.636
11932TIP3    H235742   1.253   6.718   6.556
11933TIP3   OH235743   1.553   5.528   6.965
11933TIP3    H135744   1.466   5.555   6.932
11933TIP3    H235745   1.614   5.562   6.896
11934TIP3   OH235746   0.852   5.162   6.942
11934TIP3    H135747   0.841   5.066   6.959
11934TIP3    H235748   0.806   5.199   7.019
11935TIP3   OH235749   0.955   6.654   6.259
11935TIP3    H135750   1.005   6.572   6.238
11935TIP3    H235751   1.018   6.722   6.227
11936TIP3   OH235752   1.081   6.425   6.186
11936TIP3    H135753   1.115   6.359   6.122
11936TIP3    H235754   1.134   6.405   6.267
11937TIP3   OH235755   1.484   6.539   6.948
11937TIP3    H135756   1.473   6.463   6.887
11937TIP3    H235757   1.467   6.615   6.888
11938TIP3   OH235758   0.779   5.951   6.208
11938TIP3    H135759   0.697   5.900   6.228
11938TIP3    H235760   0.795   5.932   6.114
11939TIP3   OH235761   0.753   5.728   5.918
11939TIP3    H135762   0.827   5.779   5.957
11939TIP3    H235763   0.803   5.661   5.867
11940TIP3   OH235764   1.680   6.181   6.793
11940TIP3    H135765   1.597   6.232   6.796
11940TIP3    H235766   1.712   6.205   6.703
11941TIP3   OH235767   1.126   6.016   6.174
11941TIP3    H135768   1.073   6.040   6.254
11941TIP3    H235769   1.211   5.992   6.216
11942TIP3   OH235770   1.360   6.055   7.091
11942TIP3    H135771   1.359   6.138   7.143
11942TIP3    H235772   1.275   6.062   7.044
11943TIP3   OH235773   1.019   6.622   6.713
11943TIP3    H135774   0.992   6.710   6.748
11943TIP3    H235775   0.999   6.561   6.786
11944TIP3   OH235776   0.968   5.874   6.000
11944TIP3    H135777   1.021   5.936   6.055
11944TIP3    H235778   0.996   5.899   5.909
11945TIP3   OH235779   1.476   5.117   6.046
11945TIP3    H135780   1.397   5.135   6.101
11945TIP3    H235781   1.490   5.204   6.004
11946TIP3   OH235782   1.290   6.482   5.599
11946TIP3    H135783   1.295   6.578   5.582
11946TIP3    H235784   1.382   6.454   5.577
11947TIP3   OH235785   1.730   6.888   6.994
11947TIP3    H135786   1.725   6.791   7.009
11947TIP3    H235787   1.646   6.915   7.037
11948TIP3   OH235788   0.793   6.709   5.710
11948TIP3    H135789   0.854   6.636   5.685
11948TIP3    H235790   0.807   6.715   5.807
11949TIP3   OH235791   0.839   6.754   5.992
11949TIP3    H135792   0.773   6.760   6.063
11949TIP3    H235793   0.919   6.735   6.044
11950TIP3   OH235794   1.611   6.016   7.271
11950TIP3    H135795   1.529   6.028   7.219
11950TIP3    H235796   1.627   5.920   7.258
11951TIP3   OH235797   1.152   5.365   7.270
11951TIP3    H135798   1.220   5.337   7.335
11951TIP3    H235799   1.068   5.346   7.317
11952TIP3   OH235800   1.379   5.792   7.189
11952TIP3    H135801   1.329   5.789   7.274
11952TIP3    H235802   1.357   5.881   7.154
11953TIP3   OH235803   1.040   5.917   5.745
11953TIP3    H135804   1.004   5.898   5.656
11953TIP3    H235805   1.123   5.962   5.721
11954TIP3   OH235806   0.744   5.305   6.023
11954TIP3    H135807   0.732   5.302   6.121
11954TIP3    H235808   0.713   5.214   6.003
11955TIP3   OH235809   0.919   5.745   6.341
11955TIP3    H135810   0.868   5.818   6.302
11955TIP3    H235811   0.967   5.709   6.264
11956TIP3   OH235812   1.113   6.002   7.411
11956TIP3    H135813   1.088   5.931   7.473
11956TIP3    H235814   1.208   6.012   7.431
11957TIP3   OH235815   1.069   5.762   6.578
11957TIP3    H135816   1.009   5.793   6.507
11957TIP3    H235817   1.104   5.683   6.532
11958TIP3   OH235818   1.078   6.009   7.000
11958TIP3    H135819   1.114   5.941   6.938
11958TIP3    H235820   1.050   5.950   7.074
11959TIP3   OH235821   0.762   5.465   6.660
11959TIP3    H135822   0.671   5.492   6.683
11959TIP3    H235823   0.810   5.479   6.743
11960TIP3   OH235824   1.242   5.547   6.876
11960TIP3    H135825   1.209   5.562   6.967
11960TIP3    H235826   1.174   5.485   6.843
11961TIP3   OH235827   1.421   7.231   7.053
11961TIP3    H135828   1.406   7.245   6.958
11961TIP3    H235829   1.438   7.322   7.082
11962TIP3   OH235830   0.846   5.789   6.768
11962TIP3    H135831   0.920   5.760   6.714
11962TIP3    H235832   0.863   5.747   6.854
11963TIP3   OH235833   0.840   5.686   7.050
11963TIP3    H135834   0.774   5.758   7.047
11963TIP3    H235835   0.911   5.731   7.101
11964TIP3   OH235836   1.446   6.325   6.780
11964TIP3    H135837   1.472   6.377   6.700
11964TIP3    H235838   1.363   6.282   6.751
11965TIP3   OH235839   1.000   5.403   6.010
11965TIP3    H135840   0.903   5.386   6.020
11965TIP3    H235841   1.010   5.494   6.045
11966TIP3   OH235842   0.932   6.409   7.148
11966TIP3    H135843   0.972   6.410   7.235
11966TIP3    H235844   0.883   6.494   7.146
11967TIP3   OH235845   1.073   5.646   6.120
11967TIP3    H135846   1.169   5.653   6.139
11967TIP3    H235847   1.056   5.729   6.071
11968TIP3   OH235848   0.680   6.243   5.987
11968TIP3    H135849   0.622   6.321   5.987
11968TIP3    H235850   0.625   6.179   6.035
11969TIP3   OH235851   0.896   6.120   7.534
11969TIP3    H135852   0.834   6.075   7.474
11969TIP3    H235853   0.981   6.098   7.491
11970TIP3   OH235854   1.107   6.656   7.047
11970TIP3    H135855   1.012   6.671   7.048
11970TIP3    H235856   1.135   6.713   7.122
11971TIP3   OH235857   1.511   5.744   5.956
11971TIP3    H135858   1.450   5.700   5.892
11971TIP3    H235859   1.510   5.834   5.916
11972TIP3   OH235860   1.736   6.598   7.034
11972TIP3    H135861   1.639   6.593   7.026
11972TIP3    H235862   1.762   6.568   6.944
11973TIP3   OH235863   1.209   6.560   5.858
11973TIP3    H135864   1.202   6.485   5.917
11973TIP3    H235865   1.235   6.518   5.774
11974TIP3   OH235866   1.219   6.187   6.694
11974TIP3    H135867   1.126   6.160   6.708
11974TIP3    H235868   1.253   6.107   6.648
11975TIP3   OH235869   1.010   6.388   6.884
11975TIP3    H135870   0.998   6.397   6.981
11975TIP3    H235871   1.099   6.349   6.879
11976TIP3   OH235872   0.982   6.286   5.763
11976TIP3    H135873   1.024   6.265   5.849
11976TIP3    H235874   0.892   6.254   5.776
11977TIP3   OH235875   1.255   6.908   6.919
11977TIP3    H135876   1.169   6.862   6.914
11977TIP3    H235877   1.237   6.985   6.860
11978TIP3   OH235878   1.311   6.760   5.579
11978TIP3    H135879   1.354   6.840   5.544
11978TIP3    H235880   1.228   6.801   5.613
11979TIP3   OH235881   1.135   6.226   5.995
11979TIP3    H135882   1.126   6.151   6.057
11979TIP3    H235883   1.230   6.216   5.971
11980TIP3   OH235884   1.168   5.605   7.137
11980TIP3    H135885   1.253   5.640   7.169
11980TIP3    H235886   1.159   5.522   7.188
11981TIP3   OH235887   1.065   5.344   6.300
11981TIP3    H135888   1.035   5.371   6.212
11981TIP3    H235889   1.096   5.428   6.339
11982TIP3   OH235890   0.738   5.541   6.397
11982TIP3    H135891   0.803   5.614   6.388
11982TIP3    H235892   0.738   5.527   6.493
11983TIP3   OH235893   1.017   5.841   7.203
11983TIP3    H135894   1.047   5.896   7.279
11983TIP3    H235895   1.074   5.761   7.212
11984TIP3   OH235896   0.892   5.254   6.518
11984TIP3    H135897   0.863   5.337   6.561
11984TIP3    H235898   0.941   5.288   6.441
11985TIP3   OH235899   1.646   5.750   7.190
11985TIP3    H135900   1.548   5.748   7.195
11985TIP3    H235901   1.659   5.708   7.104
11986TIP3   OH235902   1.299   5.943   6.575
11986TIP3    H135903   1.221   5.887   6.590
11986TIP3    H235904   1.369   5.895   6.624
11987TIP3   OH235905   1.271   6.895   6.525
11987TIP3    H135906   1.228   6.945   6.451
11987TIP3    H235907   1.365   6.916   6.504
11988TIP3   OH235908   1.155   6.800   7.275
11988TIP3    H135909   1.148   6.739   7.351
11988TIP3    H235910   1.234   6.853   7.299
11989TIP3   OH235911   0.942   6.508   5.590
11989TIP3    H135912   0.982   6.443   5.651
11989TIP3    H235913   1.000   6.500   5.511
11990TIP3   OH235914   0.681   6.191   5.709
11990TIP3    H135915   0.669   6.202   5.805
11990TIP3    H235916   0.671   6.094   5.700
11991TIP3   OH235917   1.266   6.435   7.083
11991TIP3    H135918   1.344   6.475   7.040
11991TIP3    H235919   1.200   6.507   7.068
11992TIP3   OH235920   0.492   5.697   6.013
11992TIP3    H135921   0.472   5.694   5.918
11992TIP3    H235922   0.590   5.700   6.009
11993TIP3   OH235923   1.133   6.361   7.487
11993TIP3    H135924   1.207   6.335   7.431
11993TIP3    H235925   1.133   6.288   7.552
11994TIP3   OH235926   1.271   6.011   5.629
11994TIP3    H135927   1.254   5.971   5.541
11994TIP3    H235928   1.244   6.103   5.608
11995TIP3   OH235929   0.717   5.478   7.196
11995TIP3    H135930   0.765   5.546   7.146
11995TIP3    H235931   0.677   5.530   7.269
11996TIP3   OH235932   0.830   6.127   7.102
11996TIP3    H135933   0.924   6.110   7.077
11996TIP3    H235934   0.815   6.210   7.052
11997TIP3   OH235935   1.374   6.020   7.521
11997TIP3    H135936   1.426   5.940   7.536
11997TIP3    H235937   1.441   6.081   7.487
11998TIP3   OH235938   1.397   6.281   7.259
11998TIP3    H135939   1.340   6.339   7.204
11998TIP3    H235940   1.486   6.305   7.223
11999TIP3   OH235941   0.894   5.294   7.336
11999TIP3    H135942   0.832   5.366   7.310
11999TIP3    H235943   0.838   5.218   7.313
12000TIP3   OH235944   1.018   5.799   7.571
12000TIP3    H135945   1.046   5.793   7.664
12000TIP3    H235946   0.934   5.751   7.574
12001TIP3   OH235947   1.251   5.740   7.420
12001TIP3    H135948   1.178   5.739   7.484
12001TIP3    H235949   1.327   5.713   7.476
12002TIP3   OH235950   1.480   5.690   7.571
12002TIP3    H135951   1.491   5.593   7.586
12002TIP3    H235952   1.473   5.725   7.662
12003TIP3   OH235953   0.991   5.311   7.595
12003TIP3    H135954   1.045   5.230   7.594
12003TIP3    H235955   0.943   5.303   7.510
12004TIP3   OH235956   1.058   5.524   7.746
12004TIP3    H135957   1.042   5.444   7.690
12004TIP3    H235958   0.968   5.562   7.749
12005TIP3   OH235959   1.527   6.984   6.485
12005TIP3    H135960   1.549   7.019   6.573
12005TIP3    H235961   1.585   7.035   6.427
12006TIP3   OH235962   1.553   7.006   6.763
12006TIP3    H135963   1.510   6.918   6.759
12006TIP3    H235964   1.627   6.986   6.822
12007TIP3   OH235965   1.604   6.685   7.332
12007TIP3    H135966   1.526   6.704   7.387
12007TIP3    H235967   1.649   6.772   7.330
12008TIP3   OH235968   1.404   6.198   5.957
12008TIP3    H135969   1.460   6.272   5.924
12008TIP3    H235970   1.458   6.165   6.032
12009TIP3   OH235971   1.542   6.067   6.160
12009TIP3    H135972   1.476   6.027   6.220
12009TIP3    H235973   1.608   6.105   6.222
12010TIP3   OH235974   1.599   6.461   6.595
12010TIP3    H135975   1.649   6.395   6.544
12010TIP3    H235976   1.597   6.537   6.532
12011TIP3   OH235977   1.432   6.753   6.783
12011TIP3    H135978   1.361   6.802   6.831
12011TIP3    H235979   1.381   6.711   6.710
12012TIP3   OH235980   1.476   5.974   5.808
12012TIP3    H135981   1.406   5.980   5.739
12012TIP3    H235982   1.451   6.052   5.862
12013TIP3   OH235983   1.350   5.644   5.761
12013TIP3    H135984   1.308   5.692   5.688
12013TIP3    H235985   1.323   5.552   5.743
12014TIP3   OH235986   1.352   5.927   6.306
12014TIP3    H135987   1.362   5.831   6.301
12014TIP3    H235988   1.338   5.941   6.403
12015TIP3   OH235989   1.644   6.351   7.165
12015TIP3    H135990   1.716   6.285   7.153
12015TIP3    H235991   1.667   6.419   7.100
12016TIP3   OH235992   1.826   6.151   7.174
12016TIP3    H135993   1.752   6.102   7.216
12016TIP3    H235994   1.900   6.088   7.192
12017TIP3   OH235995   1.294   5.375   5.732
12017TIP3    H135996   1.367   5.349   5.792
12017TIP3    H235997   1.217   5.327   5.767
12018TIP3   OH235998   1.350   5.641   6.198
12018TIP3    H135999   1.393   5.553   6.212
12018TIP3    H236000   1.409   5.678   6.129
12019TIP3   OH236001   1.511   5.811   6.697
12019TIP3    H136002   1.596   5.836   6.655
12019TIP3    H236003   1.526   5.850   6.786
12020TIP3   OH236004   1.583   5.960   6.926
12020TIP3    H136005   1.506   5.994   6.975
12020TIP3    H236006   1.616   6.041   6.881
12021TIP3   OH236007   2.034   5.553   7.483
12021TIP3    H136008   2.094   5.488   7.441
12021TIP3    H236009   2.003   5.605   7.405
12022TIP3   OH236010   1.462   5.391   6.235
12022TIP3    H136011   1.509   5.377   6.320
12022TIP3    H236012   1.398   5.316   6.237
12023TIP3   OH236013   1.900   5.687   7.287
12023TIP3    H136014   1.814   5.730   7.303
12023TIP3    H236015   1.870   5.613   7.230
12024TIP3   OH236016   1.550   5.323   5.861
12024TIP3    H136017   1.634   5.274   5.866
12024TIP3    H236018   1.586   5.414   5.868
12025TIP3   OH236019   1.106   6.840   6.138
12025TIP3    H136020   1.163   6.842   6.059
12025TIP3    H236021   1.137   6.918   6.187
12026TIP3   OH236022   1.031   7.071   7.008
12026TIP3    H136023   1.106   7.027   7.049
12026TIP3    H236024   1.031   7.158   7.052
12027TIP3   OH236025   1.802   5.450   7.168
12027TIP3    H136026   1.712   5.440   7.132
12027TIP3    H236027   1.836   5.358   7.158
12028TIP3   OH236028   0.974   6.886   6.792
12028TIP3    H136029   0.894   6.916   6.838
12028TIP3    H236030   1.016   6.972   6.775
12029TIP3   OH236031   1.213   7.090   6.716
12029TIP3    H136032   1.178   7.166   6.667
12029TIP3    H236033   1.224   7.023   6.645
12030TIP3   OH236034   1.023   5.369   6.805
12030TIP3    H136035   0.968   5.296   6.837
12030TIP3    H236036   1.083   5.325   6.742
12031TIP3   OH236037   1.527   5.244   6.689
12031TIP3    H136038   1.563   5.299   6.615
12031TIP3    H236039   1.432   5.265   6.684
12032TIP3   OH236040   1.624   5.345   6.453
12032TIP3    H136041   1.699   5.293   6.417
12032TIP3    H236042   1.659   5.436   6.440
12033TIP3   OH236043   0.722   5.098   6.686
12033TIP3    H136044   0.769   5.153   6.621
12033TIP3    H236045   0.753   5.136   6.769
12034TIP3   OH236046   1.246   5.255   6.665
12034TIP3    H136047   1.237   5.214   6.579
12034TIP3    H236048   1.233   5.178   6.725
12035TIP3   OH236049   1.277   5.179   6.229
12035TIP3    H136050   1.196   5.228   6.251
12035TIP3    H236051   1.259   5.094   6.276
12036TIP3   OH236052   0.722   5.288   6.289
12036TIP3    H136053   0.710   5.236   6.370
12036TIP3    H236054   0.711   5.379   6.323
12037TIP3   OH236055   1.252   6.825   5.904
12037TIP3    H136056   1.240   6.728   5.893
12037TIP3    H236057   1.206   6.858   5.825
12038TIP3   OH236058   1.541   5.419   7.600
12038TIP3    H136059   1.560   5.388   7.691
12038TIP3    H236060   1.629   5.412   7.559
12039TIP3   OH236061   1.480   6.963   7.080
12039TIP3    H136062   1.402   6.928   7.031
12039TIP3    H236063   1.462   7.059   7.071
12040TIP3   OH236064   2.744   6.343   5.857
12040TIP3    H136065   2.712   6.433   5.834
12040TIP3    H236066   2.670   6.290   5.823
12041TIP3   OH236067   2.746   6.343   6.243
12041TIP3    H136068   2.778   6.314   6.330
12041TIP3    H236069   2.703   6.263   6.210
12042TIP3   OH236070   2.040   6.234   6.608
12042TIP3    H136071   2.072   6.165   6.670
12042TIP3    H236072   2.120   6.285   6.594
12043TIP3   OH236073   2.989   6.646   5.923
12043TIP3    H136074   2.969   6.576   5.987
12043TIP3    H236075   3.018   6.719   5.980
12044TIP3   OH236076   2.016   6.646   6.330
12044TIP3    H136077   2.006   6.549   6.330
12044TIP3    H236078   2.112   6.655   6.318
12045TIP3   OH236079   1.719   5.842   6.112
12045TIP3    H136080   1.677   5.928   6.130
12045TIP3    H236081   1.646   5.797   6.066
12046TIP3   OH236082   1.777   6.135   6.291
12046TIP3    H136083   1.829   6.058   6.323
12046TIP3    H236084   1.837   6.175   6.226
12047TIP3   OH236085   2.641   7.108   5.942
12047TIP3    H136086   2.683   7.037   5.889
12047TIP3    H236087   2.626   7.062   6.026
12048TIP3   OH236088   2.539   6.568   6.290
12048TIP3    H136089   2.578   6.492   6.243
12048TIP3    H236090   2.622   6.614   6.315
12049TIP3   OH236091   3.558   5.886   6.286
12049TIP3    H136092   3.587   5.970   6.326
12049TIP3    H236093   3.580   5.901   6.193
12050TIP3   OH236094   2.953   6.066   6.319
12050TIP3    H136095   2.997   5.981   6.339
12050TIP3    H236096   2.921   6.050   6.228
12051TIP3   OH236097   2.294   5.727   6.284
12051TIP3    H136098   2.275   5.800   6.222
12051TIP3    H236099   2.245   5.654   6.241
12052TIP3   OH236100   2.988   5.821   5.905
12052TIP3    H136101   3.060   5.805   5.971
12052TIP3    H236102   3.041   5.854   5.830
12053TIP3   OH236103   1.925   5.928   6.394
12053TIP3    H136104   2.009   5.911   6.441
12053TIP3    H236105   1.940   5.874   6.313
12054TIP3   OH236106   2.364   6.126   6.192
12054TIP3    H136107   2.459   6.102   6.201
12054TIP3    H236108   2.327   6.043   6.156
12055TIP3   OH236109   3.631   6.096   6.457
12055TIP3    H136110   3.546   6.141   6.437
12055TIP3    H236111   3.646   6.126   6.548
12056TIP3   OH236112   2.288   5.711   6.721
12056TIP3    H136113   2.229   5.748   6.652
12056TIP3    H236114   2.235   5.729   6.801
12057TIP3   OH236115   2.636   6.563   5.725
12057TIP3    H136116   2.587   6.542   5.645
12057TIP3    H236117   2.589   6.645   5.754
12058TIP3   OH236118   2.395   6.487   6.511
12058TIP3    H136119   2.335   6.556   6.547
12058TIP3    H236120   2.437   6.534   6.436
12059TIP3   OH236121   3.193   5.825   6.083
12059TIP3    H136122   3.180   5.778   6.166
12059TIP3    H236123   3.245   5.902   6.111
12060TIP3   OH236124   2.161   5.825   6.503
12060TIP3    H136125   2.223   5.898   6.527
12060TIP3    H236126   2.209   5.785   6.428
12061TIP3   OH236127   2.226   6.683   6.613
12061TIP3    H136128   2.199   6.769   6.575
12061TIP3    H236129   2.146   6.666   6.667
12062TIP3   OH236130   1.584   6.386   5.869
12062TIP3    H136131   1.642   6.355   5.796
12062TIP3    H236132   1.646   6.444   5.916
12063TIP3   OH236133   3.057   6.890   6.089
12063TIP3    H136134   2.967   6.879   6.129
12063TIP3    H236135   3.046   6.975   6.043
12064TIP3   OH236136   3.349   5.786   6.452
12064TIP3    H136137   3.261   5.812   6.419
12064TIP3    H236138   3.408   5.819   6.381
12065TIP3   OH236139   2.640   5.426   6.434
12065TIP3    H136140   2.626   5.331   6.454
12065TIP3    H236141   2.564   5.465   6.482
12066TIP3   OH236142   2.756   6.934   5.762
12066TIP3    H136143   2.805   6.851   5.744
12066TIP3    H236144   2.819   6.998   5.720
12067TIP3   OH236145   2.900   6.719   5.672
12067TIP3    H136146   2.855   6.640   5.639
12067TIP3    H236147   2.939   6.684   5.756
12068TIP3   OH236148   3.282   6.798   6.432
12068TIP3    H136149   3.269   6.720   6.373
12068TIP3    H236150   3.264   6.872   6.371
12069TIP3   OH236151   2.577   6.192   5.695
12069TIP3    H136152   2.495   6.243   5.678
12069TIP3    H236153   2.617   6.190   5.606
12070TIP3   OH236154   2.531   5.980   5.401
12070TIP3    H136155   2.597   6.032   5.451
12070TIP3    H236156   2.590   5.917   5.355
12071TIP3   OH236157   3.477   6.439   6.280
12071TIP3    H136158   3.392   6.489   6.283
12071TIP3    H236159   3.507   6.462   6.190
12072TIP3   OH236160   2.922   6.277   5.659
12072TIP3    H136161   2.867   6.300   5.738
12072TIP3    H236162   3.006   6.252   5.703
12073TIP3   OH236163   3.155   6.312   6.578
12073TIP3    H136164   3.152   6.397   6.627
12073TIP3    H236165   3.069   6.315   6.532
12074TIP3   OH236166   2.153   6.272   6.081
12074TIP3    H136167   2.111   6.218   6.011
12074TIP3    H236168   2.229   6.217   6.108
12075TIP3   OH236169   2.280   6.685   6.224
12075TIP3    H136170   2.257   6.654   6.135
12075TIP3    H236171   2.368   6.645   6.239
12076TIP3   OH236172   2.287   6.244   6.435
12076TIP3    H136173   2.319   6.218   6.346
12076TIP3    H236174   2.332   6.330   6.450
12077TIP3   OH236175   2.816   6.882   6.211
12077TIP3    H136176   2.802   6.961   6.266
12077TIP3    H236177   2.799   6.808   6.273
12078TIP3   OH236178   2.428   6.800   6.759
12078TIP3    H136179   2.366   6.862   6.803
12078TIP3    H236180   2.365   6.747   6.706
12079TIP3   OH236181   2.760   6.133   5.487
12079TIP3    H136182   2.818   6.194   5.537
12079TIP3    H236183   2.787   6.155   5.394
12080TIP3   OH236184   2.185   6.352   6.866
12080TIP3    H136185   2.188   6.442   6.904
12080TIP3    H236186   2.089   6.334   6.873
12081TIP3   OH236187   2.510   6.807   5.766
12081TIP3    H136188   2.588   6.865   5.773
12081TIP3    H236189   2.445   6.862   5.720
12082TIP3   OH236190   2.223   6.968   6.845
12082TIP3    H136191   2.188   6.971   6.754
12082TIP3    H236192   2.142   6.944   6.897
12083TIP3   OH236193   3.279   5.373   5.539
12083TIP3    H136194   3.196   5.395   5.586
12083TIP3    H236195   3.293   5.454   5.486
12084TIP3   OH236196   2.012   6.138   5.876
12084TIP3    H136197   1.963   6.202   5.820
12084TIP3    H236198   1.955   6.061   5.869
12085TIP3   OH236199   3.078   6.739   5.086
12085TIP3    H136200   3.087   6.836   5.070
12085TIP3    H236201   3.170   6.709   5.073
12086TIP3   OH236202   1.800   6.500   6.791
12086TIP3    H136203   1.733   6.481   6.722
12086TIP3    H236204   1.838   6.412   6.809
12087TIP3   OH236205   1.656   6.687   6.429
12087TIP3    H136206   1.752   6.690   6.416
12087TIP3    H236207   1.640   6.770   6.476
12088TIP3   OH236208   3.518   7.147   6.480
12088TIP3    H136209   3.518   7.050   6.493
12088TIP3    H236210   3.434   7.171   6.526
12089TIP3   OH236211   2.625   6.927   6.616
12089TIP3    H136212   2.622   7.020   6.647
12089TIP3    H236213   2.552   6.887   6.669
12090TIP3   OH236214   2.392   7.061   5.564
12090TIP3    H136215   2.335   7.037   5.490
12090TIP3    H236216   2.355   7.146   5.594
12091TIP3   OH236217   1.827   6.910   5.952
12091TIP3    H136218   1.871   6.899   6.039
12091TIP3    H236219   1.780   6.824   5.945
12092TIP3   OH236220   2.585   6.960   5.204
12092TIP3    H136221   2.644   6.889   5.169
12092TIP3    H236222   2.620   6.970   5.296
12093TIP3   OH236223   2.641   7.008   5.472
12093TIP3    H136224   2.552   7.020   5.513
12093TIP3    H236225   2.688   6.964   5.544
12094TIP3   OH236226   3.407   6.273   6.755
12094TIP3    H136227   3.325   6.283   6.705
12094TIP3    H236228   3.424   6.177   6.745
12095TIP3   OH236229   2.006   6.682   6.776
12095TIP3    H136230   2.053   6.665   6.859
12095TIP3    H236231   1.930   6.620   6.783
12096TIP3   OH236232   2.404   5.505   6.566
12096TIP3    H136233   2.316   5.475   6.536
12096TIP3    H236234   2.378   5.586   6.614
12097TIP3   OH236235   2.940   5.620   6.759
12097TIP3    H136236   3.010   5.591   6.822
12097TIP3    H236237   2.857   5.600   6.807
12098TIP3   OH236238   3.176   6.050   6.678
12098TIP3    H136239   3.124   6.048   6.762
12098TIP3    H236240   3.152   6.137   6.641
12099TIP3   OH236241   2.838   6.178   5.232
12099TIP3    H136242   2.803   6.154   5.144
12099TIP3    H236243   2.923   6.220   5.208
12100TIP3   OH236244   2.547   5.554   5.535
12100TIP3    H136245   2.513   5.549   5.627
12100TIP3    H236246   2.510   5.470   5.500
12101TIP3   OH236247   2.337   6.022   6.583
12101TIP3    H136248   2.286   6.042   6.664
12101TIP3    H236249   2.321   6.103   6.530
12102TIP3   OH236250   2.222   5.907   6.096
12102TIP3    H136251   2.128   5.886   6.113
12102TIP3    H236252   2.233   5.868   6.007
12103TIP3   OH236253   2.712   5.991   5.828
12103TIP3    H136254   2.661   6.063   5.783
12103TIP3    H236255   2.767   5.958   5.754
12104TIP3   OH236256   2.886   6.268   6.909
12104TIP3    H136257   2.863   6.196   6.971
12104TIP3    H236258   2.980   6.282   6.931
12105TIP3   OH236259   2.867   6.019   6.062
12105TIP3    H136260   2.804   6.046   5.991
12105TIP3    H236261   2.903   5.940   6.017
12106TIP3   OH236262   2.157   6.049   6.791
12106TIP3    H136263   2.184   6.114   6.857
12106TIP3    H236264   2.146   5.968   6.844
12107TIP3   OH236265   2.202   5.527   5.501
12107TIP3    H136266   2.195   5.527   5.598
12107TIP3    H236267   2.128   5.586   5.477
12108TIP3   OH236268   1.753   5.565   6.372
12108TIP3    H136269   1.821   5.604   6.431
12108TIP3    H236270   1.804   5.547   6.291
12109TIP3   OH236271   1.707   5.552   5.892
12109TIP3    H136272   1.755   5.586   5.814
12109TIP3    H236273   1.652   5.631   5.912
12110TIP3   OH236274   2.880   6.264   6.485
12110TIP3    H136275   2.912   6.193   6.425
12110TIP3    H236276   2.848   6.210   6.560
12111TIP3   OH236277   2.553   5.728   6.157
12111TIP3    H136278   2.472   5.728   6.211
12111TIP3    H236279   2.623   5.723   6.225
12112TIP3   OH236280   1.982   5.786   6.167
12112TIP3    H136281   1.889   5.793   6.135
12112TIP3    H236282   2.008   5.696   6.139
12113TIP3   OH236283   2.247   5.778   5.856
12113TIP3    H136284   2.340   5.796   5.834
12113TIP3    H236285   2.200   5.802   5.773
12114TIP3   OH236286   3.041   5.805   6.362
12114TIP3    H136287   3.007   5.819   6.453
12114TIP3    H236288   2.974   5.745   6.326
12115TIP3   OH236289   2.098   5.810   5.630
12115TIP3    H136290   2.026   5.771   5.577
12115TIP3    H236291   2.151   5.852   5.559
12116TIP3   OH236292   3.214   7.494   6.580
12116TIP3    H136293   3.210   7.517   6.486
12116TIP3    H236294   3.292   7.544   6.610
12117TIP3   OH236295   2.167   6.603   6.999
12117TIP3    H136296   2.247   6.633   7.047
12117TIP3    H236297   2.102   6.604   7.072
12118TIP3   OH236298   2.630   6.059   6.255
12118TIP3    H136299   2.703   6.020   6.205
12118TIP3    H236300   2.637   6.013   6.341
12119TIP3   OH236301   2.148   5.545   6.137
12119TIP3    H136302   2.115   5.466   6.185
12119TIP3    H236303   2.199   5.506   6.065
12120TIP3   OH236304   2.606   5.957   6.544
12120TIP3    H136305   2.516   5.992   6.558
12120TIP3    H236306   2.663   6.019   6.594
12121TIP3   OH236307   2.354   6.347   5.645
12121TIP3    H136308   2.282   6.281   5.631
12121TIP3    H236309   2.326   6.385   5.731
12122TIP3   OH236310   3.241   6.582   6.266
12122TIP3    H136311   3.265   6.632   6.185
12122TIP3    H236312   3.157   6.538   6.240
12123TIP3   OH236313   2.800   5.653   5.510
12123TIP3    H136314   2.703   5.635   5.515
12123TIP3    H236315   2.807   5.748   5.531
12124TIP3   OH236316   2.745   6.665   6.636
12124TIP3    H136317   2.770   6.646   6.727
12124TIP3    H236318   2.704   6.753   6.643
12125TIP3   OH236319   2.869   5.906   5.609
12125TIP3    H136320   2.965   5.912   5.622
12125TIP3    H236321   2.849   5.986   5.556
12126TIP3   OH236322   2.036   6.367   6.314
12126TIP3    H136323   2.073   6.341   6.227
12126TIP3    H236324   2.084   6.308   6.373
12127TIP3   OH236325   2.489   6.493   5.460
12127TIP3    H136326   2.441   6.578   5.465
12127TIP3    H236327   2.436   6.438   5.523
12128TIP3   OH236328   1.919   6.285   6.928
12128TIP3    H136329   1.934   6.271   7.023
12128TIP3    H236330   1.848   6.222   6.909
12129TIP3   OH236331   2.645   6.404   6.948
12129TIP3    H136332   2.583   6.345   6.902
12129TIP3    H236333   2.731   6.367   6.919
12130TIP3   OH236334   2.902   6.928   6.533
12130TIP3    H136335   2.806   6.922   6.546
12130TIP3    H236336   2.929   6.979   6.612
12131TIP3   OH236337   3.310   5.999   5.442
12131TIP3    H136338   3.248   5.955   5.379
12131TIP3    H236339   3.307   6.088   5.401
12132TIP3   OH236340   3.532   6.858   6.519
12132TIP3    H136341   3.435   6.850   6.512
12132TIP3    H236342   3.558   6.826   6.430
12133TIP3   OH236343   3.016   6.815   5.352
12133TIP3    H136344   2.986   6.746   5.413
12133TIP3    H236345   3.026   6.766   5.268
12134TIP3   OH236346   3.009   6.444   6.184
12134TIP3    H136347   2.915   6.420   6.197
12134TIP3    H236348   3.042   6.363   6.139
12135TIP3   OH236349   2.138   6.673   5.946
12135TIP3    H136350   2.131   6.752   5.890
12135TIP3    H236351   2.050   6.635   5.936
12136TIP3   OH236352   1.703   5.980   5.642
12136TIP3    H136353   1.735   6.073   5.640
12136TIP3    H236354   1.630   5.988   5.707
12137TIP3   OH236355   2.278   6.439   5.889
12137TIP3    H136356   2.242   6.528   5.904
12137TIP3    H236357   2.236   6.387   5.960
12138TIP3   OH236358   2.408   7.015   6.408
12138TIP3    H136359   2.450   7.087   6.358
12138TIP3    H236360   2.485   6.977   6.454
12139TIP3   OH236361   2.054   6.910   5.791
12139TIP3    H136362   1.970   6.916   5.840
12139TIP3    H236363   2.084   7.003   5.793
12140TIP3   OH236364   2.793   6.650   6.368
12140TIP3    H136365   2.783   6.648   6.466
12140TIP3    H236366   2.870   6.593   6.355
12141TIP3   OH236367   2.771   6.548   5.252
12141TIP3    H136368   2.825   6.521   5.329
12141TIP3    H236369   2.684   6.515   5.279
12142TIP3   OH236370   3.042   7.181   6.419
12142TIP3    H136371   2.963   7.124   6.414
12142TIP3    H236372   3.025   7.244   6.346
12143TIP3   OH236373   3.108   7.016   5.069
12143TIP3    H136374   3.146   7.091   5.020
12143TIP3    H236375   3.028   7.059   5.104
12144TIP3   OH236376   2.126   5.794   6.935
12144TIP3    H136377   2.029   5.794   6.945
12144TIP3    H236378   2.153   5.735   7.007
12145TIP3   OH236379   2.932   6.476   5.463
12145TIP3    H136380   2.920   6.411   5.536
12145TIP3    H236381   3.030   6.472   5.453
12146TIP3   OH236382   1.847   6.877   6.565
12146TIP3    H136383   1.901   6.806   6.601
12146TIP3    H236384   1.870   6.951   6.623
12147TIP3   OH236385   2.135   6.519   5.256
12147TIP3    H136386   2.152   6.429   5.222
12147TIP3    H236387   2.121   6.501   5.350
12148TIP3   OH236388   2.966   5.859   6.622
12148TIP3    H136389   3.049   5.895   6.658
12148TIP3    H236390   2.954   5.777   6.675
12149TIP3   OH236391   2.846   5.605   5.789
12149TIP3    H136392   2.832   5.626   5.694
12149TIP3    H236393   2.885   5.689   5.822
12150TIP3   OH236394   2.350   6.724   5.469
12150TIP3    H136395   2.260   6.735   5.507
12150TIP3    H236396   2.354   6.802   5.413
12151TIP3   OH236397   2.531   5.790   5.887
12151TIP3    H136398   2.595   5.862   5.869
12151TIP3    H236399   2.538   5.782   5.985
12152TIP3   OH236400   2.803   6.104   6.692
12152TIP3    H136401   2.829   6.155   6.771
12152TIP3    H236402   2.857   6.023   6.700
12153TIP3   OH236403   2.674   5.509   5.986
12153TIP3    H136404   2.666   5.588   6.043
12153TIP3    H236405   2.737   5.543   5.918
12154TIP3   OH236406   2.101   6.812   5.533
12154TIP3    H136407   2.062   6.884   5.481
12154TIP3    H236408   2.079   6.837   5.625
12155TIP3   OH236409   2.188   5.515   5.778
12155TIP3    H136410   2.188   5.606   5.813
12155TIP3    H236411   2.284   5.496   5.785
12156TIP3   OH236412   3.442   6.007   6.676
12156TIP3    H136413   3.344   6.006   6.683
12156TIP3    H236414   3.453   5.962   6.591
12157TIP3   OH236415   3.094   6.200   6.063
12157TIP3    H136416   3.018   6.141   6.073
12157TIP3    H236417   3.165   6.152   6.111
12158TIP3   OH236418   1.746   5.705   5.669
12158TIP3    H136419   1.759   5.802   5.667
12158TIP3    H236420   1.666   5.697   5.616
12159TIP3   OH236421   3.063   7.161   6.010
12159TIP3    H136422   3.020   7.208   5.935
12159TIP3    H236423   3.158   7.179   5.989
12160TIP3   OH236424   2.138   5.426   6.537
12160TIP3    H136425   2.110   5.391   6.450
12160TIP3    H236426   2.129   5.347   6.595
12161TIP3   OH236427   1.696   6.664   5.927
12161TIP3    H136428   1.608   6.678   5.961
12161TIP3    H236429   1.679   6.671   5.831
12162TIP3   OH236430   1.837   7.171   6.986
12162TIP3    H136431   1.925   7.173   7.028
12162TIP3    H236432   1.816   7.076   6.986
12163TIP3   OH236433   2.324   7.144   7.034
12163TIP3    H136434   2.416   7.116   7.037
12163TIP3    H236435   2.290   7.087   6.962
12164TIP3   OH236436   2.294   6.722   5.161
12164TIP3    H136437   2.238   6.653   5.204
12164TIP3    H236438   2.372   6.669   5.137
12165TIP3   OH236439   2.953   7.059   6.771
12165TIP3    H136440   2.947   6.988   6.839
12165TIP3    H236441   3.032   7.109   6.800
12166TIP3   OH236442   2.733   6.764   5.077
12166TIP3    H136443   2.769   6.697   5.138
12166TIP3    H236444   2.792   6.757   5.000
12167TIP3   OH236445   1.966   6.594   7.192
12167TIP3    H136446   1.980   6.498   7.197
12167TIP3    H236447   1.879   6.598   7.146
12168TIP3   OH236448   1.935   6.212   5.361
12168TIP3    H136449   1.936   6.247   5.452
12168TIP3    H236450   2.027   6.224   5.331
12169TIP3   OH236451   2.571   6.680   6.965
12169TIP3    H136452   2.530   6.701   6.879
12169TIP3    H236453   2.602   6.588   6.953
12170TIP3   OH236454   2.458   6.444   5.192
12170TIP3    H136455   2.460   6.454   5.290
12170TIP3    H236456   2.457   6.346   5.185
12171TIP3   OH236457   3.066   6.691   6.574
12171TIP3    H136458   3.141   6.734   6.529
12171TIP3    H236459   2.995   6.755   6.556
12172TIP3   OH236460   2.085   6.329   7.176
12172TIP3    H136461   2.163   6.283   7.143
12172TIP3    H236462   2.115   6.362   7.263
12173TIP3   OH236463   2.178   6.145   5.616
12173TIP3    H136464   2.122   6.112   5.687
12173TIP3    H236465   2.191   6.068   5.558
12174TIP3   OH236466   2.421   6.212   6.836
12174TIP3    H136467   2.343   6.270   6.836
12174TIP3    H236468   2.472   6.246   6.759
12175TIP3   OH236469   2.253   5.935   5.444
12175TIP3    H136470   2.227   5.949   5.351
12175TIP3    H236471   2.350   5.942   5.438
12176TIP3   OH236472   2.939   6.614   6.968
12176TIP3    H136473   3.014   6.581   6.917
12176TIP3    H236474   2.932   6.548   7.040
12177TIP3   OH236475   3.071   6.271   5.113
12177TIP3    H136476   3.052   6.226   5.028
12177TIP3    H236477   3.037   6.360   5.091
12178TIP3   OH236478   2.544   6.001   6.959
12178TIP3    H136479   2.545   5.923   6.901
12178TIP3    H236480   2.500   6.069   6.902
12179TIP3   OH236481   2.547   5.788   6.770
12179TIP3    H136482   2.575   5.829   6.685
12179TIP3    H236483   2.453   5.765   6.750
12180TIP3   OH236484   2.570   6.323   6.644
12180TIP3    H136485   2.655   6.334   6.599
12180TIP3    H236486   2.513   6.387   6.596
12181TIP3   OH236487   3.153   6.287   7.020
12181TIP3    H136488   3.200   6.203   7.029
12181TIP3    H236489   3.222   6.344   6.983
12182TIP3   OH236490   3.195   6.543   6.760
12182TIP3    H136491   3.138   6.598   6.701
12182TIP3    H236492   3.283   6.563   6.720
12183TIP3   OH236493   2.423   6.107   7.195
12183TIP3    H136494   2.355   6.037   7.208
12183TIP3    H236495   2.456   6.084   7.105
12184TIP3   OH236496   2.678   5.550   6.839
12184TIP3    H136497   2.628   5.631   6.815
12184TIP3    H236498   2.611   5.480   6.826
12185TIP3   OH236499   2.804   6.051   7.052
12185TIP3    H136500   2.788   6.036   7.147
12185TIP3    H236501   2.715   6.028   7.018
12186TIP3   OH236502   3.043   6.006   6.908
12186TIP3    H136503   2.968   6.004   6.971
12186TIP3    H236504   3.118   5.974   6.964
12187TIP3   OH236505   3.273   5.946   7.057
12187TIP3    H136506   3.286   5.850   7.072
12187TIP3    H236507   3.269   5.981   7.148
12188TIP3   OH236508   2.260   5.888   7.248
12188TIP3    H136509   2.264   5.796   7.214
12188TIP3    H236510   2.299   5.875   7.337
12189TIP3   OH236511   2.770   5.559   7.097
12189TIP3    H136512   2.837   5.488   7.091
12189TIP3    H236513   2.731   5.555   7.007
12190TIP3   OH236514   2.839   5.774   7.254
12190TIP3    H136515   2.818   5.702   7.190
12190TIP3    H236516   2.760   5.832   7.246
12191TIP3   OH236517   2.062   7.022   5.350
12191TIP3    H136518   2.156   7.000   5.337
12191TIP3    H236519   2.041   7.061   5.265
12192TIP3   OH236520   1.545   6.397   5.514
12192TIP3    H136521   1.628   6.397   5.566
12192TIP3    H236522   1.538   6.301   5.499
12193TIP3   OH236523   1.456   6.999   5.979
12193TIP3    H136524   1.389   6.935   5.945
12193TIP3    H236525   1.499   6.943   6.048
12194TIP3   OH236526   1.582   6.856   6.174
12194TIP3    H136527   1.577   6.776   6.228
12194TIP3    H236528   1.638   6.913   6.231
12195TIP3   OH236529   3.319   7.248   5.971
12195TIP3    H136530   3.347   7.278   6.059
12195TIP3    H236531   3.386   7.287   5.913
12196TIP3   OH236532   3.348   7.267   6.254
12196TIP3    H136533   3.300   7.182   6.248
12196TIP3    H236534   3.421   7.240   6.311
12197TIP3   OH236535   3.393   6.945   6.826
12197TIP3    H136536   3.321   6.954   6.891
12197TIP3    H236537   3.435   7.033   6.830
12198TIP3   OH236538   3.210   6.457   5.444
12198TIP3    H136539   3.277   6.522   5.414
12198TIP3    H236540   3.255   6.419   5.523
12199TIP3   OH236541   3.338   6.325   5.649
12199TIP3    H136542   3.270   6.283   5.707
12199TIP3    H236543   3.402   6.361   5.714
12200TIP3   OH236544   3.395   6.720   6.081
12200TIP3    H136545   3.446   6.650   6.034
12200TIP3    H236546   3.388   6.789   6.013
12201TIP3   OH236547   3.221   7.019   6.273
12201TIP3    H136548   3.148   7.059   6.325
12201TIP3    H236549   3.172   6.972   6.202
12202TIP3   OH236550   3.274   6.234   5.293
12202TIP3    H136551   3.203   6.234   5.226
12202TIP3    H236552   3.245   6.309   5.349
12203TIP3   OH236553   3.144   5.907   5.248
12203TIP3    H136554   3.102   5.938   5.167
12203TIP3    H236555   3.122   5.811   5.244
12204TIP3   OH236556   3.149   6.184   5.793
12204TIP3    H136557   3.156   6.087   5.783
12204TIP3    H236558   3.135   6.194   5.889
12205TIP3   OH236559   1.775   6.251   6.544
12205TIP3    H136560   1.772   6.220   6.451
12205TIP3    H236561   1.873   6.255   6.558
12206TIP3   OH236562   3.441   6.608   6.652
12206TIP3    H136563   3.511   6.540   6.641
12206TIP3    H236564   3.464   6.673   6.585
12207TIP3   OH236565   3.623   6.408   6.661
12207TIP3    H136566   3.548   6.359   6.701
12207TIP3    H236567   3.696   6.345   6.679
12208TIP3   OH236568   3.087   5.642   5.235
12208TIP3    H136569   3.161   5.606   5.288
12208TIP3    H236570   3.015   5.579   5.251
12209TIP3   OH236571   3.149   5.901   5.686
12209TIP3    H136572   3.189   5.811   5.701
12209TIP3    H236573   3.206   5.932   5.613
12210TIP3   OH236574   3.307   6.068   6.184
12210TIP3    H136575   3.392   6.093   6.142
12210TIP3    H236576   3.322   6.107   6.273
12211TIP3   OH236577   3.380   6.216   6.414
12211TIP3    H136578   3.302   6.250   6.462
12211TIP3    H236579   3.412   6.298   6.369
12212TIP3   OH236580   1.993   5.939   7.216
12212TIP3    H136581   2.091   5.934   7.219
12212TIP3    H236582   1.971   5.852   7.254
12213TIP3   OH236583   3.827   5.810   6.970
12213TIP3    H136584   3.889   5.746   6.929
12213TIP3    H236585   3.798   5.862   6.891
12214TIP3   OH236586   3.254   5.650   5.727
12214TIP3    H136587   3.302   5.633   5.810
12214TIP3    H236588   3.194   5.573   5.724
12215TIP3   OH236589   1.954   5.635   6.548
12215TIP3    H136590   2.016   5.560   6.555
12215TIP3    H236591   2.017   5.709   6.537
12216TIP3   OH236592   1.756   5.906   6.617
12216TIP3    H136593   1.806   5.904   6.534
12216TIP3    H236594   1.781   5.993   6.652
12217TIP3   OH236595   3.697   5.945   6.772
12217TIP3    H136596   3.611   5.988   6.791
12217TIP3    H236597   3.666   5.871   6.716
12218TIP3   OH236598   3.334   5.579   5.360
12218TIP3    H136599   3.372   5.509   5.303
12218TIP3    H236600   3.402   5.649   5.355
12219TIP3   OH236601   1.740   5.397   6.110
12219TIP3    H136602   1.653   5.406   6.153
12219TIP3    H236603   1.735   5.465   6.040
12220TIP3   OH236604   2.902   7.118   5.625
12220TIP3    H136605   2.953   7.105   5.542
12220TIP3    H236606   2.957   7.182   5.673
12221TIP3   OH236607   1.963   5.493   6.935
12221TIP3    H136608   1.910   5.486   7.016
12221TIP3    H236609   1.897   5.529   6.872
12222TIP3   OH236610   2.006   6.914   7.009
12222TIP3    H136611   1.912   6.893   6.990
12222TIP3    H236612   2.009   6.901   7.105
12223TIP3   OH236613   2.183   6.955   6.560
12223TIP3    H136614   2.133   7.030   6.521
12223TIP3    H236615   2.268   6.970   6.513
12224TIP3   OH236616   2.623   7.193   6.695
12224TIP3    H136617   2.665   7.193   6.784
12224TIP3    H236618   2.688   7.246   6.644
12225TIP3   OH236619   2.801   7.349   6.557
12225TIP3    H136620   2.869   7.298   6.513
12225TIP3    H236621   2.855   7.405   6.617
12226TIP3   OH236622   3.598   5.708   6.655
12226TIP3    H136623   3.507   5.698   6.621
12226TIP3    H236624   3.631   5.616   6.646
12227TIP3   OH236625   1.858   7.210   6.585
12227TIP3    H136626   1.767   7.239   6.560
12227TIP3    H236627   1.871   7.262   6.666
12228TIP3   OH236628   2.093   7.189   6.443
12228TIP3    H136629   2.006   7.200   6.487
12228TIP3    H236630   2.072   7.219   6.352
12229TIP3   OH236631   2.518   7.213   6.239
12229TIP3    H136632   2.447   7.230   6.174
12229TIP3    H236633   2.528   7.301   6.280
12230TIP3   OH236634   2.787   7.155   6.293
12230TIP3    H136635   2.693   7.170   6.272
12230TIP3    H236636   2.830   7.227   6.246
12231TIP3   OH236637   2.996   7.346   6.204
12231TIP3    H136638   2.980   7.429   6.155
12231TIP3    H236639   3.021   7.285   6.131
12232TIP3   OH236640   1.769   7.004   6.327
12232TIP3    H136641   1.794   6.975   6.417
12232TIP3    H236642   1.840   6.959   6.276
12233TIP3   OH236643   1.963   6.875   6.188
12233TIP3    H136644   1.978   6.790   6.234
12233TIP3    H236645   2.054   6.909   6.181
12234TIP3   OH236646   2.233   6.969   6.187
12234TIP3    H136647   2.260   6.876   6.174
12234TIP3    H236648   2.278   6.987   6.272
12235TIP3   OH236649   2.805   5.623   6.278
12235TIP3    H136650   2.761   5.551   6.326
12235TIP3    H236651   2.877   5.577   6.231
12236TIP3   OH236652   3.325   5.510   6.182
12236TIP3    H136653   3.360   5.559   6.104
12236TIP3    H236654   3.229   5.523   6.173
12237TIP3   OH236655   3.419   5.603   5.945
12237TIP3    H136656   3.491   5.552   5.901
12237TIP3    H236657   3.452   5.695   5.929
12238TIP3   OH236658   2.051   5.330   6.289
12238TIP3    H136659   1.959   5.297   6.295
12238TIP3    H236660   2.101   5.245   6.287
12239TIP3   OH236661   1.798   5.208   5.918
12239TIP3    H136662   1.863   5.252   5.859
12239TIP3    H236663   1.796   5.270   5.994
12240TIP3   OH236664   2.496   5.365   6.173
12240TIP3    H136665   2.552   5.410   6.107
12240TIP3    H236666   2.529   5.403   6.256
12241TIP3   OH236667   3.042   5.512   6.154
12241TIP3    H136668   3.042   5.471   6.066
12241TIP3    H236669   3.030   5.433   6.212
12242TIP3   OH236670   3.073   5.437   5.719
12242TIP3    H136671   2.985   5.478   5.732
12242TIP3    H236672   3.058   5.350   5.762
12243TIP3   OH236673   1.556   6.774   5.711
12243TIP3    H136674   1.470   6.737   5.683
12243TIP3    H236675   1.537   6.869   5.705
12244TIP3   OH236676   1.959   5.357   5.702
12244TIP3    H136677   2.009   5.296   5.645
12244TIP3    H236678   2.031   5.414   5.736
12245TIP3   OH236679   2.465   5.539   5.800
12245TIP3    H136680   2.527   5.492   5.858
12245TIP3    H236681   2.487   5.632   5.825
12246TIP3   OH236682   2.323   6.959   5.294
12246TIP3    H136683   2.413   6.980   5.262
12246TIP3    H236684   2.304   6.881   5.237
12247TIP3   OH236685   3.049   7.082   5.394
12247TIP3    H136686   3.042   6.984   5.384
12247TIP3    H236687   3.002   7.111   5.313
12248TIP3   OH236688   2.258   5.614   7.183
12248TIP3    H136689   2.223   5.542   7.238
12248TIP3    H236690   2.353   5.613   7.210
12249TIP3   OH236691   2.509   5.611   7.300
12249TIP3    H136692   2.594   5.587   7.259
12249TIP3    H236693   2.499   5.539   7.366
12250TIP3   OH236694   1.634   6.813   5.358
12250TIP3    H136695   1.628   6.809   5.455
12250TIP3    H236696   1.718   6.765   5.342
12251TIP3   OH236697   3.336   5.675   7.087
12251TIP3    H136698   3.354   5.643   7.178
12251TIP3    H236699   3.425   5.669   7.047
12252TIP3   OH236700   3.270   7.224   6.580
12252TIP3    H136701   3.192   7.193   6.530
12252TIP3    H236702   3.250   7.319   6.586
12253TIP3   OH236703   4.540   6.600   5.343
12253TIP3    H136704   4.507   6.689   5.320
12253TIP3    H236705   4.467   6.546   5.310
12254TIP3   OH236706   4.539   6.601   5.733
12254TIP3    H136707   4.574   6.570   5.818
12254TIP3    H236708   4.500   6.519   5.698
12255TIP3   OH236709   3.835   6.491   6.094
12255TIP3    H136710   3.865   6.421   6.156
12255TIP3    H236711   3.918   6.539   6.080
12256TIP3   OH236712   4.786   6.902   5.410
12256TIP3    H136713   4.766   6.830   5.472
12256TIP3    H236714   4.813   6.974   5.469
12257TIP3   OH236715   3.811   6.904   5.816
12257TIP3    H136716   3.802   6.806   5.816
12257TIP3    H236717   3.908   6.912   5.808
12258TIP3   OH236718   3.516   6.104   5.598
12258TIP3    H136719   3.466   6.186   5.615
12258TIP3    H236720   3.446   6.050   5.555
12259TIP3   OH236721   3.574   6.392   5.779
12259TIP3    H136722   3.623   6.313   5.812
12259TIP3    H236723   3.631   6.422   5.707
12260TIP3   OH236724   4.437   7.363   5.429
12260TIP3    H136725   4.477   7.292   5.375
12260TIP3    H236726   4.425   7.318   5.513
12261TIP3   OH236727   4.336   6.825   5.776
12261TIP3    H136728   4.375   6.746   5.735
12261TIP3    H236729   4.419   6.871   5.800
12262TIP3   OH236730   5.348   6.144   5.771
12262TIP3    H136731   5.384   6.225   5.813
12262TIP3    H236732   5.379   6.154   5.679
12263TIP3   OH236733   4.749   6.325   5.805
12263TIP3    H136734   4.793   6.240   5.826
12263TIP3    H236735   4.717   6.306   5.714
12264TIP3   OH236736   4.090   5.984   5.772
12264TIP3    H136737   4.071   6.056   5.708
12264TIP3    H236738   4.043   5.910   5.727
12265TIP3   OH236739   4.783   6.078   5.391
12265TIP3    H136740   4.853   6.062   5.459
12265TIP3    H236741   4.838   6.110   5.317
12266TIP3   OH236742   3.721   6.184   5.880
12266TIP3    H136743   3.805   6.165   5.927
12266TIP3    H236744   3.735   6.129   5.800
12267TIP3   OH236745   4.160   6.383   5.679
12267TIP3    H136746   4.255   6.359   5.689
12267TIP3    H236747   4.122   6.299   5.644
12268TIP3   OH236748   5.428   6.355   5.937
12268TIP3    H136749   5.343   6.399   5.918
12268TIP3    H236750   5.431   6.365   6.034
12269TIP3   OH236751   4.083   5.968   6.208
12269TIP3    H136752   4.025   6.004   6.139
12269TIP3    H236753   4.030   5.986   6.288
12270TIP3   OH236754   4.426   6.818   5.215
12270TIP3    H136755   4.387   6.801   5.128
12270TIP3    H236756   4.380   6.901   5.241
12271TIP3   OH236757   4.192   6.744   5.998
12271TIP3    H136758   4.131   6.812   6.034
12271TIP3    H236759   4.234   6.792   5.923
12272TIP3   OH236760   4.987   6.083   5.569
12272TIP3    H136761   4.991   6.024   5.645
12272TIP3    H236762   5.042   6.158   5.598
12273TIP3   OH236763   3.956   6.082   5.990
12273TIP3    H136764   4.019   6.154   6.014
12273TIP3    H236765   4.005   6.042   5.914
12274TIP3   OH236766   4.021   6.940   6.100
12274TIP3    H136767   3.994   7.027   6.063
12274TIP3    H236768   3.942   6.921   6.155
12275TIP3   OH236769   3.411   6.629   5.334
12275TIP3    H136770   3.370   6.656   5.250
12275TIP3    H236771   3.443   6.714   5.369
12276TIP3   OH236772   4.853   7.147   5.577
12276TIP3    H136773   4.763   7.136   5.616
12276TIP3    H236774   4.842   7.231   5.530
12277TIP3   OH236775   5.143   6.054   5.942
12277TIP3    H136776   5.056   6.072   5.903
12277TIP3    H236777   5.205   6.079   5.870
12278TIP3   OH236778   4.434   5.684   5.916
12278TIP3    H136779   4.426   5.589   5.938
12278TIP3    H236780   4.359   5.721   5.967
12279TIP3   OH236781   4.550   7.190   5.246
12279TIP3    H136782   4.599   7.106   5.229
12279TIP3    H236783   4.613   7.254   5.206
12280TIP3   OH236784   4.695   6.975   5.160
12280TIP3    H136785   4.663   6.894   5.118
12280TIP3    H236786   4.733   6.940   5.243
12281TIP3   OH236787   5.078   7.052   5.918
12281TIP3    H136788   5.061   6.975   5.860
12281TIP3    H236789   5.057   7.127   5.858
12282TIP3   OH236790   4.371   6.451   5.179
12282TIP3    H136791   4.291   6.502   5.156
12282TIP3    H236792   4.416   6.444   5.093
12283TIP3   OH236793   4.327   6.237   4.890
12283TIP3    H136794   4.396   6.288   4.937
12283TIP3    H236795   4.384   6.172   4.842
12284TIP3   OH236796   5.277   6.716   5.766
12284TIP3    H136797   5.187   6.755   5.767
12284TIP3    H236798   5.299   6.721   5.671
12285TIP3   OH236799   4.719   6.534   5.146
12285TIP3    H136800   4.664   6.557   5.225
12285TIP3    H236801   4.802   6.507   5.189
12286TIP3   OH236802   4.952   6.570   6.063
12286TIP3    H136803   4.945   6.652   6.115
12286TIP3    H236804   4.865   6.571   6.017
12287TIP3   OH236805   3.950   6.529   5.567
12287TIP3    H136806   3.908   6.471   5.500
12287TIP3    H236807   4.026   6.474   5.597
12288TIP3   OH236808   4.080   6.943   5.712
12288TIP3    H136809   4.059   6.906   5.625
12288TIP3    H236810   4.168   6.905   5.729
12289TIP3   OH236811   4.082   6.501   5.922
12289TIP3    H136812   4.115   6.473   5.834
12289TIP3    H236813   4.128   6.586   5.937
12290TIP3   OH236814   4.612   7.139   5.698
12290TIP3    H136815   4.599   7.217   5.754
12290TIP3    H236816   4.596   7.064   5.759
12291TIP3   OH236817   4.225   7.058   6.244
12291TIP3    H136818   4.163   7.118   6.290
12291TIP3    H236819   4.161   7.004   6.193
12292TIP3   OH236820   4.554   6.393   4.974
12292TIP3    H136821   4.615   6.452   5.024
12292TIP3    H236822   4.581   6.413   4.881
12293TIP3   OH236823   3.981   6.612   6.351
12293TIP3    H136824   3.983   6.700   6.392
12293TIP3    H236825   3.886   6.591   6.360
12294TIP3   OH236826   4.303   7.067   5.251
12294TIP3    H136827   4.385   7.119   5.258
12294TIP3    H236828   4.243   7.129   5.206
12295TIP3   OH236829   4.017   7.224   6.332
12295TIP3    H136830   3.983   7.225   6.240
12295TIP3    H236831   3.937   7.202   6.384
12296TIP3   OH236832   5.074   5.629   5.024
12296TIP3    H136833   4.992   5.649   5.073
12296TIP3    H236834   5.087   5.712   4.973
12297TIP3   OH236835   3.815   6.374   5.373
12297TIP3    H136836   3.746   6.415   5.317
12297TIP3    H236837   3.784   6.283   5.379
12298TIP3   OH236838   4.874   6.996   4.574
12298TIP3    H136839   4.883   7.093   4.557
12298TIP3    H236840   4.967   6.966   4.560
12299TIP3   OH236841   3.597   6.757   6.277
12299TIP3    H136842   3.529   6.736   6.210
12299TIP3    H236843   3.634   6.670   6.298
12300TIP3   OH236844   3.451   6.950   5.906
12300TIP3    H136845   3.547   6.941   5.899
12300TIP3    H236846   3.443   7.027   5.965
12301TIP3   OH236847   5.317   7.406   5.972
12301TIP3    H136848   5.313   7.309   5.984
12301TIP3    H236849   5.232   7.431   6.015
12302TIP3   OH236850   4.420   7.186   6.101
12302TIP3    H136851   4.417   7.278   6.134
12302TIP3    H236852   4.348   7.145   6.155
12303TIP3   OH236853   4.186   7.313   5.053
12303TIP3    H136854   4.137   7.294   4.971
12303TIP3    H236855   4.150   7.400   5.079
12304TIP3   OH236856   3.621   7.162   5.439
12304TIP3    H136857   3.667   7.153   5.526
12304TIP3    H236858   3.572   7.078   5.435
12305TIP3   OH236859   4.383   7.217   4.691
12305TIP3    H136860   4.442   7.146   4.655
12305TIP3    H236861   4.418   7.226   4.782
12306TIP3   OH236862   4.436   7.265   4.960
12306TIP3    H136863   4.347   7.275   5.002
12306TIP3    H236864   4.486   7.223   5.032
12307TIP3   OH236865   5.213   6.536   6.233
12307TIP3    H136866   5.128   6.542   6.187
12307TIP3    H236867   5.231   6.440   6.226
12308TIP3   OH236868   3.801   6.941   6.264
12308TIP3    H136869   3.851   6.922   6.346
12308TIP3    H236870   3.727   6.877   6.270
12309TIP3   OH236871   4.200   5.759   6.056
12309TIP3    H136872   4.112   5.731   6.023
12309TIP3    H236873   4.174   5.842   6.102
12310TIP3   OH236874   4.737   5.878   6.245
12310TIP3    H136875   4.809   5.847   6.305
12310TIP3    H236876   4.656   5.855   6.295
12311TIP3   OH236877   4.973   6.308   6.166
12311TIP3    H136878   4.921   6.304   6.249
12311TIP3    H236879   4.948   6.394   6.129
12312TIP3   OH236880   4.635   6.438   4.721
12312TIP3    H136881   4.598   6.412   4.634
12312TIP3    H236882   4.721   6.476   4.694
12313TIP3   OH236883   4.345   5.811   5.023
12313TIP3    H136884   4.309   5.805   5.114
12313TIP3    H236885   4.307   5.728   4.986
12314TIP3   OH236886   4.133   6.279   6.070
12314TIP3    H136887   4.082   6.299   6.151
12314TIP3    H236888   4.116   6.360   6.017
12315TIP3   OH236889   4.016   6.166   5.584
12315TIP3    H136890   3.924   6.137   5.602
12315TIP3    H236891   4.029   6.125   5.495
12316TIP3   OH236892   4.508   6.251   5.315
12316TIP3    H136893   4.457   6.321   5.268
12316TIP3    H236894   4.563   6.215   5.242
12317TIP3   OH236895   4.682   6.527   6.398
12317TIP3    H136896   4.660   6.452   6.458
12317TIP3    H236897   4.777   6.537   6.418
12318TIP3   OH236898   4.663   6.276   5.547
12318TIP3    H136899   4.600   6.299   5.476
12318TIP3    H236900   4.701   6.197   5.506
12319TIP3   OH236901   3.951   6.306   6.278
12319TIP3    H136902   3.984   6.368   6.345
12319TIP3    H236903   3.940   6.224   6.329
12320TIP3   OH236904   4.002   5.787   4.987
12320TIP3    H136905   3.992   5.783   5.084
12320TIP3    H236906   3.922   5.837   4.962
12321TIP3   OH236907   3.544   5.826   5.863
12321TIP3    H136908   3.621   5.859   5.912
12321TIP3    H236909   3.580   5.797   5.778
12322TIP3   OH236910   3.511   5.807   5.379
12322TIP3    H136911   3.557   5.843   5.300
12322TIP3    H236912   3.450   5.881   5.396
12323TIP3   OH236913   4.676   6.522   5.971
12323TIP3    H136914   4.708   6.451   5.911
12323TIP3    H236915   4.645   6.467   6.047
12324TIP3   OH236916   4.349   5.992   5.645
12324TIP3    H136917   4.270   5.986   5.701
12324TIP3    H236918   4.421   5.975   5.709
12325TIP3   OH236919   3.778   6.042   5.652
12325TIP3    H136920   3.684   6.049   5.622
12325TIP3    H236921   3.802   5.951   5.628
12326TIP3   OH236922   4.042   6.039   5.343
12326TIP3    H136923   4.137   6.050   5.321
12326TIP3    H236924   3.997   6.059   5.258
12327TIP3   OH236925   4.836   6.066   5.853
12327TIP3    H136926   4.799   6.076   5.943
12327TIP3    H236927   4.775   6.002   5.813
12328TIP3   OH236928   3.891   6.076   5.118
12328TIP3    H136929   3.822   6.028   5.069
12328TIP3    H236930   3.944   6.111   5.043
12329TIP3   OH236931   5.004   7.748   6.065
12329TIP3    H136932   4.998   7.772   5.971
12329TIP3    H236933   5.089   7.790   6.089
12330TIP3   OH236934   3.963   6.863   6.486
12330TIP3    H136935   4.043   6.890   6.534
12330TIP3    H236936   3.899   6.858   6.559
12331TIP3   OH236937   4.426   6.318   5.743
12331TIP3    H136938   4.496   6.276   5.691
12331TIP3    H236939   4.431   6.269   5.827
12332TIP3   OH236940   3.947   5.802   5.623
12332TIP3    H136941   3.911   5.724   5.671
12332TIP3    H236942   3.993   5.760   5.549
12333TIP3   OH236943   4.402   6.214   6.030
12333TIP3    H136944   4.312   6.249   6.045
12333TIP3    H236945   4.460   6.275   6.080
12334TIP3   OH236946   4.137   6.603   5.124
12334TIP3    H136947   4.066   6.535   5.114
12334TIP3    H236948   4.118   6.635   5.216
12335TIP3   OH236949   5.033   6.840   5.751
12335TIP3    H136950   5.054   6.890   5.670
12335TIP3    H236951   4.950   6.793   5.726
12336TIP3   OH236952   4.596   5.910   4.996
12336TIP3    H136953   4.500   5.889   5.003
12336TIP3    H236954   4.601   6.005   5.019
12337TIP3   OH236955   4.543   6.924   6.122
12337TIP3    H136956   4.567   6.899   6.212
12337TIP3    H236957   4.500   7.010   6.133
12338TIP3   OH236958   4.664   6.164   5.097
12338TIP3    H136959   4.761   6.167   5.110
12338TIP3    H236960   4.647   6.243   5.042
12339TIP3   OH236961   3.835   6.628   5.800
12339TIP3    H136962   3.871   6.598   5.714
12339TIP3    H236963   3.877   6.567   5.861
12340TIP3   OH236964   4.285   6.751   4.950
12340TIP3    H136965   4.236   6.837   4.954
12340TIP3    H236966   4.230   6.695   5.010
12341TIP3   OH236967   3.714   6.544   6.416
12341TIP3    H136968   3.731   6.528   6.510
12341TIP3    H236969   3.645   6.479   6.396
12342TIP3   OH236970   4.442   6.662   6.434
12342TIP3    H136971   4.381   6.601   6.388
12342TIP3    H236972   4.528   6.624   6.407
12343TIP3   OH236973   4.698   7.188   6.017
12343TIP3    H136974   4.603   7.179   6.032
12343TIP3    H236975   4.725   7.236   6.098
12344TIP3   OH236976   5.107   6.255   4.928
12344TIP3    H136977   5.044   6.211   4.866
12344TIP3    H236978   5.104   6.344   4.888
12345TIP3   OH236979   5.331   7.121   5.997
12345TIP3    H136980   5.231   7.111   5.998
12345TIP3    H236981   5.349   7.073   5.913
12346TIP3   OH236982   4.812   7.071   4.839
12346TIP3    H136983   4.783   7.000   4.898
12346TIP3    H236984   4.823   7.025   4.754
12347TIP3   OH236985   4.804   6.700   5.669
12347TIP3    H136986   4.711   6.675   5.683
12347TIP3    H236987   4.838   6.619   5.626
12348TIP3   OH236988   3.935   6.931   5.431
12348TIP3    H136989   3.931   7.010   5.374
12348TIP3    H236990   3.842   6.908   5.438
12349TIP3   OH236991   3.498   6.232   5.133
12349TIP3    H136992   3.543   6.316   5.155
12349TIP3    H236993   3.421   6.235   5.194
12350TIP3   OH236994   4.066   6.693   5.369
12350TIP3    H136995   4.033   6.782   5.391
12350TIP3    H236996   4.032   6.641   5.444
12351TIP3   OH236997   4.204   7.271   5.895
12351TIP3    H136998   4.247   7.343   5.845
12351TIP3    H236999   4.280   7.233   5.941
12352TIP3   OH237000   3.850   7.169   5.278
12352TIP3    H137001   3.765   7.177   5.326
12352TIP3    H237002   3.882   7.262   5.281
12353TIP3   OH237003   4.589   6.907   5.854
12353TIP3    H137004   4.579   6.905   5.952
12353TIP3    H237005   4.664   6.847   5.841
12354TIP3   OH237006   4.568   6.804   4.739
12354TIP3    H137007   4.622   6.778   4.817
12354TIP3    H237008   4.481   6.770   4.765
12355TIP3   OH237009   4.840   7.437   5.905
12355TIP3    H137010   4.761   7.380   5.903
12355TIP3    H237011   4.820   7.500   5.833
12356TIP3   OH237012   4.905   7.272   4.556
12356TIP3    H137013   4.942   7.347   4.506
12356TIP3    H237014   4.824   7.316   4.591
12357TIP3   OH237015   3.921   6.051   6.421
12357TIP3    H137016   3.825   6.053   6.433
12357TIP3    H237017   3.950   5.995   6.495
12358TIP3   OH237018   4.728   6.737   4.955
12358TIP3    H137019   4.716   6.669   5.024
12358TIP3    H237020   4.825   6.731   4.942
12359TIP3   OH237021   3.641   7.132   6.053
12359TIP3    H137022   3.694   7.057   6.085
12359TIP3    H237023   3.670   7.202   6.113
12360TIP3   OH237024   3.928   6.779   4.739
12360TIP3    H137025   3.942   6.687   4.711
12360TIP3    H237026   3.908   6.768   4.834
12361TIP3   OH237027   3.873   6.785   5.011
12361TIP3    H137028   3.949   6.755   5.063
12361TIP3    H237029   3.879   6.883   5.020
12362TIP3   OH237030   3.609   6.476   5.214
12362TIP3    H137031   3.542   6.521   5.270
12362TIP3    H237032   3.623   6.544   5.146
12363TIP3   OH237033   4.759   6.120   6.114
12363TIP3    H137034   4.846   6.150   6.143
12363TIP3    H237035   4.748   6.036   6.164
12364TIP3   OH237036   4.639   5.863   5.276
12364TIP3    H137037   4.629   5.883   5.181
12364TIP3    H237038   4.681   5.945   5.309
12365TIP3   OH237039   4.143   6.981   4.959
12365TIP3    H137040   4.056   7.006   4.995
12365TIP3    H237041   4.157   7.053   4.896
12366TIP3   OH237042   4.326   6.049   5.375
12366TIP3    H137043   4.392   6.119   5.358
12366TIP3    H237044   4.334   6.038   5.472
12367TIP3   OH237045   4.601   6.360   6.177
12367TIP3    H137046   4.628   6.407   6.259
12367TIP3    H237047   4.653   6.278   6.181
12368TIP3   OH237048   4.471   5.765   5.472
12368TIP3    H137049   4.472   5.841   5.534
12368TIP3    H237050   4.533   5.798   5.403
12369TIP3   OH237051   3.889   7.058   5.028
12369TIP3    H137052   3.858   7.128   4.966
12369TIP3    H237053   3.872   7.100   5.115
12370TIP3   OH237054   3.985   5.772   5.264
12370TIP3    H137055   3.985   5.861   5.303
12370TIP3    H237056   4.081   5.752   5.270
12371TIP3   OH237057   5.240   6.266   6.155
12371TIP3    H137058   5.143   6.268   6.167
12371TIP3    H237059   5.245   6.202   6.082
12372TIP3   OH237060   4.889   6.458   5.549
12372TIP3    H137061   4.814   6.398   5.559
12372TIP3    H237062   4.961   6.410   5.597
12373TIP3   OH237063   3.606   6.682   5.017
12373TIP3    H137064   3.679   6.746   5.027
12373TIP3    H237065   3.647   6.622   4.951
12374TIP3   OH237066   3.545   5.961   5.156
12374TIP3    H137067   3.545   6.059   5.151
12374TIP3    H237068   3.470   5.938   5.100
12375TIP3   OH237069   4.860   7.418   5.497
12375TIP3    H137070   4.817   7.465   5.422
12375TIP3    H237071   4.954   7.434   5.476
12376TIP3   OH237072   3.933   5.683   6.020
12376TIP3    H137073   3.905   5.653   5.931
12376TIP3    H237074   3.921   5.602   6.073
12377TIP3   OH237075   3.474   6.904   5.402
12377TIP3    H137076   3.408   6.931   5.468
12377TIP3    H237077   3.437   6.946   5.320
12378TIP3   OH237078   3.633   7.448   6.477
12378TIP3    H137079   3.720   7.444   6.523
12378TIP3    H237080   3.611   7.353   6.475
12379TIP3   OH237081   4.111   7.404   6.521
12379TIP3    H137082   4.205   7.382   6.527
12379TIP3    H237083   4.083   7.343   6.449
12380TIP3   OH237084   4.093   6.981   4.649
12380TIP3    H137085   4.038   6.909   4.687
12380TIP3    H237086   4.169   6.929   4.617
12381TIP3   OH237087   4.750   7.315   6.257
12381TIP3    H137088   4.743   7.244   6.325
12381TIP3    H237089   4.829   7.364   6.288
12382TIP3   OH237090   4.529   7.020   4.564
12382TIP3    H137091   4.566   6.953   4.624
12382TIP3    H237092   4.588   7.014   4.486
12383TIP3   OH237093   3.761   6.851   6.678
12383TIP3    H137094   3.778   6.755   6.685
12383TIP3    H237095   3.675   6.853   6.631
12384TIP3   OH237096   3.740   6.496   4.874
12384TIP3    H137097   3.796   6.463   4.946
12384TIP3    H237098   3.807   6.501   4.802
12385TIP3   OH237099   4.368   6.936   6.452
12385TIP3    H137100   4.327   6.955   6.365
12385TIP3    H237101   4.399   6.844   6.442
12386TIP3   OH237102   4.255   6.699   4.680
12386TIP3    H137103   4.256   6.710   4.778
12386TIP3    H237104   4.257   6.601   4.673
12387TIP3   OH237105   4.862   6.947   6.061
12387TIP3    H137106   4.936   6.991   6.016
12387TIP3    H237107   4.789   7.010   6.044
12388TIP3   OH237108   3.882   6.589   6.661
12388TIP3    H137109   3.958   6.536   6.633
12388TIP3    H237110   3.912   6.619   6.750
12389TIP3   OH237111   3.945   6.405   5.091
12389TIP3    H137112   3.920   6.361   5.173
12389TIP3    H237113   3.984   6.331   5.040
12390TIP3   OH237114   4.216   6.468   6.322
12390TIP3    H137115   4.138   6.528   6.322
12390TIP3    H237116   4.268   6.502   6.246
12391TIP3   OH237117   4.050   6.202   4.932
12391TIP3    H137118   4.026   6.206   4.837
12391TIP3    H237119   4.148   6.201   4.926
12392TIP3   OH237120   4.737   6.871   6.454
12392TIP3    H137121   4.811   6.836   6.404
12392TIP3    H237122   4.728   6.806   6.526
12393TIP3   OH237123   4.867   6.528   4.600
12393TIP3    H137124   4.848   6.482   4.516
12393TIP3    H237125   4.832   6.617   4.577
12394TIP3   OH237126   4.339   6.258   6.447
12394TIP3    H137127   4.341   6.179   6.389
12394TIP3    H237128   4.295   6.324   6.389
12395TIP3   OH237129   4.342   6.046   6.256
12395TIP3    H137130   4.372   6.084   6.172
12395TIP3    H237131   4.249   6.022   6.236
12396TIP3   OH237132   4.366   6.580   6.132
12396TIP3    H137133   4.451   6.585   6.086
12396TIP3    H237134   4.310   6.644   6.082
12397TIP3   OH237135   4.949   6.544   6.508
12397TIP3    H137136   4.991   6.457   6.519
12397TIP3    H237137   5.022   6.596   6.472
12398TIP3   OH237138   4.990   6.801   6.249
12398TIP3    H137139   4.933   6.855   6.189
12398TIP3    H237140   5.078   6.817   6.209
12399TIP3   OH237141   4.218   6.364   6.681
12399TIP3    H137142   4.151   6.295   6.696
12399TIP3    H237143   4.252   6.339   6.592
12400TIP3   OH237144   4.475   5.807   6.327
12400TIP3    H137145   4.424   5.887   6.302
12400TIP3    H237146   4.409   5.736   6.313
12401TIP3   OH237147   4.598   6.309   6.539
12401TIP3    H137148   4.585   6.292   6.635
12401TIP3    H237149   4.509   6.285   6.506
12402TIP3   OH237150   4.840   6.267   6.397
12402TIP3    H137151   4.765   6.260   6.459
12402TIP3    H237152   4.915   6.232   6.450
12403TIP3   OH237153   5.068   6.202   6.543
12403TIP3    H137154   5.083   6.106   6.556
12403TIP3    H237155   5.066   6.236   6.635
12404TIP3   OH237156   4.057   6.144   6.735
12404TIP3    H137157   4.062   6.053   6.701
12404TIP3    H237158   4.096   6.132   6.824
12405TIP3   OH237159   4.565   5.815   6.586
12405TIP3    H137160   4.633   5.745   6.579
12405TIP3    H237161   4.528   5.811   6.495
12406TIP3   OH237162   4.635   6.031   6.740
12406TIP3    H137163   4.615   5.958   6.677
12406TIP3    H237164   4.556   6.088   6.732
12407TIP3   OH237165   3.859   7.264   4.841
12407TIP3    H137166   3.953   7.252   4.821
12407TIP3    H237167   3.831   7.313   4.762
12408TIP3   OH237168   3.336   6.642   5.053
12408TIP3    H137169   3.431   6.663   5.039
12408TIP3    H237170   3.329   6.553   5.013
12409TIP3   OH237171   3.252   7.254   5.471
12409TIP3    H137172   3.187   7.192   5.432
12409TIP3    H237173   3.297   7.194   5.536
12410TIP3   OH237174   3.385   7.101   5.658
12410TIP3    H137175   3.373   7.029   5.723
12410TIP3    H237176   3.438   7.163   5.711
12411TIP3   OH237177   5.117   7.500   5.457
12411TIP3    H137178   5.142   7.535   5.545
12411TIP3    H237179   5.177   7.547   5.398
12412TIP3   OH237180   5.141   7.525   5.740
12412TIP3    H137181   5.094   7.439   5.735
12412TIP3    H237182   5.215   7.500   5.796
12413TIP3   OH237183   5.187   7.203   6.310
12413TIP3    H137184   5.116   7.210   6.377
12413TIP3    H237185   5.230   7.290   6.318
12414TIP3   OH237186   5.006   6.714   4.931
12414TIP3    H137187   5.073   6.778   4.900
12414TIP3    H237188   5.050   6.676   5.010
12415TIP3   OH237189   5.133   6.584   5.137
12415TIP3    H137190   5.065   6.539   5.193
12415TIP3    H237191   5.196   6.618   5.204
12416TIP3   OH237192   5.202   6.984   5.575
12416TIP3    H137193   5.247   6.911   5.527
12416TIP3    H237194   5.189   7.050   5.504
12417TIP3   OH237195   5.018   7.275   5.761
12417TIP3    H137196   4.945   7.317   5.812
12417TIP3    H237197   4.969   7.229   5.689
12418TIP3   OH237198   5.071   6.491   4.780
12418TIP3    H137199   4.999   6.491   4.713
12418TIP3    H237200   5.040   6.566   4.835
12419TIP3   OH237201   4.939   6.164   4.734
12419TIP3    H137202   4.897   6.192   4.652
12419TIP3    H237203   4.919   6.068   4.732
12420TIP3   OH237204   4.946   6.439   5.279
12420TIP3    H137205   4.953   6.342   5.269
12420TIP3    H237206   4.931   6.449   5.376
12421TIP3   OH237207   3.571   6.511   6.030
12421TIP3    H137208   3.568   6.477   5.938
12421TIP3    H237209   3.668   6.513   6.045
12422TIP3   OH237210   5.236   6.863   6.139
12422TIP3    H137211   5.309   6.797   6.131
12422TIP3    H237212   5.249   6.919   6.062
12423TIP3   OH237213   5.433   6.679   6.161
12423TIP3    H137214   5.356   6.625   6.190
12423TIP3    H237215   5.503   6.610   6.167
12424TIP3   OH237216   4.883   5.899   4.720
12424TIP3    H137217   4.956   5.863   4.774
12424TIP3    H237218   4.810   5.838   4.737
12425TIP3   OH237219   4.945   6.157   5.172
12425TIP3    H137220   4.983   6.067   5.188
12425TIP3    H237221   5.003   6.186   5.100
12426TIP3   OH237222   5.102   6.329   5.670
12426TIP3    H137223   5.188   6.352   5.628
12426TIP3    H237224   5.119   6.364   5.760
12427TIP3   OH237225   5.179   6.481   5.897
12427TIP3    H137226   5.101   6.510   5.947
12427TIP3    H237227   5.213   6.564   5.860
12428TIP3   OH237228   3.791   6.198   6.704
12428TIP3    H137229   3.889   6.191   6.707
12428TIP3    H237230   3.767   6.110   6.741
12429TIP3   OH237231   5.624   6.067   6.454
12429TIP3    H137232   5.685   6.001   6.414
12429TIP3    H237233   5.596   6.118   6.376
12430TIP3   OH237234   5.049   5.907   5.213
12430TIP3    H137235   5.099   5.889   5.295
12430TIP3    H237236   4.989   5.829   5.211
12431TIP3   OH237237   3.752   5.892   6.037
12431TIP3    H137238   3.813   5.816   6.041
12431TIP3    H237239   3.814   5.966   6.025
12432TIP3   OH237240   3.552   6.163   6.105
12432TIP3    H137241   3.601   6.157   6.020
12432TIP3    H237242   3.583   6.248   6.138
12433TIP3   OH237243   5.494   6.202   6.255
12433TIP3    H137244   5.406   6.242   6.271
12433TIP3    H237245   5.467   6.125   6.201
12434TIP3   OH237246   5.130   5.837   4.846
12434TIP3    H137247   5.167   5.765   4.791
12434TIP3    H237248   5.199   5.905   4.841
12435TIP3   OH237249   3.539   5.674   5.611
12435TIP3    H137250   3.445   5.663   5.634
12435TIP3    H237251   3.534   5.728   5.530
12436TIP3   OH237252   4.697   7.374   5.113
12436TIP3    H137253   4.747   7.360   5.030
12436TIP3    H237254   4.753   7.438   5.159
12437TIP3   OH237255   3.754   5.742   6.418
12437TIP3    H137256   3.704   5.743   6.502
12437TIP3    H237257   3.690   5.786   6.359
12438TIP3   OH237258   3.796   7.182   6.497
12438TIP3    H137259   3.705   7.153   6.480
12438TIP3    H237260   3.809   7.153   6.588
12439TIP3   OH237261   3.978   7.213   6.046
12439TIP3    H137262   3.930   7.288   6.006
12439TIP3    H237263   4.064   7.225   6.001
12440TIP3   OH237264   4.417   7.453   6.184
12440TIP3    H137265   4.461   7.451   6.272
12440TIP3    H237266   4.483   7.504   6.132
12441TIP3   OH237267   4.595   7.606   6.043
12441TIP3    H137268   4.664   7.554   5.999
12441TIP3    H237269   4.650   7.662   6.104
12442TIP3   OH237270   5.394   5.961   6.144
12442TIP3    H137271   5.304   5.941   6.111
12442TIP3    H237272   5.435   5.871   6.134
12443TIP3   OH237273   3.651   7.467   6.067
12443TIP3    H137274   3.562   7.501   6.045
12443TIP3    H237275   3.660   7.501   6.157
12444TIP3   OH237276   3.889   7.446   5.929
12444TIP3    H137277   3.801   7.458   5.971
12444TIP3    H237278   3.870   7.476   5.837
12445TIP3   OH237279   4.314   7.470   5.727
12445TIP3    H137280   4.244   7.487   5.661
12445TIP3    H237281   4.325   7.559   5.767
12446TIP3   OH237282   4.583   7.412   5.780
12446TIP3    H137283   4.489   7.428   5.759
12446TIP3    H237284   4.627   7.484   5.732
12447TIP3   OH237285   4.790   7.602   5.690
12447TIP3    H137286   4.775   7.686   5.641
12447TIP3    H237287   4.816   7.541   5.618
12448TIP3   OH237288   3.563   7.258   5.814
12448TIP3    H137289   3.591   7.229   5.904
12448TIP3    H237290   3.635   7.215   5.762
12449TIP3   OH237291   3.759   7.131   5.674
12449TIP3    H137292   3.773   7.047   5.722
12449TIP3    H237293   3.851   7.166   5.668
12450TIP3   OH237294   4.027   7.223   5.677
12450TIP3    H137295   4.056   7.131   5.665
12450TIP3    H237296   4.075   7.244   5.759
12451TIP3   OH237297   4.594   5.878   5.756
12451TIP3    H137298   4.556   5.805   5.809
12451TIP3    H237299   4.671   5.835   5.714
12452TIP3   OH237300   5.115   5.772   5.666
12452TIP3    H137301   5.153   5.815   5.586
12452TIP3    H237302   5.019   5.780   5.651
12453TIP3   OH237303   5.215   5.864   5.428
12453TIP3    H137304   5.288   5.809   5.392
12453TIP3    H237305   5.251   5.954   5.413
12454TIP3   OH237306   3.846   5.590   5.776
12454TIP3    H137307   3.753   5.559   5.775
12454TIP3    H237308   3.893   5.504   5.771
12455TIP3   OH237309   3.640   5.460   5.430
12455TIP3    H137310   3.669   5.513   5.354
12455TIP3    H237311   3.613   5.528   5.494
12456TIP3   OH237312   4.293   5.623   5.661
12456TIP3    H137313   4.348   5.666   5.593
12456TIP3    H237314   4.332   5.658   5.742
12457TIP3   OH237315   4.829   5.765   5.641
12457TIP3    H137316   4.840   5.720   5.556
12457TIP3    H237317   4.823   5.688   5.702
12458TIP3   OH237318   4.869   5.692   5.205
12458TIP3    H137319   4.780   5.731   5.218
12458TIP3    H237320   4.858   5.606   5.250
12459TIP3   OH237321   3.351   7.034   5.200
12459TIP3    H137322   3.266   7.000   5.169
12459TIP3    H237323   3.341   7.128   5.176
12460TIP3   OH237324   3.755   5.615   5.187
12460TIP3    H137325   3.801   5.552   5.129
12460TIP3    H237326   3.830   5.668   5.221
12461TIP3   OH237327   4.261   5.798   5.287
12461TIP3    H137328   4.322   5.748   5.344
12461TIP3    H237329   4.286   5.889   5.313
12462TIP3   OH237330   4.124   7.215   4.786
12462TIP3    H137331   4.212   7.238   4.750
12462TIP3    H237332   4.102   7.140   4.726
12463TIP3   OH237333   4.844   7.338   4.881
12463TIP3    H137334   4.837   7.240   4.871
12463TIP3    H237335   4.798   7.368   4.800
12464TIP3   OH237336   4.055   5.871   6.668
12464TIP3    H137337   4.020   5.798   6.722
12464TIP3    H237338   4.150   5.869   6.695
12465TIP3   OH237339   4.306   5.868   6.786
12465TIP3    H137340   4.391   5.844   6.745
12465TIP3    H237341   4.296   5.796   6.852
12466TIP3   OH237342   3.429   7.056   4.841
12466TIP3    H137343   3.431   7.070   4.937
12466TIP3    H237344   3.516   7.012   4.825
12467TIP3   OH237345   5.133   5.934   6.574
12467TIP3    H137346   5.151   5.900   6.664
12467TIP3    H237347   5.221   5.925   6.532
12468TIP3   OH237348   5.068   7.481   6.065
12468TIP3    H137349   4.989   7.450   6.015
12468TIP3    H237350   5.046   7.576   6.073
12469TIP3   OH237351   6.336   6.855   4.831
12469TIP3    H137352   6.303   6.945   4.809
12469TIP3    H237353   6.262   6.802   4.797
12470TIP3   OH237354   6.329   6.858   5.222
12470TIP3    H137355   6.368   6.830   5.307
12470TIP3    H237356   6.295   6.773   5.187
12471TIP3   OH237357   5.649   6.767   5.598
12471TIP3    H137358   5.670   6.693   5.659
12471TIP3    H237359   5.727   6.766   5.540
12472TIP3   OH237360   6.579   7.159   4.898
12472TIP3    H137361   6.566   7.087   4.962
12472TIP3    H237362   6.613   7.231   4.954
12473TIP3   OH237363   5.616   7.162   5.319
12473TIP3    H137364   5.603   7.064   5.311
12473TIP3    H237365   5.709   7.169   5.290
12474TIP3   OH237366   5.312   6.364   5.085
12474TIP3    H137367   5.259   6.444   5.100
12474TIP3    H237368   5.245   6.306   5.046
12475TIP3   OH237369   5.372   6.650   5.266
12475TIP3    H137370   5.420   6.569   5.298
12475TIP3    H237371   5.422   6.671   5.186
12476TIP3   OH237372   6.232   7.618   4.916
12476TIP3    H137373   6.271   7.548   4.860
12476TIP3    H237374   6.227   7.572   5.001
12477TIP3   OH237375   6.131   7.079   5.268
12477TIP3    H137376   6.172   7.001   5.226
12477TIP3    H237377   6.213   7.127   5.290
12478TIP3   OH237378   7.144   6.399   5.266
12478TIP3    H137379   7.176   6.481   5.309
12478TIP3    H237380   7.168   6.415   5.174
12479TIP3   OH237381   6.543   6.584   5.291
12479TIP3    H137382   6.587   6.500   5.314
12479TIP3    H237383   6.512   6.564   5.201
12480TIP3   OH237384   5.886   6.241   5.257
12480TIP3    H137385   5.866   6.312   5.193
12480TIP3    H237386   5.839   6.166   5.215
12481TIP3   OH237387   6.581   6.334   4.879
12481TIP3    H137388   6.651   6.318   4.946
12481TIP3    H237389   6.636   6.367   4.805
12482TIP3   OH237390   5.521   6.443   5.366
12482TIP3    H137391   5.602   6.417   5.413
12482TIP3    H237392   5.531   6.386   5.286
12483TIP3   OH237393   5.951   6.638   5.177
12483TIP3    H137394   6.047   6.617   5.182
12483TIP3    H237395   5.915   6.556   5.138
12484TIP3   OH237396   7.223   6.611   5.422
12484TIP3    H137397   7.134   6.652   5.412
12484TIP3    H237398   7.226   6.603   5.519
12485TIP3   OH237399   5.884   6.225   5.693
12485TIP3    H137400   5.820   6.255   5.626
12485TIP3    H237401   5.830   6.234   5.774
12486TIP3   OH237402   6.218   7.072   4.704
12486TIP3    H137403   6.184   7.061   4.614
12486TIP3    H237404   6.175   7.156   4.730
12487TIP3   OH237405   5.985   7.001   5.487
12487TIP3    H137406   5.929   7.073   5.521
12487TIP3    H237407   6.032   7.044   5.412
12488TIP3   OH237408   6.783   6.340   5.058
12488TIP3    H137409   6.776   6.292   5.141
12488TIP3    H237410   6.838   6.417   5.084
12489TIP3   OH237411   5.753   6.338   5.476
12489TIP3    H137412   5.819   6.406   5.502
12489TIP3    H237413   5.801   6.296   5.401
12490TIP3   OH237414   5.802   7.197   5.604
12490TIP3    H137415   5.788   7.284   5.562
12490TIP3    H237416   5.713   7.158   5.599
12491TIP3   OH237417   5.206   6.885   4.821
12491TIP3    H137418   5.166   6.911   4.736
12491TIP3    H237419   5.239   6.971   4.855
12492TIP3   OH237420   6.647   7.404   5.066
12492TIP3    H137421   6.556   7.394   5.101
12492TIP3    H237422   6.639   7.488   5.017
12493TIP3   OH237423   6.934   6.294   5.424
12493TIP3    H137424   6.852   6.331   5.389
12493TIP3    H237425   7.002   6.331   5.364
12494TIP3   OH237426   6.234   5.936   5.412
12494TIP3    H137427   6.218   5.842   5.431
12494TIP3    H237428   6.156   5.976   5.457
12495TIP3   OH237429   6.343   7.445   4.731
12495TIP3    H137430   6.393   7.362   4.713
12495TIP3    H237431   6.407   7.510   4.692
12496TIP3   OH237432   6.488   7.230   4.648
12496TIP3    H137433   6.466   7.148   4.602
12496TIP3    H237434   6.526   7.196   4.732
12497TIP3   OH237435   6.860   7.310   5.401
12497TIP3    H137436   6.851   7.232   5.342
12497TIP3    H237437   6.846   7.385   5.339
12498TIP3   OH237438   6.167   6.707   4.665
12498TIP3    H137439   6.087   6.760   4.642
12498TIP3    H237440   6.213   6.702   4.580
12499TIP3   OH237441   6.124   6.495   4.375
12499TIP3    H137442   6.191   6.545   4.424
12499TIP3    H237443   6.181   6.430   4.329
12500TIP3   OH237444   7.071   6.958   5.251
12500TIP3    H137445   6.984   7.005   5.256
12500TIP3    H237446   7.093   6.972   5.157
12501TIP3   OH237447   6.514   6.789   4.633
12501TIP3    H137448   6.461   6.812   4.713
12501TIP3    H237449   6.599   6.763   4.676
12502TIP3   OH237450   6.748   6.813   5.548
12502TIP3    H137451   6.748   6.892   5.606
12502TIP3    H237452   6.663   6.826   5.502
12503TIP3   OH237453   5.746   6.786   5.053
12503TIP3    H137454   5.703   6.728   4.987
12503TIP3    H237455   5.820   6.730   5.085
12504TIP3   OH237456   5.870   7.188   5.204
12504TIP3    H137457   5.853   7.162   5.112
12504TIP3    H237458   5.961   7.154   5.219
12505TIP3   OH237459   5.863   6.759   5.415
12505TIP3    H137460   5.899   6.726   5.329
12505TIP3    H237461   5.914   6.842   5.428
12506TIP3   OH237462   6.403   7.396   5.183
12506TIP3    H137463   6.394   7.475   5.240
12506TIP3    H237464   6.391   7.322   5.246
12507TIP3   OH237465   6.021   7.315   5.731
12507TIP3    H137466   5.964   7.379   5.779
12507TIP3    H237467   5.954   7.262   5.686
12508TIP3   OH237468   6.350   6.649   4.461
12508TIP3    H137469   6.411   6.708   4.511
12508TIP3    H237470   6.378   6.669   4.368
12509TIP3   OH237471   6.097   7.326   4.740
12509TIP3    H137472   6.182   7.374   4.744
12509TIP3    H237473   6.040   7.389   4.693
12510TIP3   OH237474   5.813   7.482   5.817
12510TIP3    H137475   5.782   7.492   5.726
12510TIP3    H237476   5.732   7.456   5.866
12511TIP3   OH237477   6.868   5.886   4.510
12511TIP3    H137478   6.787   5.908   4.560
12511TIP3    H237479   6.883   5.968   4.459
12512TIP3   OH237480   5.610   6.631   4.862
12512TIP3    H137481   5.541   6.671   4.804
12512TIP3    H237482   5.581   6.539   4.867
12513TIP3   OH237483   6.671   7.252   4.061
12513TIP3    H137484   6.680   7.348   4.044
12513TIP3    H237485   6.763   7.222   4.049
12514TIP3   OH237486   5.405   6.972   5.780
12514TIP3    H137487   5.344   7.000   5.709
12514TIP3    H237488   5.389   6.876   5.774
12515TIP3   OH237489   5.244   7.208   5.394
12515TIP3    H137490   5.339   7.204   5.380
12515TIP3    H237491   5.235   7.288   5.447
12516TIP3   OH237492   6.217   7.443   5.586
12516TIP3    H137493   6.216   7.535   5.621
12516TIP3    H237494   6.147   7.401   5.641
12517TIP3   OH237495   5.980   7.568   4.542
12517TIP3    H137496   5.935   7.551   4.457
12517TIP3    H237497   5.947   7.656   4.566
12518TIP3   OH237498   5.417   7.419   4.926
12518TIP3    H137499   5.463   7.409   5.012
12518TIP3    H237500   5.368   7.335   4.922
12519TIP3   OH237501   6.179   7.473   4.177
12519TIP3    H137502   6.237   7.402   4.142
12519TIP3    H237503   6.215   7.483   4.268
12520TIP3   OH237504   6.231   7.522   4.447
12520TIP3    H137505   6.144   7.530   4.491
12520TIP3    H237506   6.285   7.484   4.518
12521TIP3   OH237507   7.013   6.798   5.722
12521TIP3    H137508   6.932   6.801   5.670
12521TIP3    H237509   7.037   6.703   5.712
12522TIP3   OH237510   5.997   6.019   5.536
12522TIP3    H137511   5.909   5.987   5.508
12522TIP3    H237512   5.969   6.097   5.589
12523TIP3   OH237513   6.534   6.134   5.733
12523TIP3    H137514   6.603   6.105   5.796
12523TIP3    H237515   6.451   6.113   5.781
12524TIP3   OH237516   6.756   6.552   5.644
12524TIP3    H137517   6.714   6.557   5.733
12524TIP3    H237518   6.746   6.643   5.610
12525TIP3   OH237519   6.428   6.690   4.205
12525TIP3    H137520   6.395   6.666   4.117
12525TIP3    H237521   6.514   6.731   4.182
12526TIP3   OH237522   6.142   6.067   4.510
12526TIP3    H137523   6.107   6.063   4.601
12526TIP3    H237524   6.103   5.985   4.474
12527TIP3   OH237525   5.932   6.536   5.558
12527TIP3    H137526   5.888   6.557   5.642
12527TIP3    H237527   5.912   6.615   5.505
12528TIP3   OH237528   5.811   6.424   5.070
12528TIP3    H137529   5.719   6.394   5.089
12528TIP3    H237530   5.824   6.383   4.982
12529TIP3   OH237531   6.304   6.507   4.800
12529TIP3    H137532   6.253   6.577   4.755
12529TIP3    H237533   6.359   6.472   4.728
12530TIP3   OH237534   6.482   6.788   5.894
12530TIP3    H137535   6.458   6.711   5.950
12530TIP3    H237536   6.578   6.789   5.905
12531TIP3   OH237537   6.458   6.532   5.035
12531TIP3    H137538   6.396   6.556   4.963
12531TIP3    H237539   6.497   6.452   4.993
12532TIP3   OH237540   5.745   6.562   5.771
12532TIP3    H137541   5.810   6.587   5.838
12532TIP3    H237542   5.718   6.474   5.805
12533TIP3   OH237543   5.799   6.043   4.474
12533TIP3    H137544   5.789   6.039   4.571
12533TIP3    H237545   5.718   6.093   4.449
12534TIP3   OH237546   5.341   6.089   5.344
12534TIP3    H137547   5.419   6.114   5.397
12534TIP3    H237548   5.378   6.049   5.264
12535TIP3   OH237549   5.308   6.064   4.864
12535TIP3    H137550   5.355   6.099   4.786
12535TIP3    H237551   5.246   6.137   4.882
12536TIP3   OH237552   6.461   6.778   5.457
12536TIP3    H137553   6.498   6.709   5.397
12536TIP3    H237554   6.438   6.722   5.534
12537TIP3   OH237555   6.145   6.248   5.131
12537TIP3    H137556   6.065   6.242   5.187
12537TIP3    H237557   6.216   6.231   5.195
12538TIP3   OH237558   5.575   6.299   5.138
12538TIP3    H137559   5.481   6.304   5.109
12538TIP3    H237560   5.598   6.206   5.118
12539TIP3   OH237561   5.839   6.296   4.830
12539TIP3    H137562   5.933   6.307   4.808
12539TIP3    H237563   5.793   6.316   4.745
12540TIP3   OH237564   6.625   6.324   5.336
12540TIP3    H137565   6.591   6.333   5.427
12540TIP3    H237566   6.563   6.259   5.299
12541TIP3   OH237567   5.687   6.334   4.605
12541TIP3    H137568   5.617   6.285   4.559
12541TIP3    H237569   5.739   6.367   4.529
12542TIP3   OH237570   6.222   6.575   5.229
12542TIP3    H137571   6.292   6.533   5.177
12542TIP3    H237572   6.228   6.525   5.313
12543TIP3   OH237573   5.742   6.056   5.113
12543TIP3    H137574   5.704   5.980   5.162
12543TIP3    H237575   5.790   6.011   5.043
12544TIP3   OH237576   6.201   6.471   5.511
12544TIP3    H137577   6.110   6.501   5.531
12544TIP3    H237578   6.257   6.528   5.567
12545TIP3   OH237579   5.933   6.859   4.611
12545TIP3    H137580   5.862   6.792   4.600
12545TIP3    H237581   5.914   6.892   4.702
12546TIP3   OH237582   6.832   7.094   5.236
12546TIP3    H137583   6.857   7.143   5.154
12546TIP3    H237584   6.749   7.049   5.209
12547TIP3   OH237585   6.392   6.170   4.476
12547TIP3    H137586   6.297   6.149   4.488
12547TIP3    H237587   6.399   6.263   4.505
12548TIP3   OH237588   6.322   7.171   5.614
12548TIP3    H137589   6.376   7.160   5.693
12548TIP3    H237590   6.298   7.265   5.616
12549TIP3   OH237591   6.461   6.419   4.583
12549TIP3    H137592   6.558   6.423   4.598
12549TIP3    H237593   6.445   6.499   4.530
12550TIP3   OH237594   5.631   6.888   5.282
12550TIP3    H137595   5.661   6.861   5.192
12550TIP3    H237596   5.680   6.825   5.336
12551TIP3   OH237597   6.081   7.007   4.435
12551TIP3    H137598   6.032   7.093   4.439
12551TIP3    H237599   6.027   6.952   4.496
12552TIP3   OH237600   6.240   6.913   5.910
12552TIP3    H137601   6.205   6.865   5.834
12552TIP3    H237602   6.334   6.886   5.903
12553TIP3   OH237603   6.487   7.434   5.498
12553TIP3    H137604   6.390   7.436   5.511
12553TIP3    H237605   6.516   7.479   5.580
12554TIP3   OH237606   6.900   6.513   4.418
12554TIP3    H137607   6.839   6.468   4.354
12554TIP3    H237608   6.900   6.601   4.375
12555TIP3   OH237609   7.114   7.338   5.494
12555TIP3    H137610   7.019   7.344   5.469
12555TIP3    H237611   7.151   7.310   5.407
12556TIP3   OH237612   6.603   7.328   4.323
12556TIP3    H137613   6.581   7.255   4.383
12556TIP3    H237614   6.620   7.283   4.238
12557TIP3   OH237615   6.599   6.958   5.156
12557TIP3    H137616   6.506   6.933   5.169
12557TIP3    H237617   6.634   6.877   5.114
12558TIP3   OH237618   5.732   7.190   4.923
12558TIP3    H137619   5.732   7.268   4.864
12558TIP3    H237620   5.639   7.163   4.919
12559TIP3   OH237621   5.294   6.489   4.619
12559TIP3    H137622   5.339   6.572   4.642
12559TIP3    H237623   5.217   6.492   4.681
12560TIP3   OH237624   5.860   6.950   4.855
12560TIP3    H137625   5.830   7.040   4.879
12560TIP3    H237626   5.827   6.897   4.930
12561TIP3   OH237627   6.000   7.526   5.384
12561TIP3    H137628   6.040   7.599   5.332
12561TIP3    H237629   6.078   7.490   5.428
12562TIP3   OH237630   5.648   7.425   4.766
12562TIP3    H137631   5.562   7.434   4.812
12562TIP3    H237632   5.681   7.518   4.768
12563TIP3   OH237633   6.383   7.163   5.343
12563TIP3    H137634   6.373   7.155   5.440
12563TIP3    H237635   6.461   7.109   5.327
12564TIP3   OH237636   6.365   7.059   4.228
12564TIP3    H137637   6.419   7.033   4.306
12564TIP3    H237638   6.277   7.027   4.256
12565TIP3   OH237639   6.615   7.707   5.404
12565TIP3    H137640   6.544   7.644   5.384
12565TIP3    H237641   6.613   7.765   5.325
12566TIP3   OH237642   6.701   7.528   4.043
12566TIP3    H137643   6.741   7.600   3.992
12566TIP3    H237644   6.621   7.574   4.076
12567TIP3   OH237645   5.715   6.308   5.904
12567TIP3    H137646   5.618   6.305   5.916
12567TIP3    H237647   5.744   6.246   5.973
12568TIP3   OH237648   6.525   6.993   4.444
12568TIP3    H137649   6.514   6.924   4.513
12568TIP3    H237650   6.622   6.987   4.429
12569TIP3   OH237651   5.426   7.400   5.533
12569TIP3    H137652   5.492   7.332   5.549
12569TIP3    H237653   5.459   7.474   5.586
12570TIP3   OH237654   5.724   7.036   4.225
12570TIP3    H137655   5.740   6.943   4.199
12570TIP3    H237656   5.704   7.025   4.320
12571TIP3   OH237657   5.669   7.041   4.498
12571TIP3    H137658   5.747   7.012   4.548
12571TIP3    H237659   5.675   7.139   4.507
12572TIP3   OH237660   5.405   6.733   4.701
12572TIP3    H137661   5.338   6.777   4.757
12572TIP3    H237662   5.419   6.801   4.633
12573TIP3   OH237663   6.548   6.377   5.598
12573TIP3    H137664   6.636   6.414   5.619
12573TIP3    H237665   6.547   6.293   5.650
12574TIP3   OH237666   6.439   6.120   4.762
12574TIP3    H137667   6.428   6.142   4.667
12574TIP3    H237668   6.480   6.202   4.797
12575TIP3   OH237669   5.938   7.237   4.445
12575TIP3    H137670   5.852   7.263   4.482
12575TIP3    H237671   5.955   7.311   4.385
12576TIP3   OH237672   6.123   6.305   4.862
12576TIP3    H137673   6.188   6.376   4.845
12576TIP3    H237674   6.130   6.295   4.959
12577TIP3   OH237675   6.396   6.616   5.668
12577TIP3    H137676   6.428   6.658   5.750
12577TIP3    H237677   6.448   6.533   5.665
12578TIP3   OH237678   6.269   6.023   4.960
12578TIP3    H137679   6.269   6.099   5.021
12578TIP3    H237680   6.330   6.056   4.890
12579TIP3   OH237681   5.685   7.314   4.515
12579TIP3    H137682   5.654   7.384   4.453
12579TIP3    H237683   5.668   7.357   4.602
12580TIP3   OH237684   5.782   6.029   4.749
12580TIP3    H137685   5.781   6.117   4.791
12580TIP3    H237686   5.878   6.009   4.757
12581TIP3   OH237687   7.032   6.539   5.631
12581TIP3    H137688   6.935   6.525   5.629
12581TIP3    H237689   7.065   6.452   5.607
12582TIP3   OH237690   6.685   6.716   5.037
12582TIP3    H137691   6.611   6.654   5.048
12582TIP3    H237692   6.758   6.669   5.083
12583TIP3   OH237693   5.402   6.939   4.504
12583TIP3    H137694   5.476   7.003   4.513
12583TIP3    H237695   5.443   6.879   4.438
12584TIP3   OH237696   5.343   6.218   4.640
12584TIP3    H137697   5.340   6.316   4.637
12584TIP3    H237698   5.265   6.194   4.590
12585TIP3   OH237699   6.657   7.672   4.982
12585TIP3    H137700   6.614   7.719   4.907
12585TIP3    H237701   6.751   7.690   4.961
12586TIP3   OH237702   5.731   5.942   5.510
12586TIP3    H137703   5.701   5.902   5.425
12586TIP3    H237704   5.723   5.865   5.572
12587TIP3   OH237705   5.270   7.161   4.890
12587TIP3    H137706   5.203   7.188   4.953
12587TIP3    H237707   5.236   7.202   4.807
12588TIP3   OH237708   5.431   7.710   5.968
12588TIP3    H137709   5.515   7.711   6.019
12588TIP3    H237710   5.408   7.616   5.970
12589TIP3   OH237711   5.910   7.656   6.012
12589TIP3    H137712   6.006   7.640   6.007
12589TIP3    H237713   5.880   7.599   5.938
12590TIP3   OH237714   5.889   7.238   4.134
12590TIP3    H137715   5.835   7.165   4.173
12590TIP3    H237716   5.966   7.187   4.102
12591TIP3   OH237717   6.529   7.542   5.744
12591TIP3    H137718   6.528   7.480   5.821
12591TIP3    H237719   6.604   7.601   5.764
12592TIP3   OH237720   6.324   7.276   4.050
12592TIP3    H137721   6.366   7.213   4.110
12592TIP3    H237722   6.382   7.272   3.971
12593TIP3   OH237723   5.569   7.030   6.116
12593TIP3    H137724   5.593   7.014   6.228
12593TIP3    H237725   5.473   7.071   6.140
12594TIP3   OH237726   5.536   6.753   4.361
12594TIP3    H137727   5.592   6.720   4.433
12594TIP3    H237728   5.603   6.758   4.289
12595TIP3   OH237729   6.164   7.189   5.936
12595TIP3    H137730   6.131   7.209   5.847
12595TIP3    H237731   6.200   7.098   5.925
12596TIP3   OH237732   6.048   6.955   4.166
12596TIP3    H137733   6.052   6.966   4.263
12596TIP3    H237734   6.050   6.857   4.160
12597TIP3   OH237735   6.646   7.210   5.544
12597TIP3    H137736   6.727   7.244   5.500
12597TIP3    H237737   6.583   7.281   5.520
12598TIP3   OH237738   5.741   6.661   4.578
12598TIP3    H137739   5.716   6.617   4.660
12598TIP3    H237740   5.780   6.587   4.527
12599TIP3   OH237741   6.006   6.709   5.796
12599TIP3    H137742   5.993   6.795   5.837
12599TIP3    H237743   6.066   6.735   5.722
12600TIP3   OH237744   5.846   6.458   4.418
12600TIP3    H137745   5.822   6.463   4.324
12600TIP3    H237746   5.944   6.459   4.412
12601TIP3   OH237747   6.531   7.125   5.944
12601TIP3    H137748   6.609   7.097   5.893
12601TIP3    H237749   6.530   7.058   6.015
12602TIP3   OH237750   6.660   6.783   4.088
12602TIP3    H137751   6.645   6.739   4.003
12602TIP3    H237752   6.628   6.873   4.065
12603TIP3   OH237753   6.135   6.509   5.933
12603TIP3    H137754   6.141   6.427   5.880
12603TIP3    H237755   6.090   6.569   5.870
12604TIP3   OH237756   6.140   6.304   5.744
12604TIP3    H137757   6.170   6.336   5.657
12604TIP3    H237758   6.047   6.277   5.724
12605TIP3   OH237759   6.167   6.839   5.626
12605TIP3    H137760   6.251   6.836   5.578
12605TIP3    H237761   6.116   6.902   5.571
12606TIP3   OH237762   6.755   6.794   6.003
12606TIP3    H137763   6.788   6.704   5.987
12606TIP3    H237764   6.829   6.847   5.971
12607TIP3   OH237765   6.774   7.037   5.706
12607TIP3    H137766   6.720   7.098   5.651
12607TIP3    H237767   6.864   7.056   5.670
12608TIP3   OH237768   6.015   6.623   6.159
12608TIP3    H137769   5.945   6.557   6.179
12608TIP3    H237770   6.052   6.587   6.076
12609TIP3   OH237771   6.271   6.062   5.811
12609TIP3    H137772   6.220   6.143   5.789
12609TIP3    H237773   6.203   5.992   5.800
12610TIP3   OH237774   6.393   6.568   6.027
12610TIP3    H137775   6.383   6.549   6.122
12610TIP3    H237776   6.304   6.541   5.996
12611TIP3   OH237777   6.637   6.534   5.888
12611TIP3    H137778   6.561   6.520   5.947
12611TIP3    H237779   6.710   6.495   5.942
12612TIP3   OH237780   6.849   6.460   6.043
12612TIP3    H137781   6.870   6.364   6.050
12612TIP3    H237782   6.864   6.490   6.135
12613TIP3   OH237783   5.856   6.406   6.223
12613TIP3    H137784   5.855   6.314   6.189
12613TIP3    H237785   5.896   6.390   6.311
12614TIP3   OH237786   6.364   6.073   6.070
12614TIP3    H137787   6.431   6.001   6.064
12614TIP3    H237788   6.324   6.066   5.981
12615TIP3   OH237789   6.432   6.288   6.226
12615TIP3    H137790   6.411   6.215   6.164
12615TIP3    H237791   6.352   6.343   6.220
12616TIP3   OH237792   5.654   7.518   4.328
12616TIP3    H137793   5.750   7.508   4.308
12616TIP3    H237794   5.627   7.569   4.249
12617TIP3   OH237795   5.132   6.899   4.541
12617TIP3    H137796   5.227   6.919   4.526
12617TIP3    H237797   5.125   6.810   4.500
12618TIP3   OH237798   5.047   7.511   4.957
12618TIP3    H137799   4.982   7.449   4.918
12618TIP3    H237800   5.092   7.451   5.021
12619TIP3   OH237801   5.180   7.357   5.143
12619TIP3    H137802   5.166   7.287   5.209
12619TIP3    H237803   5.233   7.420   5.195
12620TIP3   OH237804   6.911   7.757   4.938
12620TIP3    H137805   6.933   7.790   5.028
12620TIP3    H237806   6.973   7.806   4.883
12621TIP3   OH237807   6.940   7.774   5.217
12621TIP3    H137808   6.901   7.684   5.220
12621TIP3    H237809   6.976   7.784   5.305
12622TIP3   OH237810   6.801   6.971   4.418
12622TIP3    H137811   6.868   7.035   4.386
12622TIP3    H237812   6.847   6.933   4.496
12623TIP3   OH237813   6.929   6.839   4.623
12623TIP3    H137814   6.863   6.796   4.681
12623TIP3    H237815   6.995   6.874   4.686
12624TIP3   OH237816   6.980   7.229   5.047
12624TIP3    H137817   7.034   7.162   5.000
12624TIP3    H237818   6.982   7.304   4.983
12625TIP3   OH237819   6.811   7.536   5.250
12625TIP3    H137820   6.737   7.570   5.304
12625TIP3    H237821   6.763   7.490   5.176
12626TIP3   OH237822   6.866   6.747   4.267
12626TIP3    H137823   6.795   6.748   4.199
12626TIP3    H237824   6.838   6.823   4.322
12627TIP3   OH237825   6.733   6.418   4.224
12627TIP3    H137826   6.697   6.454   4.142
12627TIP3    H237827   6.713   6.323   4.213
12628TIP3   OH237828   6.741   6.697   4.767
12628TIP3    H137829   6.751   6.601   4.758
12628TIP3    H237830   6.727   6.708   4.864
12629TIP3   OH237831   5.375   6.774   5.514
12629TIP3    H137832   5.372   6.736   5.424
12629TIP3    H237833   5.472   6.780   5.529
12630TIP3   OH237834   7.019   7.102   5.609
12630TIP3    H137835   7.101   7.057   5.636
12630TIP3    H237836   7.054   7.183   5.569
12631TIP3   OH237837   7.240   6.933   5.664
12631TIP3    H137838   7.156   6.886   5.686
12631TIP3    H237839   7.300   6.855   5.666
12632TIP3   OH237840   6.684   6.150   4.197
12632TIP3    H137841   6.759   6.122   4.254
12632TIP3    H237842   6.611   6.092   4.226
12633TIP3   OH237843   6.740   6.412   4.658
12633TIP3    H137844   6.781   6.324   4.673
12633TIP3    H237845   6.798   6.445   4.587
12634TIP3   OH237846   6.898   6.583   5.153
12634TIP3    H137847   6.983   6.609   5.112
12634TIP3    H237848   6.914   6.619   5.243
12635TIP3   OH237849   6.969   6.731   5.379
12635TIP3    H137850   6.893   6.762   5.432
12635TIP3    H237851   7.003   6.815   5.341
12636TIP3   OH237852   5.591   6.459   6.197
12636TIP3    H137853   5.688   6.448   6.196
12636TIP3    H237854   5.564   6.370   6.228
12637TIP3   OH237855   6.847   6.163   4.700
12637TIP3    H137856   6.895   6.147   4.784
12637TIP3    H237857   6.787   6.086   4.699
12638TIP3   OH237858   5.546   6.149   5.522
12638TIP3    H137859   5.604   6.070   5.530
12638TIP3    H237860   5.613   6.219   5.512
12639TIP3   OH237861   5.346   6.425   5.588
12639TIP3    H137862   5.396   6.412   5.505
12639TIP3    H237863   5.389   6.502   5.625
12640TIP3   OH237864   6.925   6.095   4.333
12640TIP3    H137865   6.969   6.024   4.281
12640TIP3    H237866   6.993   6.165   4.332
12641TIP3   OH237867   5.335   5.932   5.099
12641TIP3    H137868   5.242   5.918   5.122
12641TIP3    H237869   5.328   5.986   5.017
12642TIP3   OH237870   6.490   7.630   4.598
12642TIP3    H137871   6.543   7.618   4.517
12642TIP3    H237872   6.544   7.692   4.649
12643TIP3   OH237873   5.558   6.022   5.916
12643TIP3    H137874   5.503   5.996   5.991
12643TIP3    H237875   5.490   6.038   5.848
12644TIP3   OH237876   5.594   7.405   5.973
12644TIP3    H137877   5.496   7.403   5.970
12644TIP3    H237878   5.610   7.415   6.068
12645TIP3   OH237879   5.772   7.465   5.531
12645TIP3    H137880   5.726   7.543   5.491
12645TIP3    H237881   5.859   7.479   5.488
12646TIP3   OH237882   6.219   7.710   5.671
12646TIP3    H137883   6.255   7.711   5.762
12646TIP3    H237884   6.289   7.760   5.624
12647TIP3   OH237885   6.414   7.857   5.541
12647TIP3    H137886   6.474   7.800   5.490
12647TIP3    H237887   6.459   7.943   5.534
12648TIP3   OH237888   5.447   7.719   5.563
12648TIP3    H137889   5.357   7.749   5.537
12648TIP3    H237890   5.463   7.777   5.639
12649TIP3   OH237891   5.682   7.697   5.416
12649TIP3    H137892   5.595   7.713   5.459
12649TIP3    H237893   5.665   7.731   5.325
12650TIP3   OH237894   6.106   7.725   5.215
12650TIP3    H137895   6.040   7.744   5.146
12650TIP3    H237896   6.120   7.814   5.254
12651TIP3   OH237897   6.376   7.665   5.267
12651TIP3    H137898   6.284   7.685   5.242
12651TIP3    H237899   6.425   7.734   5.218
12652TIP3   OH237900   6.575   7.852   5.175
12652TIP3    H137901   6.562   7.936   5.125
12652TIP3    H237902   6.609   7.793   5.103
12653TIP3   OH237903   5.357   7.518   5.294
12653TIP3    H137904   5.380   7.491   5.386
12653TIP3    H237905   5.430   7.474   5.246
12654TIP3   OH237906   5.555   7.386   5.163
12654TIP3    H137907   5.575   7.303   5.211
12654TIP3    H237908   5.645   7.424   5.155
12655TIP3   OH237909   5.821   7.481   5.165
12655TIP3    H137910   5.855   7.392   5.146
12655TIP3    H237911   5.871   7.501   5.246
12656TIP3   OH237912   6.388   6.133   5.244
12656TIP3    H137913   6.352   6.061   5.298
12656TIP3    H237914   6.466   6.092   5.203
12657TIP3   OH237915   6.917   6.009   5.154
12657TIP3    H137916   6.955   6.064   5.082
12657TIP3    H237917   6.823   6.035   5.150
12658TIP3   OH237918   7.009   6.119   4.920
12658TIP3    H137919   7.080   6.064   4.879
12658TIP3    H237920   7.046   6.209   4.903
12659TIP3   OH237921   5.643   5.844   5.263
12659TIP3    H137922   5.550   5.810   5.267
12659TIP3    H237923   5.691   5.759   5.259
12660TIP3   OH237924   5.429   5.718   4.915
12660TIP3    H137925   5.461   5.772   4.840
12660TIP3    H237926   5.407   5.785   4.982
12661TIP3   OH237927   6.088   5.881   5.144
12661TIP3    H137928   6.147   5.926   5.082
12661TIP3    H237929   6.119   5.914   5.230
12662TIP3   OH237930   6.629   6.030   5.126
12662TIP3    H137931   6.636   5.990   5.038
12662TIP3    H237932   6.617   5.951   5.183
12663TIP3   OH237933   6.665   5.950   4.692
12663TIP3    H137934   6.578   5.991   4.708
12663TIP3    H237935   6.652   5.863   4.735
12664TIP3   OH237936   5.147   7.291   4.688
12664TIP3    H137937   5.062   7.257   4.657
12664TIP3    H237938   5.137   7.385   4.663
12665TIP3   OH237939   5.551   5.877   4.672
12665TIP3    H137940   5.597   5.810   4.617
12665TIP3    H237941   5.627   5.927   4.708
12666TIP3   OH237942   6.059   6.054   4.773
12666TIP3    H137943   6.116   6.003   4.832
12666TIP3    H237944   6.083   6.145   4.800
12667TIP3   OH237945   5.920   7.472   4.274
12667TIP3    H137946   6.009   7.494   4.238
12667TIP3    H237947   5.898   7.397   4.214
12668TIP3   OH237948   6.638   7.594   4.368
12668TIP3    H137949   6.630   7.497   4.357
12668TIP3    H237950   6.594   7.625   4.286
12669TIP3   OH237951   5.851   6.138   6.164
12669TIP3    H137952   5.814   6.060   6.209
12669TIP3    H237953   5.945   6.130   6.188
12670TIP3   OH237954   6.105   6.126   6.275
12670TIP3    H137955   6.187   6.096   6.234
12670TIP3    H237956   6.090   6.054   6.341
12671TIP3   OH237957   5.225   7.311   4.327
12671TIP3    H137958   5.228   7.328   4.422
12671TIP3    H237959   5.311   7.267   4.311
12672TIP3   OH237960   6.925   6.194   6.059
12672TIP3    H137961   6.943   6.158   6.149
12672TIP3    H237962   7.013   6.187   6.016
12673TIP3   OH237963   8.124   7.105   4.325
12673TIP3    H137964   8.085   7.193   4.304
12673TIP3    H237965   8.056   7.049   4.284
12674TIP3   OH237966   8.090   7.115   4.715
12674TIP3    H137967   8.153   7.064   4.766
12674TIP3    H237968   8.068   7.053   4.645
12675TIP3   OH237969   7.425   6.985   5.054
12675TIP3    H137970   7.451   6.919   5.122
12675TIP3    H237971   7.513   7.018   5.027
12676TIP3   OH237972   7.403   7.417   4.787
12676TIP3    H137973   7.394   7.319   4.787
12676TIP3    H237974   7.500   7.425   4.778
12677TIP3   OH237975   7.108   6.619   4.572
12677TIP3    H137976   7.058   6.701   4.587
12677TIP3    H237977   7.040   6.564   4.530
12678TIP3   OH237978   7.166   6.904   4.751
12678TIP3    H137979   7.215   6.826   4.784
12678TIP3    H237980   7.223   6.934   4.679
12679TIP3   OH237981   7.914   7.322   4.734
12679TIP3    H137982   7.978   7.249   4.717
12679TIP3    H237983   7.971   7.391   4.770
12680TIP3   OH237984   8.367   6.833   4.752
12680TIP3    H137985   8.387   6.739   4.770
12680TIP3    H237986   8.312   6.823   4.671
12681TIP3   OH237987   7.673   6.490   4.752
12681TIP3    H137988   7.659   6.571   4.697
12681TIP3    H237989   7.669   6.423   4.680
12682TIP3   OH237990   8.368   6.594   4.374
12682TIP3    H137991   8.444   6.573   4.434
12682TIP3    H237992   8.415   6.628   4.296
12683TIP3   OH237993   7.314   6.698   4.850
12683TIP3    H137994   7.396   6.680   4.900
12683TIP3    H237995   7.328   6.639   4.773
12684TIP3   OH237996   7.753   6.895   4.649
12684TIP3    H137997   7.848   6.871   4.659
12684TIP3    H237998   7.716   6.811   4.615
12685TIP3   OH237999   7.672   6.477   5.189
12685TIP3    H138000   7.614   6.513   5.120
12685TIP3    H238001   7.620   6.497   5.270
12686TIP3   OH238002   7.991   7.312   4.198
12686TIP3    H138003   7.957   7.303   4.107
12686TIP3    H238004   7.964   7.404   4.218
12687TIP3   OH238005   7.777   7.241   4.954
12687TIP3    H138006   7.712   7.314   4.956
12687TIP3    H238007   7.833   7.269   4.878
12688TIP3   OH238008   8.583   6.578   4.542
12688TIP3    H138009   8.546   6.522   4.612
12688TIP3    H238010   8.636   6.641   4.592
12689TIP3   OH238011   7.545   6.596   4.970
12689TIP3    H138012   7.609   6.664   4.997
12689TIP3    H238013   7.592   6.557   4.893
12690TIP3   OH238014   7.000   7.141   4.309
12690TIP3    H138015   6.965   7.168   4.222
12690TIP3    H238016   7.035   7.226   4.343
12691TIP3   OH238017   8.230   7.473   4.151
12691TIP3    H138018   8.199   7.394   4.104
12691TIP3    H238019   8.308   7.441   4.196
12692TIP3   OH238020   7.963   6.964   4.151
12692TIP3    H138021   7.884   7.017   4.130
12692TIP3    H238022   8.003   6.951   4.063
12693TIP3   OH238023   7.917   6.755   3.858
12693TIP3    H138024   7.992   6.802   3.899
12693TIP3    H238025   7.966   6.682   3.815
12694TIP3   OH238026   8.304   7.027   4.133
12694TIP3    H138027   8.251   7.049   4.214
12694TIP3    H238028   8.391   7.007   4.173
12695TIP3   OH238029   7.542   7.043   4.542
12695TIP3    H138030   7.497   6.986   4.476
12695TIP3    H238031   7.618   6.988   4.569
12696TIP3   OH238032   7.673   7.450   4.687
12696TIP3    H138033   7.643   7.424   4.598
12696TIP3    H238034   7.758   7.400   4.694
12697TIP3   OH238035   7.672   6.998   4.892
12697TIP3    H138036   7.703   6.970   4.803
12697TIP3    H238037   7.721   7.082   4.905
12698TIP3   OH238038   8.144   6.902   3.945
12698TIP3    H138039   8.204   6.956   4.001
12698TIP3    H238040   8.175   6.925   3.854
12699TIP3   OH238041   7.516   7.157   5.281
12699TIP3    H138042   7.468   7.190   5.204
12699TIP3    H238043   7.447   7.105   5.326
12700TIP3   OH238044   7.891   7.588   4.215
12700TIP3    H138045   7.954   7.652   4.248
12700TIP3    H238046   7.827   7.645   4.169
12701TIP3   OH238047   7.403   6.889   4.354
12701TIP3    H138048   7.338   6.929   4.292
12701TIP3    H238049   7.382   6.795   4.347
12702TIP3   OH238050   7.183   7.242   5.244
12702TIP3    H138051   7.113   7.232   5.177
12702TIP3    H238052   7.200   7.150   5.271
12703TIP3   OH238053   7.042   7.460   4.885
12703TIP3    H138054   7.139   7.457   4.876
12703TIP3    H238055   7.029   7.543   4.932
12704TIP3   OH238056   7.739   7.832   4.041
12704TIP3    H138057   7.723   7.807   3.948
12704TIP3    H238058   7.807   7.901   4.035
12705TIP3   OH238059   7.210   7.676   4.409
12705TIP3    H138060   7.256   7.667   4.495
12705TIP3    H238061   7.161   7.592   4.408
12706TIP3   OH238062   7.347   7.457   5.192
12706TIP3    H138063   7.435   7.445   5.231
12706TIP3    H238064   7.300   7.374   5.216
12707TIP3   OH238065   8.305   6.390   5.202
12707TIP3    H138066   8.376   6.381   5.267
12707TIP3    H238067   8.224   6.367   5.254
12708TIP3   OH238068   8.236   6.958   3.696
12708TIP3    H138069   8.185   6.925   3.620
12708TIP3    H238070   8.306   7.008   3.652
12709TIP3   OH238071   7.948   6.315   3.995
12709TIP3    H138072   7.913   6.313   4.087
12709TIP3    H238073   7.896   6.242   3.957
12710TIP3   OH238074   7.730   6.785   5.046
12710TIP3    H138075   7.680   6.807   5.128
12710TIP3    H238076   7.709   6.863   4.990
12711TIP3   OH238077   7.610   6.676   4.566
12711TIP3    H138078   7.517   6.648   4.577
12711TIP3    H238079   7.625   6.645   4.473
12712TIP3   OH238080   8.095   6.764   4.284
12712TIP3    H138081   8.044   6.833   4.238
12712TIP3    H238082   8.149   6.728   4.211
12713TIP3   OH238083   8.237   6.790   4.516
12713TIP3    H138084   8.175   6.808   4.442
12713TIP3    H238085   8.281   6.712   4.477
12714TIP3   OH238086   7.541   6.811   5.248
12714TIP3    H138087   7.597   6.863   5.309
12714TIP3    H238088   7.524   6.731   5.302
12715TIP3   OH238089   7.564   6.261   3.961
12715TIP3    H138090   7.565   6.289   4.055
12715TIP3    H238091   7.566   6.345   3.913
12716TIP3   OH238092   7.138   6.339   4.832
12716TIP3    H138093   7.216   6.369   4.884
12716TIP3    H238094   7.178   6.304   4.751
12717TIP3   OH238095   7.101   6.319   4.355
12717TIP3    H138096   7.148   6.353   4.275
12717TIP3    H238097   7.041   6.394   4.370
12718TIP3   OH238098   7.949   6.514   4.612
12718TIP3    H138099   7.864   6.491   4.653
12718TIP3    H238100   8.011   6.505   4.686
12719TIP3   OH238101   7.366   6.549   4.623
12719TIP3    H138102   7.272   6.571   4.598
12719TIP3    H238103   7.372   6.458   4.592
12720TIP3   OH238104   7.635   6.574   4.316
12720TIP3    H138105   7.729   6.566   4.292
12720TIP3    H238106   7.589   6.575   4.229
12721TIP3   OH238107   8.396   6.567   4.803
12721TIP3    H138108   8.370   6.582   4.896
12721TIP3    H238109   8.332   6.498   4.777
12722TIP3   OH238110   7.483   6.590   4.085
12722TIP3    H138111   7.415   6.542   4.033
12722TIP3    H238112   7.536   6.628   4.012
12723TIP3   OH238113   8.013   6.820   4.713
12723TIP3    H138114   8.086   6.784   4.661
12723TIP3    H238115   8.023   6.776   4.799
12724TIP3   OH238116   7.995   6.722   4.993
12724TIP3    H138117   7.903   6.750   5.013
12724TIP3    H238118   8.044   6.752   5.071
12725TIP3   OH238119   7.731   7.115   4.094
12725TIP3    H138120   7.660   7.049   4.083
12725TIP3    H238121   7.711   7.149   4.185
12726TIP3   OH238122   8.194   6.420   3.970
12726TIP3    H138123   8.099   6.392   3.977
12726TIP3    H238124   8.187   6.517   3.977
12727TIP3   OH238125   8.250   6.678   4.072
12727TIP3    H138126   8.347   6.687   4.078
12727TIP3    H238127   8.226   6.750   4.010
12728TIP3   OH238128   7.430   7.143   4.774
12728TIP3    H138129   7.465   7.115   4.688
12728TIP3    H238130   7.462   7.073   4.832
12729TIP3   OH238131   7.895   7.271   3.933
12729TIP3    H138132   7.834   7.347   3.921
12729TIP3    H238133   7.835   7.205   3.975
12730TIP3   OH238134   7.291   7.029   5.402
12730TIP3    H138135   7.282   7.001   5.495
12730TIP3    H238136   7.220   6.977   5.360
12731TIP3   OH238137   7.529   7.447   4.412
12731TIP3    H138138   7.526   7.525   4.354
12731TIP3    H238139   7.437   7.420   4.411
12732TIP3   OH238140   7.090   6.746   4.103
12732TIP3    H138141   7.136   6.829   4.125
12732TIP3    H238142   7.015   6.748   4.166
12733TIP3   OH238143   7.654   7.205   4.339
12733TIP3    H138144   7.626   7.295   4.363
12733TIP3    H238145   7.623   7.154   4.416
12734TIP3   OH238146   7.445   7.676   4.252
12734TIP3    H138147   7.360   7.689   4.298
12734TIP3    H238148   7.481   7.768   4.255
12735TIP3   OH238149   8.048   7.289   3.698
12735TIP3    H138150   8.137   7.284   3.734
12735TIP3    H238151   7.994   7.268   3.777
12736TIP3   OH238152   7.512   6.561   5.398
12736TIP3    H138153   7.416   6.565   5.416
12736TIP3    H238154   7.544   6.503   5.469
12737TIP3   OH238155   8.334   7.228   3.949
12737TIP3    H138156   8.291   7.173   4.017
12737TIP3    H238157   8.411   7.172   3.932
12738TIP3   OH238158   7.246   7.641   5.028
12738TIP3    H138159   7.282   7.561   5.073
12738TIP3    H238160   7.262   7.707   5.097
12739TIP3   OH238161   7.463   7.296   3.974
12739TIP3    H138162   7.544   7.269   4.019
12739TIP3    H238163   7.470   7.394   3.975
12740TIP3   OH238164   7.200   6.989   4.188
12740TIP3    H138165   7.134   7.034   4.244
12740TIP3    H238166   7.215   7.057   4.120
12741TIP3   OH238167   8.343   6.625   5.063
12741TIP3    H138168   8.340   6.678   5.144
12741TIP3    H238169   8.320   6.538   5.101
12742TIP3   OH238170   8.229   6.382   4.246
12742TIP3    H138171   8.218   6.399   4.150
12742TIP3    H238172   8.266   6.466   4.278
12743TIP3   OH238173   7.724   7.484   3.909
12743TIP3    H138174   7.642   7.501   3.959
12743TIP3    H238175   7.743   7.577   3.883
12744TIP3   OH238176   7.921   6.558   4.345
12744TIP3    H138177   7.983   6.631   4.326
12744TIP3    H238178   7.928   6.552   4.442
12745TIP3   OH238179   8.076   6.284   4.450
12745TIP3    H138180   8.044   6.364   4.495
12745TIP3    H238181   8.130   6.322   4.377
12746TIP3   OH238182   7.480   7.569   3.998
12746TIP3    H138183   7.453   7.641   3.937
12746TIP3    H238184   7.467   7.612   4.085
12747TIP3   OH238185   7.571   6.285   4.240
12747TIP3    H138186   7.571   6.358   4.304
12747TIP3    H238187   7.662   6.253   4.252
12748TIP3   OH238188   8.504   6.938   4.516
12748TIP3    H138189   8.410   6.914   4.522
12748TIP3    H238190   8.526   6.950   4.610
12749TIP3   OH238191   7.201   7.194   3.992
12749TIP3    H138192   7.272   7.261   4.001
12749TIP3    H238193   7.242   7.140   3.922
12750TIP3   OH238194   7.131   6.474   4.135
12750TIP3    H138195   7.146   6.570   4.125
12750TIP3    H238196   7.060   6.459   4.071
12751TIP3   OH238197   7.564   6.189   4.984
12751TIP3    H138198   7.489   6.150   4.932
12751TIP3    H238199   7.560   6.129   5.063
12752TIP3   OH238200   7.064   7.412   4.376
12752TIP3    H138201   6.999   7.443   4.440
12752TIP3    H238202   7.032   7.456   4.294
12753TIP3   OH238203   7.657   7.405   3.641
12753TIP3    H138204   7.684   7.434   3.731
12753TIP3    H238205   7.742   7.409   3.593
12754TIP3   OH238206   7.336   7.000   3.843
12754TIP3    H138207   7.395   6.988   3.921
12754TIP3    H238208   7.388   6.956   3.775
12755TIP3   OH238209   7.538   6.915   4.055
12755TIP3    H138210   7.517   6.865   4.135
12755TIP3    H238211   7.577   6.844   3.999
12756TIP3   OH238212   7.789   6.973   5.288
12756TIP3    H138213   7.755   7.050   5.335
12756TIP3    H238214   7.834   7.013   5.213
12757TIP3   OH238215   7.644   6.710   3.899
12757TIP3    H138216   7.628   6.647   3.825
12757TIP3    H238217   7.740   6.723   3.889
12758TIP3   OH238218   7.901   6.768   5.451
12758TIP3    H138219   7.925   6.696   5.390
12758TIP3    H238220   7.870   6.837   5.390
12759TIP3   OH238221   7.933   6.544   5.223
12759TIP3    H138222   7.954   6.580   5.135
12759TIP3    H238223   7.838   6.520   5.212
12760TIP3   OH238224   8.062   6.320   5.316
12760TIP3    H138225   8.013   6.400   5.287
12760TIP3    H238226   7.996   6.251   5.297
12761TIP3   OH238227   7.640   6.657   5.717
12761TIP3    H138228   7.644   6.579   5.657
12761TIP3    H238229   7.702   6.627   5.785
12762TIP3   OH238230   8.168   6.332   5.570
12762TIP3    H138231   8.224   6.255   5.556
12762TIP3    H238232   8.119   6.336   5.485
12763TIP3   OH238233   7.429   7.777   3.810
12763TIP3    H138234   7.521   7.796   3.788
12763TIP3    H238235   7.384   7.795   3.726
12764TIP3   OH238236   6.929   7.156   4.027
12764TIP3    H138237   7.025   7.175   4.011
12764TIP3    H238238   6.922   7.067   3.986
12765TIP3   OH238239   6.843   7.767   4.445
12765TIP3    H138240   6.778   7.705   4.406
12765TIP3    H238241   6.889   7.709   4.508
12766TIP3   OH238242   6.977   7.613   4.629
12766TIP3    H138243   6.966   7.543   4.695
12766TIP3    H238244   7.029   7.677   4.681
12767TIP3   OH238245   8.543   6.665   3.727
12767TIP3    H138246   8.508   6.715   3.653
12767TIP3    H238247   8.502   6.579   3.713
12768TIP3   OH238248   8.540   6.944   4.248
12768TIP3    H138249   8.530   6.848   4.243
12768TIP3    H238250   8.541   6.957   4.346
12769TIP3   OH238251   7.159   7.026   4.998
12769TIP3    H138252   7.153   6.990   4.906
12769TIP3    H238253   7.256   7.020   5.012
12770TIP3   OH238254   8.503   6.376   3.762
12770TIP3    H138255   8.524   6.302   3.703
12770TIP3    H238256   8.405   6.377   3.753
12771TIP3   OH238257   8.532   6.671   4.164
12771TIP3    H138258   8.588   6.598   4.195
12771TIP3    H238259   8.588   6.713   4.097
12772TIP3   OH238260   7.366   6.691   5.682
12772TIP3    H138261   7.464   6.687   5.689
12772TIP3    H238262   7.343   6.601   5.712
12773TIP3   OH238263   7.349   6.399   5.001
12773TIP3    H138264   7.410   6.331   5.029
12773TIP3    H238265   7.407   6.478   4.998
12774TIP3   OH238266   7.141   6.679   5.071
12774TIP3    H138267   7.191   6.675   4.987
12774TIP3    H238268   7.186   6.751   5.118
12775TIP3   OH238269   7.131   6.181   4.584
12775TIP3    H138270   7.038   6.174   4.609
12775TIP3    H238271   7.126   6.238   4.504
12776TIP3   OH238272   7.350   6.245   5.398
12776TIP3    H138273   7.344   6.274   5.491
12776TIP3    H238274   7.272   6.287   5.359
12777TIP3   OH238275   7.156   7.766   4.790
12777TIP3    H138276   7.185   7.734   4.877
12777TIP3    H238277   7.225   7.724   4.733
12778TIP3   OH238278   7.340   7.637   4.643
12778TIP3    H138279   7.357   7.554   4.692
12778TIP3    H238280   7.432   7.671   4.632
12779TIP3   OH238281   7.599   7.714   4.644
12779TIP3    H138282   7.641   7.626   4.645
12779TIP3    H238283   7.646   7.761   4.713
12780TIP3   OH238284   8.202   6.379   4.731
12780TIP3    H138285   8.155   6.296   4.741
12780TIP3    H238286   8.269   6.354   4.664
12781TIP3   OH238287   8.719   6.278   4.643
12781TIP3    H138288   8.754   6.326   4.565
12781TIP3    H238289   8.622   6.289   4.632
12782TIP3   OH238290   8.835   6.367   4.412
12782TIP3    H138291   8.864   6.304   4.345
12782TIP3    H238292   8.870   6.450   4.379
12783TIP3   OH238293   7.416   6.102   4.785
12783TIP3    H138294   7.325   6.065   4.778
12783TIP3    H238295   7.465   6.035   4.735
12784TIP3   OH238296   7.221   5.973   4.397
12784TIP3    H138297   7.259   6.027   4.325
12784TIP3    H238298   7.202   6.041   4.464
12785TIP3   OH238299   8.439   6.277   4.607
12785TIP3    H138300   8.435   6.227   4.524
12785TIP3    H238301   8.422   6.205   4.672
12786TIP3   OH238302   8.455   6.222   4.177
12786TIP3    H138303   8.366   6.252   4.201
12786TIP3    H238304   8.459   6.134   4.218
12787TIP3   OH238305   6.943   7.548   4.178
12787TIP3    H138306   6.858   7.514   4.144
12787TIP3    H238307   6.934   7.642   4.153
12788TIP3   OH238308   7.347   6.129   4.164
12788TIP3    H138309   7.396   6.073   4.101
12788TIP3    H238310   7.419   6.187   4.196
12789TIP3   OH238311   7.859   6.306   4.256
12789TIP3    H138312   7.893   6.254   4.330
12789TIP3    H238313   7.884   6.396   4.284
12790TIP3   OH238314   7.710   7.724   3.778
12790TIP3    H138315   7.783   7.782   3.743
12790TIP3    H238316   7.670   7.698   3.694
12791TIP3   OH238317   7.652   6.406   5.613
12791TIP3    H138318   7.573   6.366   5.656
12791TIP3    H238319   7.727   6.374   5.668
12792TIP3   OH238320   7.891   6.354   5.755
12792TIP3    H138321   7.973   6.372   5.706
12792TIP3    H238322   7.915   6.270   5.798
12793TIP3   OH238323   7.008   7.551   3.824
12793TIP3    H138324   7.014   7.596   3.910
12793TIP3    H238325   7.093   7.504   3.819
12794TIP3   OH238326   1.392   7.431   6.419
12794TIP3    H138327   1.423   7.514   6.463
12794TIP3    H238328   1.422   7.445   6.328
12795TIP3   OH238329   0.833   7.330   6.041
12795TIP3    H138330   0.893   7.347   6.116
12795TIP3    H238331   0.864   7.396   5.978
12796TIP3   OH238332   1.468   7.631   6.593
12796TIP3    H138333   1.413   7.707   6.569
12796TIP3    H238334   1.440   7.615   6.685
12797TIP3   OH238335   1.023   7.395   6.230
12797TIP3    H138336   1.040   7.310   6.273
12797TIP3    H238337   1.090   7.455   6.266
12798TIP3   OH238338   1.194   7.351   6.600
12798TIP3    H138339   1.109   7.378   6.562
12798TIP3    H238340   1.257   7.371   6.528
12799TIP3   OH238341   1.119   6.932   5.684
12799TIP3    H138342   1.038   6.949   5.737
12799TIP3    H238343   1.132   7.020   5.644
12800TIP3   OH238344   1.158   7.553   5.581
12800TIP3    H138345   1.093   7.513   5.518
12800TIP3    H238346   1.148   7.646   5.553
12801TIP3   OH238347   1.266   7.533   6.795
12801TIP3    H138348   1.184   7.529   6.846
12801TIP3    H238349   1.248   7.465   6.727
12802TIP3   OH238350   0.925   7.740   6.217
12802TIP3    H138351   0.868   7.663   6.216
12802TIP3    H238352   1.008   7.703   6.254
12803TIP3   OH238353   0.943   7.835   5.237
12803TIP3    H138354   0.886   7.785   5.176
12803TIP3    H238355   0.886   7.909   5.262
12804TIP3   OH238356   1.062   8.009   5.586
12804TIP3    H138357   1.142   8.064   5.577
12804TIP3    H238358   1.081   7.965   5.672
12805TIP3   OH238359   1.179   7.879   5.794
12805TIP3    H138360   1.119   7.832   5.856
12805TIP3    H238361   1.248   7.915   5.854
12806TIP3   OH238362   1.117   7.787   5.441
12806TIP3    H138363   1.049   7.793   5.370
12806TIP3    H238364   1.087   7.861   5.498
12807TIP3   OH238365   0.997   7.459   5.381
12807TIP3    H138366   0.932   7.505   5.327
12807TIP3    H238367   0.965   7.367   5.376
12808TIP3   OH238368   1.023   7.732   5.954
12808TIP3    H138369   0.998   7.641   5.929
12808TIP3    H238370   0.981   7.742   6.042
12809TIP3   OH238371   0.926   7.193   5.398
12809TIP3    H138372   1.014   7.182   5.440
12809TIP3    H238373   0.890   7.104   5.406
12810TIP3   OH238374   0.999   7.464   5.854
12810TIP3    H138375   1.035   7.374   5.866
12810TIP3    H238376   1.037   7.488   5.768
12811TIP3   OH238377   1.151   7.632   6.339
12811TIP3    H138378   1.236   7.664   6.301
12811TIP3    H238379   1.156   7.665   6.430
12812TIP3   OH238380   1.737   7.390   7.107
12812TIP3    H138381   1.761   7.310   7.055
12812TIP3    H238382   1.682   7.435   7.042
12813TIP3   OH238383   1.108   7.202   5.867
12813TIP3    H138384   1.146   7.193   5.956
12813TIP3    H238385   1.037   7.135   5.871
12814TIP3   OH238386   1.616   7.447   6.864
12814TIP3    H138387   1.556   7.515   6.899
12814TIP3    H238388   1.552   7.381   6.830
12815TIP3   OH238389   1.174   7.144   5.500
12815TIP3    H138390   1.220   7.068   5.459
12815TIP3    H238391   1.245   7.211   5.506
12816TIP3   OH238392   1.437   7.254   6.775
12816TIP3    H138393   1.346   7.237   6.745
12816TIP3    H238394   1.473   7.162   6.773
12817TIP3   OH238395   1.186   7.059   6.329
12817TIP3    H138396   1.223   7.107   6.252
12817TIP3    H238397   1.090   7.078   6.318
12818TIP3   OH238398   1.264   7.164   6.093
12818TIP3    H138399   1.335   7.111   6.053
12818TIP3    H238400   1.298   7.255   6.075
12819TIP3   OH238401   0.925   7.102   6.286
12819TIP3    H138402   0.838   7.128   6.253
12819TIP3    H238403   0.903   7.023   6.341
12820TIP3   OH238404   0.914   6.990   5.862
12820TIP3    H138405   0.830   7.034   5.881
12820TIP3    H238406   0.898   6.905   5.907
12821TIP3   OH238407   2.384   8.139   5.502
12821TIP3    H138408   2.345   8.225   5.476
12821TIP3    H238409   2.312   8.080   5.473
12822TIP3   OH238410   2.383   8.154   5.881
12822TIP3    H138411   2.419   8.132   5.969
12822TIP3    H238412   2.341   8.069   5.856
12823TIP3   OH238413   1.707   8.072   6.253
12823TIP3    H138414   1.712   7.991   6.308
12823TIP3    H238415   1.788   8.064   6.198
12824TIP3   OH238416   2.599   8.456   5.568
12824TIP3    H138417   2.596   8.384   5.633
12824TIP3    H238418   2.653   8.521   5.614
12825TIP3   OH238419   1.728   8.376   6.056
12825TIP3    H138420   1.684   8.307   6.003
12825TIP3    H238421   1.806   8.398   6.000
12826TIP3   OH238422   1.362   7.661   5.745
12826TIP3    H138423   1.320   7.745   5.768
12826TIP3    H238424   1.284   7.610   5.718
12827TIP3   OH238425   1.418   7.947   5.913
12827TIP3    H138426   1.461   7.872   5.958
12827TIP3    H238427   1.493   8.004   5.891
12828TIP3   OH238428   2.196   8.371   5.915
12828TIP3    H138429   2.245   8.291   5.886
12828TIP3    H238430   2.273   8.425   5.943
12829TIP3   OH238431   3.195   7.701   5.924
12829TIP3    H138432   3.224   7.785   5.964
12829TIP3    H238433   3.216   7.716   5.830
12830TIP3   OH238434   2.593   7.881   5.954
12830TIP3    H138435   2.635   7.796   5.976
12830TIP3    H238436   2.559   7.863   5.865
12831TIP3   OH238437   1.933   7.542   5.919
12831TIP3    H138438   1.910   7.614   5.857
12831TIP3    H238439   1.883   7.468   5.878
12832TIP3   OH238440   2.626   7.634   5.541
12832TIP3    H138441   2.696   7.618   5.609
12832TIP3    H238442   2.681   7.668   5.468
12833TIP3   OH238443   1.563   7.744   6.032
12833TIP3    H138444   1.643   7.720   6.080
12833TIP3    H238445   1.574   7.690   5.951
12834TIP3   OH238446   1.999   7.940   5.832
12834TIP3    H138447   2.094   7.917   5.842
12834TIP3    H238448   1.961   7.856   5.798
12835TIP3   OH238449   3.268   7.912   6.091
12835TIP3    H138450   3.184   7.957   6.069
12835TIP3    H238451   3.270   7.929   6.187
12836TIP3   OH238452   1.927   7.524   6.358
12836TIP3    H138453   1.865   7.559   6.292
12836TIP3    H238454   1.875   7.538   6.440
12837TIP3   OH238455   2.261   8.341   5.363
12837TIP3    H138456   2.216   8.344   5.278
12837TIP3    H238457   2.291   8.434   5.375
12838TIP3   OH238458   2.035   8.309   6.151
12838TIP3    H138459   1.988   8.384   6.194
12838TIP3    H238460   2.070   8.355   6.073
12839TIP3   OH238461   2.829   7.639   5.720
12839TIP3    H138462   2.814   7.593   5.803
12839TIP3    H238463   2.881   7.717   5.749
12840TIP3   OH238464   1.798   7.638   6.140
12840TIP3    H138465   1.860   7.710   6.165
12840TIP3    H238466   1.848   7.598   6.066
12841TIP3   OH238467   1.275   8.162   5.508
12841TIP3    H138468   1.222   8.191   5.432
12841TIP3    H238469   1.283   8.247   5.554
12842TIP3   OH238470   2.987   7.603   6.091
12842TIP3    H138471   2.899   7.627   6.058
12842TIP3    H238472   3.046   7.634   6.019
12843TIP3   OH238473   2.278   7.240   6.074
12843TIP3    H138474   2.262   7.145   6.093
12843TIP3    H238475   2.201   7.280   6.120
12844TIP3   OH238476   2.631   8.471   5.286
12844TIP3    H138477   2.602   8.389   5.242
12844TIP3    H238478   2.640   8.443   5.379
12845TIP3   OH238479   2.919   8.611   6.074
12845TIP3    H138480   2.899   8.533   6.018
12845TIP3    H238481   2.938   8.680   6.007
12846TIP3   OH238482   2.212   7.999   5.334
12846TIP3    H138483   2.132   8.053   5.317
12846TIP3    H238484   2.256   8.001   5.247
12847TIP3   OH238485   2.168   7.792   5.040
12847TIP3    H138486   2.233   7.844   5.091
12847TIP3    H238487   2.228   7.731   4.993
12848TIP3   OH238488   3.117   8.254   5.917
12848TIP3    H138489   3.032   8.302   5.923
12848TIP3    H238490   3.145   8.278   5.826
12849TIP3   OH238491   2.561   8.080   5.303
12849TIP3    H138492   2.506   8.101   5.382
12849TIP3    H238493   2.645   8.055   5.346
12850TIP3   OH238494   2.792   8.127   6.213
12850TIP3    H138495   2.791   8.207   6.268
12850TIP3    H238496   2.704   8.134   6.170
12851TIP3   OH238497   1.802   8.085   5.703
12851TIP3    H138498   1.760   8.023   5.639
12851TIP3    H238499   1.875   8.031   5.740
12852TIP3   OH238500   1.936   8.461   5.906
12852TIP3    H138501   1.896   8.458   5.818
12852TIP3    H238502   2.030   8.440   5.889
12853TIP3   OH238503   1.917   8.065   6.075
12853TIP3    H138504   1.954   8.038   5.988
12853TIP3    H238505   1.962   8.151   6.092
12854TIP3   OH238506   2.393   7.948   5.127
12854TIP3    H138507   2.455   8.006   5.176
12854TIP3    H238508   2.423   7.963   5.034
12855TIP3   OH238509   2.914   7.187   5.174
12855TIP3    H138510   2.832   7.208   5.224
12855TIP3    H238511   2.928   7.270   5.124
12856TIP3   OH238512   1.663   7.927   5.510
12856TIP3    H138513   1.591   7.967   5.458
12856TIP3    H238514   1.619   7.850   5.548
12857TIP3   OH238515   3.047   8.089   6.391
12857TIP3    H138516   2.960   8.103   6.352
12857TIP3    H238517   3.060   7.993   6.376
12858TIP3   OH238518   2.042   7.320   6.202
12858TIP3    H138519   1.954   7.288   6.173
12858TIP3    H238520   2.014   7.399   6.253
12859TIP3   OH238521   2.576   7.434   6.396
12859TIP3    H138522   2.645   7.406   6.460
12859TIP3    H238523   2.492   7.414   6.444
12860TIP3   OH238524   2.819   7.870   6.316
12860TIP3    H138525   2.764   7.862   6.397
12860TIP3    H238526   2.790   7.955   6.279
12861TIP3   OH238527   2.476   7.974   4.871
12861TIP3    H138528   2.442   7.955   4.782
12861TIP3    H238529   2.539   8.046   4.852
12862TIP3   OH238530   2.169   7.376   5.162
12862TIP3    H138531   2.148   7.373   5.258
12862TIP3    H238532   2.136   7.288   5.137
12863TIP3   OH238533   1.974   7.838   6.219
12863TIP3    H138534   1.934   7.862   6.305
12863TIP3    H238535   1.959   7.920   6.168
12864TIP3   OH238536   1.856   7.725   5.734
12864TIP3    H138537   1.764   7.696   5.755
12864TIP3    H238538   1.868   7.681   5.647
12865TIP3   OH238539   2.351   7.804   5.464
12865TIP3    H138540   2.298   7.873   5.418
12865TIP3    H238541   2.406   7.770   5.391
12866TIP3   OH238542   2.524   8.079   6.528
12866TIP3    H138543   2.506   8.014   6.599
12866TIP3    H238544   2.611   8.113   6.555
12867TIP3   OH238545   2.506   7.833   5.699
12867TIP3    H138546   2.442   7.860   5.629
12867TIP3    H238547   2.541   7.753   5.654
12868TIP3   OH238548   1.793   7.862   6.432
12868TIP3    H138549   1.835   7.899   6.510
12868TIP3    H238550   1.767   7.774   6.466
12869TIP3   OH238551   1.392   7.382   6.006
12869TIP3    H138552   1.464   7.416   6.062
12869TIP3    H238553   1.437   7.352   5.926
12870TIP3   OH238554   1.351   7.364   5.519
12870TIP3    H138555   1.414   7.404   5.457
12870TIP3    H238556   1.293   7.439   5.541
12871TIP3   OH238557   2.515   8.080   6.118
12871TIP3    H138558   2.549   8.008   6.061
12871TIP3    H238559   2.484   8.027   6.195
12872TIP3   OH238560   2.190   7.546   5.794
12872TIP3    H138561   2.107   7.543   5.847
12872TIP3    H238562   2.258   7.536   5.862
12873TIP3   OH238563   1.621   7.602   5.801
12873TIP3    H138564   1.526   7.612   5.774
12873TIP3    H238565   1.640   7.509   5.781
12874TIP3   OH238566   1.887   7.591   5.497
12874TIP3    H138567   1.982   7.606   5.477
12874TIP3    H238568   1.842   7.615   5.413
12875TIP3   OH238569   2.678   7.619   5.996
12875TIP3    H138570   2.648   7.633   6.089
12875TIP3    H238571   2.609   7.559   5.963
12876TIP3   OH238572   1.734   7.632   5.277
12876TIP3    H138573   1.647   7.603   5.249
12876TIP3    H238574   1.776   7.664   5.195
12877TIP3   OH238575   2.266   7.876   5.894
12877TIP3    H138576   2.337   7.831   5.846
12877TIP3    H238577   2.268   7.831   5.981
12878TIP3   OH238578   1.787   7.357   5.777
12878TIP3    H138579   1.749   7.281   5.827
12878TIP3    H238580   1.837   7.311   5.708
12879TIP3   OH238581   2.243   7.775   6.174
12879TIP3    H138582   2.153   7.808   6.194
12879TIP3    H238583   2.301   7.833   6.228
12880TIP3   OH238584   1.981   8.144   5.284
12880TIP3    H138585   1.902   8.087   5.270
12880TIP3    H238586   1.956   8.190   5.368
12881TIP3   OH238587   2.880   8.391   5.907
12881TIP3    H138588   2.907   8.442   5.827
12881TIP3    H238589   2.796   8.351   5.879
12882TIP3   OH238590   2.432   7.470   5.143
12882TIP3    H138591   2.335   7.457   5.150
12882TIP3    H238592   2.444   7.564   5.168
12883TIP3   OH238593   2.421   8.483   6.272
12883TIP3    H138594   2.461   8.440   6.349
12883TIP3    H238595   2.341   8.523   6.313
12884TIP3   OH238596   2.507   7.719   5.244
12884TIP3    H138597   2.603   7.724   5.260
12884TIP3    H238598   2.489   7.800   5.193
12885TIP3   OH238599   1.647   8.131   5.930
12885TIP3    H138600   1.705   8.122   5.850
12885TIP3    H238601   1.705   8.099   6.001
12886TIP3   OH238602   2.089   8.333   5.119
12886TIP3    H138603   2.049   8.403   5.175
12886TIP3    H238604   2.054   8.254   5.166
12887TIP3   OH238605   2.282   8.209   6.583
12887TIP3    H138606   2.252   8.189   6.494
12887TIP3    H238607   2.376   8.186   6.577
12888TIP3   OH238608   2.946   7.814   5.079
12888TIP3    H138609   2.885   7.769   5.015
12888TIP3    H238610   2.943   7.903   5.038
12889TIP3   OH238611   3.170   8.660   6.165
12889TIP3    H138612   3.073   8.665   6.149
12889TIP3    H238613   3.200   8.642   6.073
12890TIP3   OH238614   2.644   8.264   5.807
12890TIP3    H138615   2.553   8.237   5.831
12890TIP3    H238616   2.679   8.180   5.771
12891TIP3   OH238617   1.342   7.788   5.288
12891TIP3    H138618   1.384   7.874   5.309
12891TIP3    H238619   1.263   7.791   5.347
12892TIP3   OH238620   1.906   8.268   5.521
12892TIP3    H138621   1.865   8.344   5.563
12892TIP3    H238622   1.882   8.199   5.586
12893TIP3   OH238623   2.438   8.465   5.998
12893TIP3    H138624   2.427   8.472   6.095
12893TIP3    H238625   2.521   8.416   5.991
12894TIP3   OH238626   2.441   8.292   4.859
12894TIP3    H138627   2.473   8.280   4.950
12894TIP3    H238628   2.361   8.346   4.873
12895TIP3   OH238629   1.765   7.601   6.573
12895TIP3    H138630   1.668   7.596   6.586
12895TIP3    H238631   1.796   7.545   6.646
12896TIP3   OH238632   2.565   8.266   5.105
12896TIP3    H138633   2.561   8.195   5.173
12896TIP3    H238634   2.662   8.268   5.087
12897TIP3   OH238635   1.735   8.278   4.937
12897TIP3    H138636   1.790   8.201   4.912
12897TIP3    H238637   1.787   8.319   5.006
12898TIP3   OH238638   1.457   8.032   5.356
12898TIP3    H138639   1.396   8.071   5.423
12898TIP3    H238640   1.467   8.108   5.296
12899TIP3   OH238641   2.608   7.669   6.256
12899TIP3    H138642   2.683   7.709   6.303
12899TIP3    H238643   2.590   7.589   6.310
12900TIP3   OH238644   2.484   7.420   5.425
12900TIP3    H138645   2.472   7.443   5.331
12900TIP3    H238646   2.525   7.502   5.462
12901TIP3   OH238647   2.169   7.605   5.525
12901TIP3    H138648   2.234   7.677   5.510
12901TIP3    H238649   2.174   7.595   5.623
12902TIP3   OH238650   2.438   7.917   6.323
12902TIP3    H138651   2.462   7.975   6.399
12902TIP3    H238652   2.492   7.839   6.340
12903TIP3   OH238653   2.312   7.326   5.625
12903TIP3    H138654   2.308   7.403   5.684
12903TIP3    H238655   2.374   7.358   5.556
12904TIP3   OH238656   1.824   7.324   5.416
12904TIP3    H138657   1.826   7.415   5.449
12904TIP3    H238658   1.920   7.305   5.413
12905TIP3   OH238659   3.082   7.819   6.308
12905TIP3    H138660   2.984   7.824   6.320
12905TIP3    H238661   3.084   7.767   6.226
12906TIP3   OH238662   2.731   8.015   5.701
12906TIP3    H138663   2.655   7.956   5.714
12906TIP3    H238664   2.802   7.968   5.749
12907TIP3   OH238665   1.465   8.248   5.166
12907TIP3    H138666   1.495   8.340   5.157
12907TIP3    H238667   1.530   8.200   5.110
12908TIP3   OH238668   1.393   7.521   5.266
12908TIP3    H138669   1.388   7.617   5.286
12908TIP3    H238670   1.302   7.494   5.285
12909TIP3   OH238671   1.777   7.239   6.172
12909TIP3    H138672   1.746   7.203   6.087
12909TIP3    H238673   1.767   7.162   6.232
12910TIP3   OH238674   1.590   8.037   5.039
12910TIP3    H138675   1.642   8.008   5.117
12910TIP3    H238676   1.663   8.044   4.973
12911TIP3   OH238677   2.008   8.225   4.852
12911TIP3    H138678   2.061   8.250   4.929
12911TIP3    H238679   2.047   8.137   4.830
12912TIP3   OH238680   2.702   8.486   6.205
12912TIP3    H138681   2.755   8.558   6.166
12912TIP3    H238682   2.614   8.527   6.212
12913TIP3   OH238683   1.774   7.959   5.238
12913TIP3    H138684   1.750   7.924   5.326
12913TIP3    H238685   1.817   7.883   5.195
12914TIP3   OH238686   2.062   8.007   6.462
12914TIP3    H138687   2.038   8.088   6.511
12914TIP3    H238688   2.117   8.047   6.391
12915TIP3   OH238689   1.888   7.753   5.082
12915TIP3    H138690   1.868   7.759   4.986
12915TIP3    H238691   1.986   7.756   5.079
12916TIP3   OH238692   2.572   8.402   6.549
12916TIP3    H138693   2.665   8.427   6.558
12916TIP3    H238694   2.550   8.376   6.641
12917TIP3   OH238695   2.709   8.094   4.745
12917TIP3    H138696   2.685   8.042   4.666
12917TIP3    H238697   2.687   8.184   4.713
12918TIP3   OH238698   2.194   7.808   6.584
12918TIP3    H138699   2.191   7.728   6.527
12918TIP3    H238700   2.148   7.874   6.527
12919TIP3   OH238701   2.186   7.599   6.400
12919TIP3    H138702   2.211   7.639   6.315
12919TIP3    H238703   2.092   7.576   6.385
12920TIP3   OH238704   2.209   8.143   6.284
12920TIP3    H138705   2.292   8.151   6.234
12920TIP3    H238706   2.151   8.207   6.237
12921TIP3   OH238707   2.804   8.094   6.632
12921TIP3    H138708   2.854   8.011   6.637
12921TIP3    H238709   2.875   8.160   6.627
12922TIP3   OH238710   2.841   8.347   6.387
12922TIP3    H138711   2.778   8.399   6.332
12922TIP3    H238712   2.926   8.375   6.346
12923TIP3   OH238713   2.050   7.909   6.804
12923TIP3    H138714   1.991   7.831   6.813
12923TIP3    H238715   2.091   7.894   6.716
12924TIP3   OH238716   2.315   7.363   6.477
12924TIP3    H138717   2.265   7.444   6.452
12924TIP3    H238718   2.247   7.294   6.465
12925TIP3   OH238719   2.448   7.861   6.677
12925TIP3    H138720   2.421   7.842   6.769
12925TIP3    H238721   2.361   7.845   6.634
12926TIP3   OH238722   2.681   7.805   6.537
12926TIP3    H138723   2.605   7.818   6.597
12926TIP3    H238724   2.753   7.780   6.599
12927TIP3   OH238725   2.917   7.756   6.691
12927TIP3    H138726   2.927   7.659   6.701
12927TIP3    H238727   2.908   7.785   6.784
12928TIP3   OH238728   1.894   7.701   6.880
12928TIP3    H138729   1.879   7.616   6.835
12928TIP3    H238730   1.942   7.670   6.959
12929TIP3   OH238731   2.410   7.369   6.734
12929TIP3    H138732   2.475   7.296   6.724
12929TIP3    H238733   2.369   7.367   6.646
12930TIP3   OH238734   2.481   7.585   6.888
12930TIP3    H138735   2.463   7.511   6.827
12930TIP3    H238736   2.400   7.640   6.878
12931TIP3   OH238737   1.197   8.200   5.124
12931TIP3    H138738   1.292   8.204   5.149
12931TIP3    H238739   1.180   8.104   5.121
12932TIP3   OH238740   2.837   8.263   5.088
12932TIP3    H138741   2.908   8.322   5.054
12932TIP3    H238742   2.883   8.224   5.166
12933TIP3   OH238743   2.972   8.136   5.286
12933TIP3    H138744   2.910   8.093   5.349
12933TIP3    H238745   3.042   8.171   5.346
12934TIP3   OH238746   3.014   8.527   5.714
12934TIP3    H138747   3.079   8.469   5.669
12934TIP3    H238748   3.019   8.609   5.664
12935TIP3   OH238749   2.909   8.048   4.928
12935TIP3    H138750   2.838   8.053   4.860
12935TIP3    H238751   2.881   8.122   4.986
12936TIP3   OH238752   2.783   7.720   4.884
12936TIP3    H138753   2.735   7.755   4.808
12936TIP3    H238754   2.760   7.624   4.877
12937TIP3   OH238755   2.787   7.995   5.433
12937TIP3    H138756   2.796   7.898   5.424
12937TIP3    H238757   2.773   8.006   5.530
12938TIP3   OH238758   1.422   8.038   6.185
12938TIP3    H138759   1.413   8.044   6.089
12938TIP3    H238760   1.511   8.074   6.201
12939TIP3   OH238761   3.083   8.423   6.293
12939TIP3    H138762   3.153   8.354   6.279
12939TIP3    H238763   3.103   8.487   6.222
12940TIP3   OH238764   3.264   8.222   6.294
12940TIP3    H138765   3.189   8.175   6.337
12940TIP3    H238766   3.336   8.161   6.319
12941TIP3   OH238767   2.725   7.454   4.869
12941TIP3    H138768   2.800   7.422   4.924
12941TIP3    H238769   2.653   7.393   4.891
12942TIP3   OH238770   2.785   7.714   5.322
12942TIP3    H138771   2.825   7.625   5.337
12942TIP3    H238772   2.843   7.745   5.251
12943TIP3   OH238773   2.944   7.883   5.820
12943TIP3    H138774   3.030   7.908   5.779
12943TIP3    H238775   2.958   7.921   5.909
12944TIP3   OH238776   3.016   8.030   6.049
12944TIP3    H138777   2.939   8.063   6.101
12944TIP3    H238778   3.048   8.113   6.007
12945TIP3   OH238779   3.470   7.629   6.606
12945TIP3    H138780   3.528   7.561   6.565
12945TIP3    H238781   3.437   7.676   6.526
12946TIP3   OH238782   2.892   7.464   5.363
12946TIP3    H138783   2.940   7.447   5.447
12946TIP3    H238784   2.831   7.387   5.361
12947TIP3   OH238785   1.592   7.447   6.184
12947TIP3    H138786   1.654   7.372   6.192
12947TIP3    H238787   1.654   7.521   6.176
12948TIP3   OH238788   1.392   7.744   6.261
12948TIP3    H138789   1.440   7.729   6.178
12948TIP3    H238790   1.398   7.841   6.267
12949TIP3   OH238791   3.335   7.759   6.410
12949TIP3    H138792   3.249   7.802   6.430
12949TIP3    H238793   3.302   7.686   6.352
12950TIP3   OH238794   2.970   7.395   4.996
12950TIP3    H138795   3.010   7.324   4.942
12950TIP3    H238796   3.038   7.464   4.993
12951TIP3   OH238797   1.377   7.222   5.751
12951TIP3    H138798   1.288   7.218   5.789
12951TIP3    H238799   1.366   7.285   5.677
12952TIP3   OH238800   1.602   7.301   6.553
12952TIP3    H138801   1.551   7.296   6.635
12952TIP3    H238802   1.535   7.339   6.493
12953TIP3   OH238803   3.236   7.521   6.293
12953TIP3    H138804   3.145   7.510   6.258
12953TIP3    H238805   3.270   7.429   6.283
12954TIP3   OH238806   2.438   7.436   5.911
12954TIP3    H138807   2.397   7.365   5.964
12954TIP3    H238808   2.513   7.390   5.869
12955TIP3   OH238809   2.960   7.322   5.817
12955TIP3    H138810   2.996   7.372   5.740
12955TIP3    H238811   2.865   7.337   5.808
12956TIP3   OH238812   3.057   7.418   5.579
12956TIP3    H138813   3.131   7.366   5.541
12956TIP3    H238814   3.091   7.509   5.565
12957TIP3   OH238815   1.687   7.146   5.925
12957TIP3    H138816   1.595   7.111   5.931
12957TIP3    H238817   1.736   7.061   5.923
12958TIP3   OH238818   1.459   7.021   5.575
12958TIP3    H138819   1.500   7.079   5.511
12958TIP3    H238820   1.439   7.083   5.648
12959TIP3   OH238821   2.132   7.181   5.806
12959TIP3    H138822   2.191   7.229   5.746
12959TIP3    H238823   2.158   7.215   5.892
12960TIP3   OH238824   2.677   7.326   5.790
12960TIP3    H138825   2.679   7.283   5.704
12960TIP3    H238826   2.666   7.248   5.850
12961TIP3   OH238827   2.709   7.251   5.355
12961TIP3    H138828   2.622   7.292   5.373
12961TIP3    H238829   2.698   7.164   5.400
12962TIP3   OH238830   1.601   7.191   5.322
12962TIP3    H138831   1.647   7.111   5.294
12962TIP3    H238832   1.673   7.241   5.365
12963TIP3   OH238833   2.107   7.356   5.429
12963TIP3    H138834   2.158   7.303   5.493
12963TIP3    H238835   2.129   7.446   5.462
12964TIP3   OH238836   1.908   7.435   6.793
12964TIP3    H138837   1.847   7.392   6.855
12964TIP3    H238838   1.995   7.422   6.836
12965TIP3   OH238839   2.153   7.413   6.929
12965TIP3    H138840   2.237   7.387   6.887
12965TIP3    H238841   2.140   7.340   6.994
12966TIP3   OH238842   2.974   7.487   6.724
12966TIP3    H138843   2.990   7.456   6.816
12966TIP3    H238844   3.063   7.480   6.684
12967TIP3   OH238845   4.180   8.394   4.990
12967TIP3    H138846   4.143   8.481   4.962
12967TIP3    H238847   4.109   8.336   4.959
12968TIP3   OH238848   4.179   8.411   5.367
12968TIP3    H138849   4.214   8.387   5.455
12968TIP3    H238850   4.137   8.327   5.339
12969TIP3   OH238851   3.472   8.305   5.731
12969TIP3    H138852   3.503   8.236   5.792
12969TIP3    H238853   3.550   8.361   5.724
12970TIP3   OH238854   4.395   8.713   5.056
12970TIP3    H138855   4.394   8.640   5.120
12970TIP3    H238856   4.452   8.777   5.100
12971TIP3   OH238857   3.505   8.655   5.533
12971TIP3    H138858   3.475   8.568   5.501
12971TIP3    H238859   3.588   8.667   5.482
12972TIP3   OH238860   3.155   7.916   5.234
12972TIP3    H138861   3.109   7.999   5.253
12972TIP3    H238862   3.082   7.865   5.192
12973TIP3   OH238863   3.207   8.205   5.415
12973TIP3    H138864   3.257   8.127   5.447
12973TIP3    H238865   3.278   8.258   5.374
12974TIP3   OH238866   3.991   8.627   5.405
12974TIP3    H138867   4.040   8.549   5.373
12974TIP3    H238868   4.068   8.682   5.433
12975TIP3   OH238869   4.991   7.956   5.410
12975TIP3    H138870   5.019   8.039   5.452
12975TIP3    H238871   5.016   7.971   5.317
12976TIP3   OH238872   4.388   8.138   5.442
12976TIP3    H138873   4.430   8.053   5.463
12976TIP3    H238874   4.355   8.120   5.352
12977TIP3   OH238875   3.729   7.798   5.407
12977TIP3    H138876   3.707   7.871   5.345
12977TIP3    H238877   3.680   7.724   5.365
12978TIP3   OH238878   4.422   7.891   5.028
12978TIP3    H138879   4.492   7.876   5.095
12978TIP3    H238880   4.476   7.925   4.954
12979TIP3   OH238881   3.358   8.000   5.517
12979TIP3    H138882   3.441   7.981   5.565
12979TIP3    H238883   3.372   7.945   5.437
12980TIP3   OH238884   3.797   8.197   5.314
12980TIP3    H138885   3.892   8.173   5.325
12980TIP3    H238886   3.759   8.113   5.281
12981TIP3   OH238887   5.062   8.164   5.583
12981TIP3    H138888   4.978   8.211   5.566
12981TIP3    H238889   5.092   8.207   5.665
12982TIP3   OH238890   3.722   7.783   5.845
12982TIP3    H138891   3.662   7.819   5.777
12982TIP3    H238892   3.668   7.800   5.926
12983TIP3   OH238893   4.060   8.596   4.849
12983TIP3    H138894   4.009   8.596   4.767
12983TIP3    H238895   4.082   8.690   4.861
12984TIP3   OH238896   3.825   8.563   5.636
12984TIP3    H138897   3.761   8.629   5.668
12984TIP3    H238898   3.859   8.608   5.556
12985TIP3   OH238899   4.625   7.897   5.206
12985TIP3    H138900   4.615   7.848   5.289
12985TIP3    H238901   4.679   7.973   5.235
12986TIP3   OH238902   3.594   7.896   5.627
12986TIP3    H138903   3.656   7.969   5.650
12986TIP3    H238904   3.644   7.856   5.552
12987TIP3   OH238905   3.655   8.774   5.742
12987TIP3    H138906   3.609   8.767   5.656
12987TIP3    H238907   3.577   8.772   5.801
12988TIP3   OH238908   3.046   8.406   4.979
12988TIP3    H138909   3.012   8.419   4.887
12988TIP3    H238910   3.062   8.498   5.002
12989TIP3   OH238911   4.782   7.857   5.576
12989TIP3    H138912   4.695   7.883   5.543
12989TIP3    H238913   4.843   7.890   5.506
12990TIP3   OH238914   4.074   7.497   5.559
12990TIP3    H138915   4.059   7.402   5.579
12990TIP3    H238916   3.997   7.536   5.606
12991TIP3   OH238917   4.422   8.729   4.773
12991TIP3    H138918   4.399   8.645   4.728
12991TIP3    H238919   4.434   8.701   4.866
12992TIP3   OH238920   4.707   8.866   5.560
12992TIP3    H138921   4.696   8.790   5.500
12992TIP3    H238922   4.738   8.936   5.498
12993TIP3   OH238923   4.010   8.256   4.820
12993TIP3    H138924   3.929   8.309   4.803
12993TIP3    H238925   4.053   8.256   4.732
12994TIP3   OH238926   3.966   8.050   4.527
12994TIP3    H138927   4.033   8.101   4.575
12994TIP3    H238928   4.023   7.986   4.480
12995TIP3   OH238929   4.913   8.508   5.403
12995TIP3    H138930   4.829   8.558   5.408
12995TIP3    H238931   4.942   8.532   5.312
12996TIP3   OH238932   4.357   8.337   4.790
12996TIP3    H138933   4.302   8.357   4.869
12996TIP3    H238934   4.441   8.312   4.833
12997TIP3   OH238935   4.588   8.384   5.701
12997TIP3    H138936   4.586   8.468   5.750
12997TIP3    H238937   4.501   8.387   5.656
12998TIP3   OH238938   3.595   8.342   5.193
12998TIP3    H138939   3.552   8.282   5.129
12998TIP3    H238940   3.669   8.288   5.227
12999TIP3   OH238941   3.727   8.707   5.398
12999TIP3    H138942   3.689   8.705   5.308
12999TIP3    H238943   3.824   8.704   5.381
13000TIP3   OH238944   3.717   8.319   5.555
13000TIP3    H138945   3.753   8.293   5.468
13000TIP3    H238946   3.763   8.404   5.572
13001TIP3   OH238947   3.905   8.773   5.879
13001TIP3    H138948   3.869   8.861   5.900
13001TIP3    H238949   3.832   8.739   5.826
13002TIP3   OH238950   4.190   8.205   4.612
13002TIP3    H138951   4.251   8.263   4.663
13002TIP3    H238952   4.219   8.225   4.519
13003TIP3   OH238953   3.617   8.423   5.989
13003TIP3    H138954   3.621   8.513   6.027
13003TIP3    H238955   3.522   8.403   6.000
13004TIP3   OH238956   4.711   7.443   4.661
13004TIP3    H138957   4.629   7.465   4.711
13004TIP3    H238958   4.725   7.526   4.611
13005TIP3   OH238959   3.458   8.185   5.004
13005TIP3    H138960   3.388   8.226   4.949
13005TIP3    H238961   3.418   8.099   5.023
13006TIP3   OH238962   3.251   8.572   5.921
13006TIP3    H138963   3.180   8.556   5.857
13006TIP3    H238964   3.283   8.481   5.941
13007TIP3   OH238965   4.846   8.347   5.875
13007TIP3    H138966   4.761   8.360   5.830
13007TIP3    H238967   4.859   8.251   5.863
13008TIP3   OH238968   3.443   8.771   5.914
13008TIP3    H138969   3.493   8.734   5.989
13008TIP3    H238970   3.368   8.708   5.908
13009TIP3   OH238971   3.837   7.576   5.690
13009TIP3    H138972   3.749   7.545   5.660
13009TIP3    H238973   3.810   7.657   5.738
13010TIP3   OH238974   4.373   7.691   5.883
13010TIP3    H138975   4.442   7.662   5.946
13010TIP3    H238976   4.290   7.671   5.931
13011TIP3   OH238977   4.609   8.122   5.801
13011TIP3    H138978   4.558   8.119   5.885
13011TIP3    H238979   4.586   8.209   5.765
13012TIP3   OH238980   4.273   8.243   4.358
13012TIP3    H138981   4.237   8.221   4.270
13012TIP3    H238982   4.353   8.292   4.333
13013TIP3   OH238983   3.982   7.624   4.660
13013TIP3    H138984   3.948   7.620   4.751
13013TIP3    H238985   3.943   7.542   4.624
13014TIP3   OH238986   3.770   8.096   5.704
13014TIP3    H138987   3.720   8.114   5.786
13014TIP3    H238988   3.752   8.178   5.652
13015TIP3   OH238989   3.653   7.980   5.220
13015TIP3    H138990   3.560   7.952   5.240
13015TIP3    H238991   3.664   7.938   5.132
13016TIP3   OH238992   4.147   8.061   4.952
13016TIP3    H138993   4.094   8.129   4.906
13016TIP3    H238994   4.203   8.026   4.879
13017TIP3   OH238995   4.323   8.336   6.030
13017TIP3    H138996   4.300   8.265   6.094
13017TIP3    H238997   4.416   8.353   6.054
13018TIP3   OH238998   4.301   8.090   5.186
13018TIP3    H138999   4.238   8.116   5.116
13018TIP3    H239000   4.337   8.010   5.142
13019TIP3   OH239001   3.591   8.120   5.913
13019TIP3    H139002   3.616   8.185   5.980
13019TIP3    H239003   3.577   8.039   5.966
13020TIP3   OH239004   3.639   7.600   4.624
13020TIP3    H139005   3.630   7.598   4.721
13020TIP3    H239006   3.560   7.652   4.599
13021TIP3   OH239007   3.182   7.641   5.496
13021TIP3    H139008   3.257   7.674   5.550
13021TIP3    H239009   3.223   7.610   5.415
13022TIP3   OH239010   3.147   7.622   5.014
13022TIP3    H139011   3.194   7.658   4.936
13022TIP3    H239012   3.087   7.696   5.033
13023TIP3   OH239013   4.312   8.336   5.607
13023TIP3    H139014   4.345   8.265   5.548
13023TIP3    H239015   4.280   8.283   5.683
13024TIP3   OH239016   3.986   7.802   5.281
13024TIP3    H139017   3.905   7.799   5.335
13024TIP3    H239018   4.055   7.792   5.348
13025TIP3   OH239019   3.416   7.857   5.288
13025TIP3    H139020   3.321   7.865   5.260
13025TIP3    H239021   3.438   7.765   5.266
13026TIP3   OH239022   3.680   7.851   4.980
13026TIP3    H139023   3.774   7.865   4.958
13026TIP3    H239024   3.633   7.873   4.896
13027TIP3   OH239025   4.473   7.877   5.486
13027TIP3    H139026   4.440   7.890   5.577
13027TIP3    H239027   4.407   7.816   5.450
13028TIP3   OH239028   3.529   7.888   4.756
13028TIP3    H139029   3.458   7.842   4.708
13028TIP3    H239030   3.581   7.924   4.681
13029TIP3   OH239031   3.601   8.673   6.126
13029TIP3    H139032   3.682   8.701   6.174
13029TIP3    H239033   3.538   8.671   6.200
13030TIP3   OH239034   4.063   8.132   5.380
13030TIP3    H139035   4.135   8.090   5.330
13030TIP3    H239036   4.067   8.086   5.466
13031TIP3   OH239037   3.583   7.615   5.262
13031TIP3    H139038   3.546   7.538   5.312
13031TIP3    H239039   3.630   7.570   5.191
13032TIP3   OH239040   4.039   8.030   5.666
13032TIP3    H139041   3.949   8.064   5.681
13032TIP3    H239042   4.095   8.091   5.717
13033TIP3   OH239043   3.779   8.402   4.770
13033TIP3    H139044   3.703   8.343   4.757
13033TIP3    H239045   3.753   8.448   4.854
13034TIP3   OH239046   4.677   8.647   5.392
13034TIP3    H139047   4.704   8.697   5.313
13034TIP3    H239048   4.592   8.606   5.363
13035TIP3   OH239049   4.234   7.726   4.630
13035TIP3    H139050   4.137   7.706   4.639
13035TIP3    H239051   4.240   7.820   4.656
13036TIP3   OH239052   4.186   8.758   5.760
13036TIP3    H139053   4.219   8.706   5.835
13036TIP3    H239054   4.103   8.793   5.795
13037TIP3   OH239055   4.303   7.977   4.733
13037TIP3    H139056   4.399   7.981   4.747
13037TIP3    H239057   4.285   8.056   4.680
13038TIP3   OH239058   3.452   8.396   5.426
13038TIP3    H139059   3.503   8.386   5.343
13038TIP3    H239060   3.510   8.352   5.490
13039TIP3   OH239061   3.889   8.585   4.601
13039TIP3    H139062   3.850   8.657   4.654
13039TIP3    H239063   3.854   8.508   4.651
13040TIP3   OH239064   3.354   8.347   6.053
13040TIP3    H139065   3.359   8.328   6.149
13040TIP3    H239066   3.281   8.287   6.027
13041TIP3   OH239067   4.082   8.458   6.085
13041TIP3    H139068   4.018   8.410   6.029
13041TIP3    H239069   4.167   8.426   6.050
13042TIP3   OH239070   4.741   8.070   4.566
13042TIP3    H139071   4.680   8.026   4.503
13042TIP3    H239072   4.739   8.159   4.525
13043TIP3   OH239073   4.965   8.902   5.654
13043TIP3    H139074   4.870   8.922   5.643
13043TIP3    H239075   4.991   8.892   5.559
13044TIP3   OH239076   4.440   8.520   5.294
13044TIP3    H139077   4.349   8.494   5.317
13044TIP3    H239078   4.474   8.436   5.258
13045TIP3   OH239079   3.136   8.045   4.771
13045TIP3    H139080   3.181   8.129   4.791
13045TIP3    H239081   3.058   8.051   4.830
13046TIP3   OH239082   3.702   8.525   5.008
13046TIP3    H139083   3.658   8.599   5.051
13046TIP3    H239084   3.681   8.455   5.074
13047TIP3   OH239085   4.232   8.719   5.490
13047TIP3    H139086   4.219   8.732   5.586
13047TIP3    H239087   4.317   8.675   5.486
13048TIP3   OH239088   4.233   8.580   4.351
13048TIP3    H139089   4.266   8.557   4.441
13048TIP3    H239090   4.138   8.581   4.363
13049TIP3   OH239091   3.557   7.865   6.060
13049TIP3    H139092   3.460   7.869   6.069
13049TIP3    H239093   3.581   7.801   6.129
13050TIP3   OH239094   4.361   8.523   4.593
13050TIP3    H139095   4.356   8.451   4.659
13050TIP3    H239096   4.458   8.523   4.573
13051TIP3   OH239097   3.568   8.546   4.420
13051TIP3    H139098   3.593   8.453   4.401
13051TIP3    H239099   3.569   8.548   4.516
13052TIP3   OH239100   3.255   8.286   4.847
13052TIP3    H139101   3.186   8.321   4.908
13052TIP3    H239102   3.258   8.360   4.783
13053TIP3   OH239103   4.399   7.930   5.746
13053TIP3    H139104   4.482   7.966   5.783
13053TIP3    H239105   4.387   7.848   5.799
13054TIP3   OH239106   4.280   7.676   4.912
13054TIP3    H139107   4.267   7.698   4.818
13054TIP3    H239108   4.320   7.759   4.947
13055TIP3   OH239109   3.964   7.862   5.012
13055TIP3    H139110   4.030   7.933   4.995
13055TIP3    H239111   3.971   7.852   5.109
13056TIP3   OH239112   4.237   8.176   5.814
13056TIP3    H139113   4.264   8.227   5.893
13056TIP3    H239114   4.290   8.094   5.823
13057TIP3   OH239115   4.108   7.581   5.111
13057TIP3    H139116   4.103   7.659   5.169
13057TIP3    H239117   4.171   7.614   5.042
13058TIP3   OH239118   3.623   7.586   4.900
13058TIP3    H139119   3.621   7.675   4.940
13058TIP3    H239120   3.719   7.568   4.908
13059TIP3   OH239121   4.875   8.078   5.805
13059TIP3    H139122   4.777   8.075   5.809
13059TIP3    H239123   4.889   8.039   5.717
13060TIP3   OH239124   4.527   8.272   5.188
13060TIP3    H139125   4.451   8.212   5.200
13060TIP3    H239126   4.598   8.225   5.236
13061TIP3   OH239127   3.244   8.501   4.662
13061TIP3    H139128   3.270   8.594   4.649
13061TIP3    H239129   3.299   8.454   4.596
13062TIP3   OH239130   3.184   7.775   4.790
13062TIP3    H139131   3.184   7.873   4.789
13062TIP3    H239132   3.103   7.755   4.743
13063TIP3   OH239133   3.573   7.496   5.660
13063TIP3    H139134   3.542   7.461   5.574
13063TIP3    H239135   3.562   7.418   5.718
13064TIP3   OH239136   3.397   8.653   6.315
13064TIP3    H139137   3.422   8.558   6.312
13064TIP3    H239138   3.313   8.651   6.265
13065TIP3   OH239139   3.375   8.308   4.515
13065TIP3    H139140   3.421   8.270   4.592
13065TIP3    H239141   3.447   8.305   4.448
13066TIP3   OH239142   4.020   8.723   6.122
13066TIP3    H139143   3.988   8.738   6.031
13066TIP3    H239144   4.054   8.631   6.114
13067TIP3   OH239145   3.855   8.492   4.325
13067TIP3    H139146   3.852   8.500   4.421
13067TIP3    H239147   3.872   8.396   4.312
13068TIP3   OH239148   4.495   8.750   5.695
13068TIP3    H139149   4.564   8.804   5.651
13068TIP3    H239150   4.420   8.811   5.689
13069TIP3   OH239151   3.522   8.405   6.297
13069TIP3    H139152   3.597   8.359   6.258
13069TIP3    H239153   3.558   8.437   6.382
13070TIP3   OH239154   3.576   8.218   4.725
13070TIP3    H139155   3.550   8.177   4.810
13070TIP3    H239156   3.617   8.142   4.678
13071TIP3   OH239157   3.854   8.281   5.959
13071TIP3    H139158   3.776   8.341   5.960
13071TIP3    H239159   3.905   8.318   5.882
13072TIP3   OH239160   3.688   8.015   4.571
13072TIP3    H139161   3.663   8.015   4.476
13072TIP3    H239162   3.786   8.016   4.564
13073TIP3   OH239163   4.378   8.673   6.090
13073TIP3    H139164   4.457   8.645   6.042
13073TIP3    H239165   4.374   8.609   6.163
13074TIP3   OH239166   4.501   8.345   4.236
13074TIP3    H139167   4.482   8.296   4.154
13074TIP3    H239168   4.478   8.435   4.205
13075TIP3   OH239169   3.979   8.073   6.083
13075TIP3    H139170   3.979   7.994   6.025
13075TIP3    H239171   3.934   8.140   6.026
13076TIP3   OH239172   3.980   7.860   5.893
13076TIP3    H139173   4.008   7.900   5.808
13076TIP3    H239174   3.887   7.836   5.874
13077TIP3   OH239175   4.000   8.397   5.767
13077TIP3    H139176   4.084   8.405   5.719
13077TIP3    H239177   3.944   8.463   5.721
13078TIP3   OH239178   4.589   8.361   6.144
13078TIP3    H139179   4.639   8.278   6.155
13078TIP3    H239180   4.658   8.422   6.114
13079TIP3   OH239181   4.628   8.609   5.881
13079TIP3    H139182   4.571   8.664   5.822
13079TIP3    H239183   4.716   8.632   5.843
13080TIP3   OH239184   3.850   8.176   6.315
13080TIP3    H139185   3.789   8.100   6.322
13080TIP3    H239186   3.888   8.162   6.226
13081TIP3   OH239187   4.111   7.621   5.962
13081TIP3    H139188   4.061   7.701   5.938
13081TIP3    H239189   4.044   7.551   5.950
13082TIP3   OH239190   4.238   8.122   6.176
13082TIP3    H139191   4.220   8.109   6.271
13082TIP3    H239192   4.149   8.100   6.140
13083TIP3   OH239193   4.477   8.075   6.032
13083TIP3    H139194   4.402   8.075   6.094
13083TIP3    H239195   4.551   8.042   6.088
13084TIP3   OH239196   4.706   8.011   6.178
13084TIP3    H139197   4.718   7.915   6.196
13084TIP3    H239198   4.703   8.050   6.268
13085TIP3   OH239199   3.695   7.957   6.378
13085TIP3    H139200   3.694   7.869   6.335
13085TIP3    H239201   3.744   7.936   6.460
13086TIP3   OH239202   4.205   7.631   6.220
13086TIP3    H139203   4.271   7.559   6.214
13086TIP3    H239204   4.165   7.626   6.130
13087TIP3   OH239205   4.271   7.846   6.377
13087TIP3    H139206   4.252   7.773   6.313
13087TIP3    H239207   4.193   7.903   6.367
13088TIP3   OH239208   2.982   8.408   4.705
13088TIP3    H139209   3.063   8.450   4.670
13088TIP3    H239210   2.969   8.335   4.641
13089TIP3   OH239211   4.857   9.046   5.941
13089TIP3    H139212   4.778   9.017   5.989
13089TIP3    H239213   4.905   9.092   6.013
13090TIP3   OH239214   4.633   8.521   4.574
13090TIP3    H139215   4.704   8.579   4.540
13090TIP3    H239216   4.679   8.482   4.652
13091TIP3   OH239217   4.768   8.394   4.773
13091TIP3    H139218   4.707   8.351   4.836
13091TIP3    H239219   4.840   8.428   4.830
13092TIP3   OH239220   4.809   8.783   5.198
13092TIP3    H139221   4.874   8.725   5.154
13092TIP3    H239222   4.817   8.866   5.150
13093TIP3   OH239223   4.706   8.305   4.416
13093TIP3    H139224   4.634   8.308   4.349
13093TIP3    H239225   4.678   8.379   4.473
13094TIP3   OH239226   4.576   7.977   4.371
13094TIP3    H139227   4.533   8.009   4.291
13094TIP3    H239228   4.555   7.881   4.366
13095TIP3   OH239229   4.583   8.251   4.920
13095TIP3    H139230   4.592   8.155   4.910
13095TIP3    H239231   4.569   8.262   5.017
13096TIP3   OH239232   3.208   8.331   5.666
13096TIP3    H139233   3.204   8.295   5.575
13096TIP3    H239234   3.305   8.331   5.681
13097TIP3   OH239235   4.874   8.675   5.784
13097TIP3    H139236   4.949   8.613   5.771
13097TIP3    H239237   4.897   8.748   5.722
13098TIP3   OH239238   5.066   8.484   5.792
13098TIP3    H139239   4.989   8.434   5.827
13098TIP3    H239240   5.137   8.416   5.805
13099TIP3   OH239241   4.521   7.711   4.355
13099TIP3    H139242   4.595   7.678   4.410
13099TIP3    H239243   4.448   7.651   4.376
13100TIP3   OH239244   4.581   7.970   4.808
13100TIP3    H139245   4.622   7.882   4.824
13100TIP3    H239246   4.639   8.002   4.737
13101TIP3   OH239247   4.740   8.141   5.308
13101TIP3    H139248   4.826   8.166   5.266
13101TIP3    H239249   4.756   8.178   5.397
13102TIP3   OH239250   4.813   8.287   5.539
13102TIP3    H139251   4.735   8.322   5.586
13102TIP3    H239252   4.846   8.368   5.493
13103TIP3   OH239253   3.430   8.013   6.348
13103TIP3    H139254   3.527   8.002   6.346
13103TIP3    H239255   3.402   7.925   6.380
13104TIP3   OH239256   5.242   7.874   6.093
13104TIP3    H139257   5.316   7.817   6.061
13104TIP3    H239258   5.224   7.930   6.015
13105TIP3   OH239259   4.688   7.721   4.850
13105TIP3    H139260   4.736   7.704   4.934
13105TIP3    H239261   4.627   7.644   4.848
13106TIP3   OH239262   3.389   7.705   5.670
13106TIP3    H139263   3.450   7.629   5.678
13106TIP3    H239264   3.452   7.779   5.661
13107TIP3   OH239265   3.189   7.978   5.742
13107TIP3    H139266   3.239   7.974   5.658
13107TIP3    H239267   3.219   8.062   5.778
13108TIP3   OH239268   5.123   8.014   5.894
13108TIP3    H139269   5.034   8.056   5.887
13108TIP3    H239270   5.106   7.935   5.840
13109TIP3   OH239271   4.766   7.651   4.483
13109TIP3    H139272   4.806   7.581   4.428
13109TIP3    H239273   4.834   7.721   4.481
13110TIP3   OH239274   3.176   7.483   5.244
13110TIP3    H139275   3.083   7.476   5.272
13110TIP3    H239276   3.169   7.541   5.166
13111TIP3   OH239277   3.397   7.567   6.060
13111TIP3    H139278   3.343   7.557   6.140
13111TIP3    H239279   3.331   7.601   5.997
13112TIP3   OH239280   5.032   7.777   5.778
13112TIP3    H139281   4.941   7.767   5.743
13112TIP3    H239282   5.066   7.685   5.769
13113TIP3   OH239283   4.235   7.693   5.399
13113TIP3    H139284   4.194   7.622   5.450
13113TIP3    H239285   4.310   7.648   5.355
13114TIP3   OH239286   4.757   7.579   5.304
13114TIP3    H139287   4.792   7.628   5.227
13114TIP3    H239288   4.661   7.594   5.295
13115TIP3   OH239289   4.852   7.673   5.067
13115TIP3    H139290   4.926   7.621   5.028
13115TIP3    H239291   4.887   7.765   5.052
13116TIP3   OH239292   3.484   7.402   5.413
13116TIP3    H139293   3.392   7.370   5.417
13116TIP3    H239294   3.532   7.317   5.409
13117TIP3   OH239295   3.272   7.275   5.065
13117TIP3    H139296   3.302   7.331   4.991
13117TIP3    H239297   3.247   7.342   5.131
13118TIP3   OH239298   3.930   7.436   5.295
13118TIP3    H139299   3.987   7.482   5.232
13118TIP3    H239300   3.959   7.473   5.380
13119TIP3   OH239301   4.473   7.583   5.277
13119TIP3    H139302   4.476   7.541   5.191
13119TIP3    H239303   4.462   7.504   5.336
13120TIP3   OH239304   4.506   7.508   4.842
13120TIP3    H139305   4.419   7.549   4.858
13120TIP3    H239306   4.493   7.421   4.886
13121TIP3   OH239307   3.392   7.433   4.823
13121TIP3    H139308   3.439   7.368   4.767
13121TIP3    H239309   3.466   7.485   4.859
13122TIP3   OH239310   3.900   7.611   4.923
13122TIP3    H139311   3.959   7.562   4.983
13122TIP3    H239312   3.923   7.703   4.949
13123TIP3   OH239313   3.691   7.688   6.309
13123TIP3    H139314   3.656   7.614   6.362
13123TIP3    H239315   3.786   7.684   6.335
13124TIP3   OH239316   3.942   7.686   6.428
13124TIP3    H139317   4.026   7.659   6.386
13124TIP3    H239318   3.931   7.613   6.494
13125TIP3   OH239319   4.768   7.743   6.210
13125TIP3    H139320   4.786   7.711   6.301
13125TIP3    H239321   4.857   7.737   6.169
13126TIP3   OH239322   5.974   8.653   4.478
13126TIP3    H139323   5.936   8.738   4.450
13126TIP3    H239324   5.904   8.594   4.443
13127TIP3   OH239325   5.960   8.664   4.858
13127TIP3    H139326   5.997   8.635   4.944
13127TIP3    H239327   5.923   8.580   4.825
13128TIP3   OH239328   5.265   8.558   5.216
13128TIP3    H139329   5.297   8.490   5.279
13128TIP3    H239330   5.343   8.615   5.209
13129TIP3   OH239331   6.188   8.964   4.546
13129TIP3    H139332   6.183   8.889   4.609
13129TIP3    H239333   6.249   9.022   4.593
13130TIP3   OH239334   5.300   8.907   5.016
13130TIP3    H139335   5.273   8.820   4.981
13130TIP3    H239336   5.385   8.922   4.970
13131TIP3   OH239337   4.950   8.170   4.720
13131TIP3    H139338   4.907   8.255   4.739
13131TIP3    H239339   4.876   8.122   4.678
13132TIP3   OH239340   5.004   8.462   4.900
13132TIP3    H139341   5.053   8.383   4.932
13132TIP3    H239342   5.076   8.518   4.868
13133TIP3   OH239343   5.786   8.885   4.885
13133TIP3    H139344   5.831   8.802   4.860
13133TIP3    H239345   5.864   8.941   4.901
13134TIP3   OH239346   6.782   8.210   4.903
13134TIP3    H139347   6.803   8.294   4.946
13134TIP3    H239348   6.815   8.224   4.813
13135TIP3   OH239349   6.179   8.398   4.928
13135TIP3    H139350   6.226   8.315   4.951
13135TIP3    H239351   6.150   8.377   4.837
13136TIP3   OH239352   5.524   8.055   4.895
13136TIP3    H139353   5.505   8.128   4.833
13136TIP3    H239354   5.475   7.982   4.851
13137TIP3   OH239355   6.218   8.147   4.515
13137TIP3    H139356   6.288   8.132   4.583
13137TIP3    H239357   6.273   8.181   4.442
13138TIP3   OH239358   5.153   8.256   5.004
13138TIP3    H139359   5.237   8.239   5.052
13138TIP3    H239360   5.169   8.202   4.923
13139TIP3   OH239361   5.595   8.454   4.800
13139TIP3    H139362   5.689   8.430   4.811
13139TIP3    H239363   5.556   8.370   4.768
13140TIP3   OH239364   5.517   8.039   5.330
13140TIP3    H139365   5.459   8.076   5.262
13140TIP3    H239366   5.464   8.058   5.411
13141TIP3   OH239367   5.853   8.855   4.338
13141TIP3    H139368   5.809   8.855   4.251
13141TIP3    H239369   5.881   8.948   4.348
13142TIP3   OH239370   5.625   8.819   5.121
13142TIP3    H139371   5.570   8.886   5.166
13142TIP3    H239372   5.653   8.868   5.042
13143TIP3   OH239373   6.422   8.153   4.694
13143TIP3    H139374   6.411   8.107   4.778
13143TIP3    H239375   6.476   8.230   4.720
13144TIP3   OH239376   5.389   8.153   5.114
13144TIP3    H139377   5.449   8.227   5.138
13144TIP3    H239378   5.439   8.113   5.039
13145TIP3   OH239379   5.456   9.021   5.233
13145TIP3    H139380   5.420   9.027   5.142
13145TIP3    H239381   5.372   9.023   5.283
13146TIP3   OH239382   4.842   8.660   4.466
13146TIP3    H139383   4.811   8.676   4.374
13146TIP3    H239384   4.864   8.752   4.491
13147TIP3   OH239385   6.560   8.102   5.056
13147TIP3    H139386   6.479   8.132   5.012
13147TIP3    H239387   6.631   8.138   4.998
13148TIP3   OH239388   5.869   7.754   5.044
13148TIP3    H139389   5.854   7.660   5.063
13148TIP3    H239390   5.793   7.794   5.092
13149TIP3   OH239391   6.219   8.986   4.260
13149TIP3    H139392   6.197   8.905   4.210
13149TIP3    H239393   6.231   8.953   4.351
13150TIP3   OH239394   5.806   8.514   4.307
13150TIP3    H139395   5.725   8.566   4.289
13150TIP3    H239396   5.849   8.513   4.220
13151TIP3   OH239397   5.762   8.306   4.014
13151TIP3    H139398   5.828   8.358   4.063
13151TIP3    H239399   5.820   8.243   3.967
13152TIP3   OH239400   6.152   8.593   4.277
13152TIP3    H139401   6.098   8.614   4.357
13152TIP3    H239402   6.237   8.568   4.319
13153TIP3   OH239403   5.392   8.600   4.680
13153TIP3    H139404   5.349   8.539   4.616
13153TIP3    H239405   5.466   8.546   4.714
13154TIP3   OH239406   5.525   8.968   4.885
13154TIP3    H139407   5.482   8.963   4.797
13154TIP3    H239408   5.619   8.953   4.864
13155TIP3   OH239409   5.510   8.578   5.040
13155TIP3    H139410   5.550   8.551   4.954
13155TIP3    H239411   5.558   8.661   5.060
13156TIP3   OH239412   5.557   8.948   5.484
13156TIP3    H139413   5.650   8.978   5.476
13156TIP3    H239414   5.530   8.966   5.392
13157TIP3   OH239415   5.985   8.462   4.100
13157TIP3    H139416   6.047   8.519   4.150
13157TIP3    H239417   6.015   8.477   4.007
13158TIP3   OH239418   5.414   8.674   5.460
13158TIP3    H139419   5.431   8.768   5.476
13158TIP3    H239420   5.321   8.664   5.487
13159TIP3   OH239421   6.507   7.701   4.147
13159TIP3    H139422   6.426   7.723   4.197
13159TIP3    H239423   6.521   7.783   4.097
13160TIP3   OH239424   5.254   8.441   4.492
13160TIP3    H139425   5.185   8.482   4.435
13160TIP3    H239426   5.215   8.355   4.510
13161TIP3   OH239427   5.047   8.829   5.404
13161TIP3    H139428   4.978   8.810   5.337
13161TIP3    H239429   5.077   8.740   5.431
13162TIP3   OH239430   5.235   9.033   5.393
13162TIP3    H139431   5.257   9.035   5.487
13162TIP3    H239432   5.165   8.964   5.390
13163TIP3   OH239433   5.634   7.831   5.179
13163TIP3    H139434   5.545   7.802   5.148
13163TIP3    H239435   5.608   7.913   5.225
13164TIP3   OH239436   6.166   7.946   5.373
13164TIP3    H139437   6.227   7.916   5.442
13164TIP3    H239438   6.078   7.929   5.413
13165TIP3   OH239439   6.068   8.488   3.844
13165TIP3    H139440   6.035   8.469   3.755
13165TIP3    H239441   6.136   8.555   3.824
13166TIP3   OH239442   5.777   7.882   4.146
13166TIP3    H139443   5.744   7.878   4.238
13166TIP3    H239444   5.739   7.799   4.111
13167TIP3   OH239445   5.562   8.352   5.187
13167TIP3    H139446   5.522   8.375   5.273
13167TIP3    H239447   5.546   8.435   5.136
13168TIP3   OH239448   5.449   8.236   4.707
13168TIP3    H139449   5.357   8.209   4.727
13168TIP3    H239450   5.461   8.194   4.619
13169TIP3   OH239451   5.942   8.316   4.437
13169TIP3    H139452   5.890   8.386   4.391
13169TIP3    H239453   5.999   8.282   4.365
13170TIP3   OH239454   6.095   8.345   4.672
13170TIP3    H139455   6.033   8.371   4.600
13170TIP3    H239456   6.133   8.266   4.629
13171TIP3   OH239457   5.381   8.376   5.399
13171TIP3    H139458   5.426   8.440   5.456
13171TIP3    H239459   5.376   8.297   5.456
13172TIP3   OH239460   5.434   7.856   4.111
13172TIP3    H139461   5.425   7.854   4.208
13172TIP3    H239462   5.356   7.909   4.087
13173TIP3   OH239463   4.978   7.897   4.985
13173TIP3    H139464   5.053   7.931   5.038
13173TIP3    H239465   5.020   7.869   4.902
13174TIP3   OH239466   4.943   7.878   4.501
13174TIP3    H139467   4.990   7.914   4.423
13174TIP3    H239468   4.884   7.953   4.521
13175TIP3   OH239469   6.075   8.587   5.095
13175TIP3    H139470   6.125   8.521   5.040
13175TIP3    H239471   6.051   8.529   5.171
13176TIP3   OH239472   5.781   8.058   4.767
13176TIP3    H139473   5.701   8.056   4.823
13176TIP3    H239474   5.853   8.050   4.833
13177TIP3   OH239475   5.212   8.114   4.775
13177TIP3    H139476   5.117   8.120   4.747
13177TIP3    H239477   5.235   8.022   4.752
13178TIP3   OH239478   5.476   8.107   4.467
13178TIP3    H139479   5.570   8.122   4.447
13178TIP3    H239480   5.430   8.130   4.382
13179TIP3   OH239481   6.270   8.135   4.965
13179TIP3    H139482   6.244   8.146   5.060
13179TIP3    H239483   6.200   8.075   4.934
13180TIP3   OH239484   5.326   8.144   4.241
13180TIP3    H139485   5.255   8.099   4.192
13180TIP3    H239486   5.378   8.182   4.168
13181TIP3   OH239487   5.356   9.057   5.648
13181TIP3    H139488   5.434   9.012   5.610
13181TIP3    H239489   5.321   8.990   5.711
13182TIP3   OH239490   5.859   8.388   4.864
13182TIP3    H139491   5.933   8.347   4.816
13182TIP3    H239492   5.863   8.342   4.950
13183TIP3   OH239493   5.378   7.872   4.748
13183TIP3    H139494   5.342   7.795   4.796
13183TIP3    H239495   5.427   7.830   4.676
13184TIP3   OH239496   5.829   8.279   5.148
13184TIP3    H139497   5.742   8.318   5.165
13184TIP3    H239498   5.889   8.335   5.202
13185TIP3   OH239499   5.574   8.657   4.257
13185TIP3    H139500   5.496   8.599   4.243
13185TIP3    H239501   5.549   8.703   4.341
13186TIP3   OH239502   6.030   7.982   4.117
13186TIP3    H139503   5.933   7.964   4.126
13186TIP3    H239504   6.037   8.076   4.142
13187TIP3   OH239505   6.099   8.233   4.219
13187TIP3    H139506   6.196   8.237   4.235
13187TIP3    H239507   6.082   8.313   4.167
13188TIP3   OH239508   5.243   8.645   4.910
13188TIP3    H139509   5.297   8.638   4.829
13188TIP3    H239510   5.303   8.608   4.977
13189TIP3   OH239511   5.682   8.845   4.091
13189TIP3    H139512   5.641   8.915   4.147
13189TIP3    H239513   5.648   8.766   4.139
13190TIP3   OH239514   5.144   8.608   5.543
13190TIP3    H139515   5.153   8.580   5.637
13190TIP3    H239516   5.075   8.547   5.512
13191TIP3   OH239517   6.534   8.327   4.053
13191TIP3    H139518   6.475   8.282   3.989
13191TIP3    H239519   6.532   8.416   4.012
13192TIP3   OH239520   6.199   8.783   4.770
13192TIP3    H139521   6.117   8.730   4.785
13192TIP3    H239522   6.263   8.711   4.753
13193TIP3   OH239523   4.933   8.301   4.257
13193TIP3    H139524   4.979   8.385   4.276
13193TIP3    H239525   4.855   8.307   4.317
13194TIP3   OH239526   5.499   8.780   4.495
13194TIP3    H139527   5.459   8.857   4.536
13194TIP3    H239528   5.475   8.712   4.561
13195TIP3   OH239529   6.045   8.958   4.979
13195TIP3    H139530   6.023   8.895   5.049
13195TIP3    H239531   6.103   8.905   4.921
13196TIP3   OH239532   6.034   8.808   3.833
13196TIP3    H139533   6.065   8.795   3.925
13196TIP3    H239534   5.953   8.860   3.847
13197TIP3   OH239535   5.355   8.119   5.542
13197TIP3    H139536   5.259   8.123   5.556
13197TIP3    H239537   5.383   8.067   5.619
13198TIP3   OH239538   6.157   8.780   4.081
13198TIP3    H139539   6.152   8.709   4.148
13198TIP3    H239540   6.253   8.780   4.061
13199TIP3   OH239541   5.347   8.799   3.910
13199TIP3    H139542   5.386   8.713   3.886
13199TIP3    H239543   5.384   8.814   3.997
13200TIP3   OH239544   5.051   8.542   4.333
13200TIP3    H139545   4.983   8.577   4.395
13200TIP3    H239546   5.055   8.615   4.268
13201TIP3   OH239547   6.207   8.180   5.227
13201TIP3    H139548   6.253   8.237   5.291
13201TIP3    H239549   6.185   8.101   5.281
13202TIP3   OH239550   6.075   7.933   4.399
13202TIP3    H139551   6.064   7.955   4.305
13202TIP3    H239552   6.117   8.015   4.434
13203TIP3   OH239553   5.758   8.119   4.498
13203TIP3    H139554   5.825   8.189   4.481
13203TIP3    H239555   5.766   8.108   4.596
13204TIP3   OH239556   6.006   8.422   5.305
13204TIP3    H139557   5.989   8.440   5.399
13204TIP3    H239558   6.096   8.385   5.314
13205TIP3   OH239559   5.905   7.836   4.596
13205TIP3    H139560   5.903   7.912   4.658
13205TIP3    H239561   5.967   7.870   4.528
13206TIP3   OH239562   5.420   7.843   4.387
13206TIP3    H139563   5.417   7.932   4.426
13206TIP3    H239564   5.516   7.824   4.395
13207TIP3   OH239565   6.322   8.530   4.673
13207TIP3    H139566   6.247   8.469   4.687
13207TIP3    H239567   6.394   8.486   4.723
13208TIP3   OH239568   5.038   8.757   4.146
13208TIP3    H139569   5.069   8.849   4.137
13208TIP3    H239570   5.096   8.709   4.083
13209TIP3   OH239571   4.979   8.031   4.278
13209TIP3    H139572   4.981   8.129   4.276
13209TIP3    H239573   4.900   8.012   4.227
13210TIP3   OH239574   5.368   7.754   5.146
13210TIP3    H139575   5.338   7.721   5.059
13210TIP3    H239576   5.357   7.676   5.203
13211TIP3   OH239577   5.196   8.881   5.802
13211TIP3    H139578   5.230   8.790   5.782
13211TIP3    H239579   5.110   8.882   5.755
13212TIP3   OH239580   5.169   8.560   4.003
13212TIP3    H139581   5.219   8.525   4.079
13212TIP3    H239582   5.241   8.564   3.936
13213TIP3   OH239583   5.620   8.740   3.815
13213TIP3    H139584   5.655   8.759   3.902
13213TIP3    H239585   5.652   8.650   3.798
13214TIP3   OH239586   5.333   8.647   5.786
13214TIP3    H139587   5.400   8.584   5.756
13214TIP3    H239588   5.318   8.611   5.875
13215TIP3   OH239589   5.369   8.473   4.212
13215TIP3    H139590   5.346   8.431   4.296
13215TIP3    H239591   5.412   8.400   4.163
13216TIP3   OH239592   5.642   8.521   5.433
13216TIP3    H139593   5.574   8.591   5.440
13216TIP3    H239594   5.707   8.565   5.374
13217TIP3   OH239595   5.484   8.271   4.058
13217TIP3    H139596   5.460   8.272   3.963
13217TIP3    H239597   5.582   8.273   4.052
13218TIP3   OH239598   6.297   8.610   3.719
13218TIP3    H139599   6.278   8.555   3.640
13218TIP3    H239600   6.276   8.698   3.683
13219TIP3   OH239601   5.751   8.318   5.574
13219TIP3    H139602   5.765   8.244   5.512
13219TIP3    H239603   5.716   8.388   5.514
13220TIP3   OH239604   5.776   8.113   5.377
13220TIP3    H139605   5.804   8.156   5.294
13220TIP3    H239606   5.682   8.093   5.358
13221TIP3   OH239607   5.793   8.644   5.247
13221TIP3    H139608   5.877   8.646   5.198
13221TIP3    H239609   5.739   8.712   5.203
13222TIP3   OH239610   5.644   8.435   5.800
13222TIP3    H139611   5.570   8.372   5.817
13222TIP3    H239612   5.676   8.402   5.713
13223TIP3   OH239613   5.906   7.876   5.444
13223TIP3    H139614   5.857   7.958   5.422
13223TIP3    H239615   5.837   7.808   5.433
13224TIP3   OH239616   6.027   8.380   5.589
13224TIP3    H139617   6.065   8.397   5.676
13224TIP3    H239618   5.935   8.355   5.610
13225TIP3   OH239619   5.488   8.208   5.850
13225TIP3    H139620   5.494   8.116   5.816
13225TIP3    H239621   5.522   8.197   5.940
13226TIP3   OH239622   5.995   7.876   5.703
13226TIP3    H139623   6.067   7.810   5.695
13226TIP3    H239624   5.960   7.876   5.612
13227TIP3   OH239625   6.030   8.079   5.885
13227TIP3    H139626   6.020   8.012   5.815
13227TIP3    H239627   5.964   8.147   5.862
13228TIP3   OH239628   4.773   8.666   4.192
13228TIP3    H139629   4.854   8.710   4.159
13228TIP3    H239630   4.763   8.592   4.129
13229TIP3   OH239631   6.427   8.777   4.061
13229TIP3    H139632   6.497   8.838   4.029
13229TIP3    H239633   6.473   8.738   4.138
13230TIP3   OH239634   6.561   8.652   4.259
13230TIP3    H139635   6.502   8.608   4.324
13230TIP3    H239636   6.636   8.683   4.313
13231TIP3   OH239637   6.497   8.560   3.903
13231TIP3    H139638   6.426   8.567   3.836
13231TIP3    H239639   6.472   8.636   3.961
13232TIP3   OH239640   6.374   8.234   3.856
13232TIP3    H139641   6.326   8.267   3.779
13232TIP3    H239642   6.352   8.138   3.852
13233TIP3   OH239643   6.378   8.508   4.406
13233TIP3    H139644   6.389   8.411   4.397
13233TIP3    H239645   6.365   8.519   4.503
13234TIP3   OH239646   5.002   8.588   5.152
13234TIP3    H139647   4.999   8.552   5.061
13234TIP3    H239648   5.099   8.587   5.168
13235TIP3   OH239649   6.318   7.969   3.843
13235TIP3    H139650   6.394   7.937   3.896
13235TIP3    H239651   6.247   7.906   3.865
13236TIP3   OH239652   6.377   8.227   4.295
13236TIP3    H139653   6.417   8.138   4.311
13236TIP3    H239654   6.435   8.259   4.224
13237TIP3   OH239655   6.537   8.403   4.793
13237TIP3    H139656   6.622   8.429   4.750
13237TIP3    H239657   6.555   8.440   4.882
13238TIP3   OH239658   5.218   8.259   5.810
13238TIP3    H139659   5.314   8.271   5.828
13238TIP3    H239660   5.201   8.176   5.858
13239TIP3   OH239661   6.483   7.978   4.337
13239TIP3    H139662   6.534   7.961   4.420
13239TIP3    H239663   6.424   7.900   4.336
13240TIP3   OH239664   5.184   7.963   5.160
13240TIP3    H139665   5.246   7.887   5.166
13240TIP3    H239666   5.246   8.037   5.149
13241TIP3   OH239667   4.985   8.235   5.228
13241TIP3    H139668   5.035   8.230   5.144
13241TIP3    H239669   5.020   8.317   5.265
13242TIP3   OH239670   6.562   7.908   3.969
13242TIP3    H139671   6.604   7.837   3.916
13242TIP3    H239672   6.631   7.978   3.968
13243TIP3   OH239673   4.972   7.738   4.731
13243TIP3    H139674   4.879   7.733   4.759
13243TIP3    H239675   4.966   7.797   4.652
13244TIP3   OH239676   5.191   7.815   5.543
13244TIP3    H139677   5.139   7.813   5.625
13244TIP3    H239678   5.127   7.856   5.482
13245TIP3   OH239679   6.812   8.020   5.238
13245TIP3    H139680   6.718   7.998   5.237
13245TIP3    H239681   6.852   7.931   5.237
13246TIP3   OH239682   6.029   7.949   4.881
13246TIP3    H139683   5.990   7.877   4.933
13246TIP3    H239684   6.107   7.907   4.840
13247TIP3   OH239685   6.552   7.829   4.787
13247TIP3    H139686   6.591   7.882   4.713
13247TIP3    H239687   6.458   7.853   4.782
13248TIP3   OH239688   6.649   7.932   4.553
13248TIP3    H139689   6.723   7.879   4.515
13248TIP3    H239690   6.685   8.022   4.539
13249TIP3   OH239691   5.280   7.659   4.900
13249TIP3    H139692   5.187   7.627   4.903
13249TIP3    H239693   5.328   7.573   4.896
13250TIP3   OH239694   5.069   7.532   4.551
13250TIP3    H139695   5.099   7.587   4.478
13250TIP3    H239696   5.043   7.598   4.618
13251TIP3   OH239697   5.727   7.692   4.783
13251TIP3    H139698   5.782   7.738   4.717
13251TIP3    H239699   5.758   7.732   4.866
13252TIP3   OH239700   6.264   7.839   4.766
13252TIP3    H139701   6.275   7.798   4.679
13252TIP3    H239702   6.255   7.760   4.823
13253TIP3   OH239703   6.302   7.764   4.328
13253TIP3    H139704   6.215   7.806   4.345
13253TIP3    H239705   6.289   7.678   4.373
13254TIP3   OH239706   5.188   7.689   4.311
13254TIP3    H139707   5.235   7.625   4.254
13254TIP3    H239708   5.262   7.742   4.346
13255TIP3   OH239709   5.696   7.867   4.410
13255TIP3    H139710   5.757   7.820   4.470
13255TIP3    H239711   5.718   7.960   4.436
13256TIP3   OH239712   5.488   7.928   5.790
13256TIP3    H139713   5.454   7.860   5.851
13256TIP3    H239714   5.582   7.932   5.820
13257TIP3   OH239715   5.735   7.938   5.918
13257TIP3    H139716   5.825   7.927   5.883
13257TIP3    H239717   5.729   7.864   5.982
13258TIP3   OH239718   6.739   8.426   4.207
13258TIP3    H139719   6.697   8.512   4.227
13258TIP3    H239720   6.665   8.380   4.163
13259TIP3   OH239721   6.802   8.706   4.371
13259TIP3    H139722   6.849   8.641   4.426
13259TIP3    H239723   6.875   8.751   4.327
13260TIP3   OH239724   7.282   8.314   4.408
13260TIP3    H139725   7.285   8.385   4.341
13260TIP3    H239726   7.249   8.240   4.354
13261TIP3   OH239727   6.958   8.513   4.496
13261TIP3    H139728   7.052   8.521   4.514
13261TIP3    H239729   6.959   8.451   4.420
13262TIP3   OH239730   6.637   8.924   3.967
13262TIP3    H139731   6.619   8.945   3.874
13262TIP3    H239732   6.682   9.005   3.996
13263TIP3   OH239733   7.021   8.683   3.914
13263TIP3    H139734   7.019   8.769   3.959
13263TIP3    H239735   6.992   8.623   3.984
13264TIP3   OH239736   7.229   8.469   4.182
13264TIP3    H139737   7.141   8.441   4.216
13264TIP3    H239738   7.204   8.519   4.103
13265TIP3   OH239739   7.222   8.135   3.611
13265TIP3    H139740   7.218   8.102   3.703
13265TIP3    H239741   7.146   8.091   3.571
13266TIP3   OH239742   6.776   8.155   4.471
13266TIP3    H139743   6.850   8.189   4.524
13266TIP3    H239744   6.818   8.124   4.390
13267TIP3   OH239745   6.740   8.133   3.989
13267TIP3    H139746   6.785   8.165   3.908
13267TIP3    H239747   6.682   8.210   4.007
13268TIP3   OH239748   6.994   8.362   4.271
13268TIP3    H139749   6.901   8.369   4.239
13268TIP3    H239750   7.021   8.272   4.246
13269TIP3   OH239751   7.057   8.384   3.758
13269TIP3    H139752   7.003   8.335   3.694
13269TIP3    H239753   7.076   8.466   3.710
13270TIP3   OH239754   7.174   8.129   4.229
13270TIP3    H139755   7.140   8.053   4.281
13270TIP3    H239756   7.233   8.084   4.166
13271TIP3   OH239757   6.719   8.550   3.742
13271TIP3    H139758   6.772   8.625   3.772
13271TIP3    H239759   6.641   8.556   3.802
13272TIP3   OH239760   7.185   8.081   3.880
13272TIP3    H139761   7.169   8.175   3.899
13272TIP3    H239762   7.279   8.073   3.908
13273TIP3   OH239763   6.760   8.277   3.759
13273TIP3    H139764   6.772   8.374   3.760
13273TIP3    H239765   6.674   8.268   3.716
13274TIP3   OH239766   7.134   8.010   4.644
13274TIP3    H139767   7.135   7.977   4.552
13274TIP3    H239768   7.151   7.930   4.697
13275TIP3   OH239769   6.564   8.927   3.661
13275TIP3    H139770   6.643   8.965   3.623
13275TIP3    H239771   6.551   8.848   3.605
13276TIP3   OH239772   6.976   8.228   4.651
13276TIP3    H139773   7.027   8.144   4.654
13276TIP3    H239774   7.048   8.291   4.644
13277TIP3   OH239775   6.786   8.503   4.720
13277TIP3    H139776   6.837   8.475   4.642
13277TIP3    H239777   6.820   8.592   4.733
13278TIP3   OH239778   6.768   7.994   4.218
13278TIP3    H139779   6.675   7.990   4.245
13278TIP3    H239780   6.763   8.053   4.140
13279TIP3   OH239781   6.996   8.069   5.045
13279TIP3    H139782   6.931   8.071   5.118
13279TIP3    H239783   6.942   8.106   4.974
13280TIP3   OH239784   7.079   7.917   4.381
13280TIP3    H139785   6.987   7.886   4.388
13280TIP3    H239786   7.127   7.831   4.379
13281TIP3   OH239787   6.865   7.788   4.036
13281TIP3    H139788   6.894   7.845   3.962
13281TIP3    H239789   6.842   7.854   4.104
13282TIP3   OH239790   7.511   7.941   4.289
13282TIP3    H139791   7.586   7.984   4.244
13282TIP3    H239792   7.504   7.991   4.371
13283TIP3   OH239793   6.966   7.936   3.801
13283TIP3    H139794   7.011   7.867   3.747
13283TIP3    H239795   7.043   7.986   3.836
13284TIP3   OH239796   7.451   8.098   3.929
13284TIP3    H139797   7.492   8.024   3.881
13284TIP3    H239798   7.506   8.171   3.894
13285TIP3   OH239799   4.610   1.745   7.958
13285TIP3    H139800   4.623   1.838   7.930
13285TIP3    H239801   4.699   1.708   7.937
13286TIP3   OH239802   4.169   1.981   8.034
13286TIP3    H139803   4.212   1.897   8.011
13286TIP3    H239804   4.130   1.962   8.122
13287TIP3   OH239805   4.366   1.239   8.093
13287TIP3    H139806   4.329   1.202   8.010
13287TIP3    H239807   4.461   1.246   8.068
13288TIP3   OH239808   4.527   1.809   8.212
13288TIP3    H139809   4.521   1.717   8.243
13288TIP3    H239810   4.566   1.796   8.123
13289TIP3   OH239811   4.643   2.015   7.933
13289TIP3    H139812   4.686   2.086   7.881
13289TIP3    H239813   4.562   2.063   7.960
13290TIP3   OH239814   3.810   1.716   7.999
13290TIP3    H139815   3.822   1.633   8.048
13290TIP3    H239816   3.893   1.716   7.947
13291TIP3   OH239817   4.282   1.746   7.932
13291TIP3    H139818   4.367   1.741   7.977
13291TIP3    H239819   4.312   1.752   7.838
13292TIP3   OH239820   4.606   1.277   7.968
13292TIP3    H139821   4.592   1.217   7.892
13292TIP3    H239822   4.576   1.361   7.928
13293TIP3   OH239823   4.825   1.317   8.131
13293TIP3    H139824   4.744   1.291   8.082
13293TIP3    H239825   4.809   1.281   8.219
13294TIP3   OH239826   4.565   2.089   8.256
13294TIP3    H139827   4.565   1.992   8.244
13294TIP3    H239828   4.528   2.118   8.170
13295TIP3   OH239829   6.045   1.612   8.227
13295TIP3    H139830   6.023   1.701   8.192
13295TIP3    H239831   5.987   1.558   8.170
13296TIP3   OH239832   6.271   1.875   8.268
13296TIP3    H139833   6.202   1.840   8.327
13296TIP3    H239834   6.291   1.962   8.309
13297TIP3   OH239835   5.951   2.354   8.268
13297TIP3    H139836   6.010   2.281   8.239
13297TIP3    H239837   5.954   2.348   8.365
13298TIP3   OH239838   5.963   1.824   8.074
13298TIP3    H139839   5.920   1.806   7.989
13298TIP3    H239840   5.917   1.907   8.100
13299TIP3   OH239841   4.939   1.634   8.180
13299TIP3    H139842   4.891   1.630   8.095
13299TIP3    H239843   4.960   1.729   8.187
13300TIP3   OH239844   6.345   2.114   8.375
13300TIP3    H139845   6.270   2.128   8.436
13300TIP3    H239846   6.367   2.207   8.353
13301TIP3   OH239847   6.096   2.182   8.115
13301TIP3    H139848   6.146   2.103   8.085
13301TIP3    H239849   6.153   2.252   8.075
13302TIP3   OH239850   6.231   1.968   8.012
13302TIP3    H139851   6.186   1.899   7.962
13302TIP3    H239852   6.244   1.925   8.099
13303TIP3   OH239853   5.904   1.480   8.034
13303TIP3    H139854   5.819   1.523   8.013
13303TIP3    H239855   5.943   1.470   7.945
13304TIP3   OH239856   5.860   1.235   7.759
13304TIP3    H139857   5.930   1.289   7.800
13304TIP3    H239858   5.914   1.175   7.703
13305TIP3   OH239859   6.231   1.557   8.020
13305TIP3    H139860   6.169   1.590   8.087
13305TIP3    H239861   6.289   1.504   8.080
13306TIP3   OH239862   6.135   2.154   8.548
13306TIP3    H139863   6.198   2.215   8.591
13306TIP3    H239864   6.143   2.075   8.603
13307TIP3   OH239865   6.086   1.402   7.835
13307TIP3    H139866   6.144   1.465   7.883
13307TIP3    H239867   6.113   1.420   7.741
13308TIP3   OH239868   5.836   2.068   8.110
13308TIP3    H139869   5.913   2.121   8.136
13308TIP3    H239870   5.778   2.134   8.071
13309TIP3   OH239871   5.363   1.344   8.188
13309TIP3    H139872   5.285   1.395   8.155
13309TIP3    H239873   5.328   1.304   8.268
13310TIP3   OH239874   6.407   1.998   7.442
13310TIP3    H139875   6.415   2.094   7.424
13310TIP3    H239876   6.499   1.968   7.426
13311TIP3   OH239877   5.715   2.313   7.920
13311TIP3    H139878   5.671   2.298   7.835
13311TIP3    H239879   5.684   2.402   7.945
13312TIP3   OH239880   5.138   2.158   8.273
13312TIP3    H139881   5.151   2.103   8.352
13312TIP3    H239882   5.056   2.119   8.238
13313TIP3   OH239883   5.915   2.218   7.558
13313TIP3    H139884   5.974   2.148   7.522
13313TIP3    H239885   5.951   2.228   7.649
13314TIP3   OH239886   5.967   2.266   7.828
13314TIP3    H139887   5.879   2.275   7.870
13314TIP3    H239888   6.019   2.230   7.902
13315TIP3   OH239889   6.162   1.442   7.582
13315TIP3    H139890   6.128   1.410   7.496
13315TIP3    H239891   6.250   1.476   7.554
13316TIP3   OH239892   5.996   1.248   8.147
13316TIP3    H139893   5.962   1.334   8.114
13316TIP3    H239894   6.059   1.222   8.077
13317TIP3   OH239895   5.556   1.026   8.210
13317TIP3    H139896   5.647   1.026   8.175
13317TIP3    H239897   5.503   1.045   8.130
13318TIP3   OH239898   5.408   1.052   7.977
13318TIP3    H139899   5.347   1.029   7.904
13318TIP3    H239900   5.473   1.102   7.924
13319TIP3   OH239901   5.663   1.602   7.974
13319TIP3    H139902   5.593   1.534   7.960
13319TIP3    H239903   5.636   1.638   8.062
13320TIP3   OH239904   6.111   0.957   7.791
13320TIP3    H139905   6.049   0.907   7.847
13320TIP3    H239906   6.131   1.032   7.850
13321TIP3   OH239907   6.170   1.170   7.953
13321TIP3    H139908   6.262   1.183   7.984
13321TIP3    H239909   6.156   1.251   7.899
13322TIP3   OH239910   5.822   1.755   7.816
13322TIP3    H139911   5.772   1.839   7.818
13322TIP3    H239912   5.762   1.698   7.870
13323TIP3   OH239913   6.351   2.070   7.707
13323TIP3    H139914   6.309   2.002   7.761
13323TIP3    H239915   6.359   2.028   7.620
13324TIP3   OH239916   5.438   1.938   8.266
13324TIP3    H139917   5.498   2.010   8.238
13324TIP3    H239918   5.355   1.972   8.230
13325TIP3   OH239919   5.042   1.233   7.991
13325TIP3    H139920   5.098   1.310   8.013
13325TIP3    H239921   4.962   1.257   8.043
13326TIP3   OH239922   5.591   1.712   8.207
13326TIP3    H139923   5.547   1.794   8.236
13326TIP3    H239924   5.638   1.685   8.290
13327TIP3   OH239925   5.379   2.187   8.130
13327TIP3    H139926   5.291   2.195   8.172
13327TIP3    H239927   5.413   2.279   8.140
13328TIP3   OH239928   6.095   1.806   7.599
13328TIP3    H139929   6.147   1.780   7.679
13328TIP3    H239930   6.007   1.774   7.625
13329TIP3   OH239931   6.438   2.272   7.424
13329TIP3    H139932   6.470   2.342   7.365
13329TIP3    H239933   6.358   2.317   7.459
13330TIP3   OH239934   6.244   1.744   7.818
13330TIP3    H139935   6.237   1.677   7.890
13330TIP3    H239936   6.341   1.739   7.801
13331TIP3   OH239937   5.462   1.780   7.607
13331TIP3    H139938   5.476   1.688   7.579
13331TIP3    H239939   5.441   1.769   7.702
13332TIP3   OH239940   5.402   1.786   7.880
13332TIP3    H139941   5.476   1.755   7.934
13332TIP3    H239942   5.411   1.884   7.887
13333TIP3   OH239943   5.146   1.481   8.084
13333TIP3    H139944   5.070   1.519   8.132
13333TIP3    H239945   5.159   1.549   8.016
13334TIP3   OH239946   5.675   1.980   7.823
13334TIP3    H139947   5.588   2.006   7.859
13334TIP3    H239948   5.692   2.057   7.765
13335TIP3   OH239949   5.836   1.029   8.162
13335TIP3    H139950   5.881   1.114   8.144
13335TIP3    H239951   5.862   1.015   8.254
13336TIP3   OH239952   5.421   2.059   7.893
13336TIP3    H139953   5.392   2.127   7.829
13336TIP3    H239954   5.408   2.107   7.978
13337TIP3   OH239955   5.135   1.685   7.881
13337TIP3    H139956   5.210   1.747   7.892
13337TIP3    H239957   5.177   1.623   7.817
13338TIP3   OH239958   5.063   0.946   7.960
13338TIP3    H139959   5.071   1.042   7.976
13338TIP3    H239960   4.993   0.923   8.023
13339TIP3   OH239961   6.412   2.378   8.322
13339TIP3    H139962   6.344   2.428   8.274
13339TIP3    H239963   6.481   2.446   8.325
13340TIP3   OH239964   4.999   1.887   8.250
13340TIP3    H139965   4.968   1.932   8.330
13340TIP3    H239966   4.959   1.942   8.179
13341TIP3   OH239967   5.626   1.982   7.514
13341TIP3    H139968   5.571   1.910   7.553
13341TIP3    H239969   5.702   1.931   7.481
13342TIP3   OH239970   6.062   2.024   7.428
13342TIP3    H139971   6.100   1.955   7.486
13342TIP3    H239972   6.118   2.019   7.348
13343TIP3   OH239973   5.274   1.498   7.742
13343TIP3    H139974   5.332   1.466   7.814
13343TIP3    H239975   5.340   1.503   7.670
13344TIP3   OH239976   5.788   1.702   7.547
13344TIP3    H139977   5.789   1.713   7.644
13344TIP3    H239978   5.790   1.604   7.540
13345TIP3   OH239979   5.471   1.410   7.944
13345TIP3    H139980   5.444   1.380   8.034
13345TIP3    H239981   5.510   1.328   7.907
13346TIP3   OH239982   5.580   1.195   7.808
13346TIP3    H139983   5.553   1.202   7.715
13346TIP3    H239984   5.678   1.197   7.799
13347TIP3   OH239985   6.391   1.524   7.458
13347TIP3    H139986   6.373   1.482   7.372
13347TIP3    H239987   6.359   1.616   7.438
13348TIP3   OH239988   5.390   2.261   7.707
13348TIP3    H139989   5.486   2.252   7.689
13348TIP3    H239990   5.364   2.313   7.628
13349TIP3   OH239991   4.862   1.644   7.907
13349TIP3    H139992   4.958   1.665   7.897
13349TIP3    H239993   4.859   1.553   7.869
13350TIP3   OH239994   4.793   2.242   8.319
13350TIP3    H139995   4.714   2.197   8.284
13350TIP3    H239996   4.825   2.176   8.381
13351TIP3   OH239997   6.619   2.563   8.317
13351TIP3    H139998   6.640   2.610   8.398
13351TIP3    H239999   6.660   2.622   8.250
13352TIP3   OH240000   6.512   1.720   7.789
13352TIP3    H140001   6.572   1.787   7.751
13352TIP3    H240002   6.574   1.651   7.818
13353TIP3   OH240003   6.587   1.508   7.637
13353TIP3    H140004   6.524   1.483   7.567
13353TIP3    H240005   6.539   1.586   7.669
13354TIP3   OH240006   6.399   1.161   7.599
13354TIP3    H140007   6.445   1.226   7.545
13354TIP3    H240008   6.428   1.077   7.560
13355TIP3   OH240009   6.230   2.372   7.977
13355TIP3    H140010   6.284   2.366   7.896
13355TIP3    H240011   6.276   2.442   8.027
13356TIP3   OH240012   5.884   2.490   8.512
13356TIP3    H140013   5.792   2.479   8.486
13356TIP3    H240014   5.881   2.479   8.608
13357TIP3   OH240015   6.108   2.451   8.665
13357TIP3    H140016   6.065   2.467   8.579
13357TIP3    H240017   6.195   2.490   8.643
13358TIP3   OH240018   6.264   2.614   8.509
13358TIP3    H140019   6.283   2.708   8.495
13358TIP3    H240020   6.348   2.572   8.492
13359TIP3   OH240021   4.884   2.048   8.071
13359TIP3    H140022   4.803   2.010   8.034
13359TIP3    H240023   4.875   2.139   8.035
13360TIP3   OH240024   5.657   2.216   7.654
13360TIP3    H140025   5.745   2.240   7.617
13360TIP3    H240026   5.635   2.142   7.593
13361TIP3   OH240027   6.378   2.339   7.747
13361TIP3    H140028   6.371   2.241   7.737
13361TIP3    H240029   6.330   2.369   7.667
13362TIP3   OH240030   4.961   2.054   7.709
13362TIP3    H140031   4.972   2.074   7.803
13362TIP3    H240032   5.047   2.010   7.688
13363TIP3   OH240033   6.714   1.882   7.726
13363TIP3    H140034   6.709   1.893   7.629
13363TIP3    H240035   6.739   1.973   7.754
13364TIP3   OH240036   7.491   2.593   7.396
13364TIP3    H140037   7.458   2.554   7.313
13364TIP3    H240038   7.444   2.677   7.401
13365TIP3   OH240039   6.920   2.448   7.779
13365TIP3    H140040   6.980   2.377   7.810
13365TIP3    H240041   6.834   2.397   7.777
13366TIP3   OH240042   7.694   2.460   7.018
13366TIP3    H140043   7.728   2.375   6.983
13366TIP3    H240044   7.763   2.479   7.086
13367TIP3   OH240045   6.802   1.486   7.477
13367TIP3    H140046   6.837   1.578   7.486
13367TIP3    H240047   6.730   1.490   7.544
13368TIP3   OH240048   7.191   2.442   7.608
13368TIP3    H140049   7.118   2.419   7.669
13368TIP3    H240050   7.194   2.538   7.615
13369TIP3   OH240051   7.268   2.033   7.070
13369TIP3    H140052   7.274   1.938   7.046
13369TIP3    H240053   7.243   2.028   7.164
13370TIP3   OH240054   7.196   2.052   7.332
13370TIP3    H140055   7.222   2.019   7.420
13370TIP3    H240056   7.206   2.149   7.346
13371TIP3   OH240057   6.882   1.742   7.534
13371TIP3    H140058   6.883   1.778   7.624
13371TIP3    H240059   6.931   1.809   7.483
13372TIP3   OH240060   7.472   2.237   7.304
13372TIP3    H140061   7.387   2.267   7.341
13372TIP3    H240062   7.489   2.307   7.239
13373TIP3   OH240063   7.219   2.319   7.368
13373TIP3    H140064   7.183   2.390   7.311
13373TIP3    H240065   7.207   2.359   7.457
13374TIP3   OH240066   6.931   1.962   7.354
13374TIP3    H140067   7.001   2.030   7.358
13374TIP3    H240068   6.974   1.902   7.290
13375TIP3   OH240069   6.887   1.223   7.453
13375TIP3    H140070   6.858   1.312   7.478
13375TIP3    H240071   6.863   1.169   7.529
13376TIP3   OH240072   6.776   2.138   7.774
13376TIP3    H140073   6.699   2.196   7.763
13376TIP3    H240074   6.829   2.169   7.699
13377TIP3   OH240075   7.417   2.248   6.998
13377TIP3    H140076   7.364   2.171   7.030
13377TIP3    H240077   7.489   2.201   6.953
13378TIP3   OH240078   7.831   2.242   6.896
13378TIP3    H140079   7.909   2.259   6.952
13378TIP3    H240080   7.873   2.248   6.807
13379TIP3   OH240081   7.070   1.765   7.219
13379TIP3    H140082   7.116   1.727   7.296
13379TIP3    H240083   7.144   1.771   7.156
13380TIP3   OH240084   7.564   1.952   7.039
13380TIP3    H140085   7.549   1.981   7.129
13380TIP3    H240086   7.540   1.859   7.043
13381TIP3   OH240087   7.177   2.530   7.197
13381TIP3    H140088   7.271   2.517   7.176
13381TIP3    H240089   7.148   2.575   7.115
13382TIP3   OH240090   6.663   1.904   7.405
13382TIP3    H140091   6.758   1.927   7.391
13382TIP3    H240092   6.661   1.813   7.368
13383TIP3   OH240093   6.575   2.519   7.819
13383TIP3    H140094   6.513   2.456   7.779
13383TIP3    H240095   6.621   2.460   7.884
13384TIP3   OH240096   6.712   2.365   7.995
13384TIP3    H140097   6.721   2.286   8.048
13384TIP3    H240098   6.747   2.433   8.055
13385TIP3   OH240099   6.676   2.304   7.573
13385TIP3    H140100   6.595   2.263   7.535
13385TIP3    H240101   6.668   2.393   7.533
13386TIP3   OH240102   7.442   2.480   7.139
13386TIP3    H140103   7.530   2.499   7.099
13386TIP3    H240104   7.417   2.405   7.079
13387TIP3   OH240105   6.755   2.312   7.194
13387TIP3    H140106   6.759   2.334   7.288
13387TIP3    H240107   6.842   2.268   7.179
13388TIP3   OH240108   2.451   3.285   8.018
13388TIP3    H140109   2.451   3.381   8.024
13388TIP3    H240110   2.547   3.264   8.029
13389TIP3   OH240111   2.496   3.594   8.077
13389TIP3    H140112   2.535   3.675   8.038
13389TIP3    H240113   2.404   3.604   8.048
13390TIP3   OH240114   3.922   3.158   8.369
13390TIP3    H140115   3.891   3.250   8.353
13390TIP3    H240116   3.856   3.111   8.313
13391TIP3   OH240117   4.141   3.490   8.387
13391TIP3    H140118   4.157   3.407   8.437
13391TIP3    H240119   4.169   3.557   8.448
13392TIP3   OH240120   3.785   3.916   8.432
13392TIP3    H140121   3.831   3.854   8.372
13392TIP3    H240122   3.820   3.886   8.517
13393TIP3   OH240123   3.791   3.374   8.236
13393TIP3    H140124   3.764   3.360   8.144
13393TIP3    H240125   3.765   3.467   8.249
13394TIP3   OH240126   3.929   3.764   8.257
13394TIP3    H140127   3.972   3.678   8.238
13394TIP3    H240128   3.996   3.824   8.215
13395TIP3   OH240129   4.045   3.543   8.142
13395TIP3    H140130   4.030   3.456   8.103
13395TIP3    H240131   4.087   3.518   8.227
13396TIP3   OH240132   3.756   3.020   8.204
13396TIP3    H140133   3.671   3.064   8.183
13396TIP3    H240134   3.791   3.003   8.115
13397TIP3   OH240135   3.705   2.794   7.905
13397TIP3    H140136   3.772   2.848   7.950
13397TIP3    H240137   3.762   2.732   7.857
13398TIP3   OH240138   4.081   3.101   8.146
13398TIP3    H140139   4.035   3.110   8.232
13398TIP3    H240140   4.167   3.063   8.174
13399TIP3   OH240141   3.924   2.947   7.987
13399TIP3    H140142   3.980   3.011   8.036
13399TIP3    H240143   3.952   2.967   7.894
13400TIP3   OH240144   3.689   3.635   8.267
13400TIP3    H140145   3.760   3.701   8.253
13400TIP3    H240146   3.614   3.676   8.220
13401TIP3   OH240147   4.448   2.183   8.026
13401TIP3    H140148   4.359   2.197   8.064
13401TIP3    H240149   4.462   2.268   7.978
13402TIP3   OH240150   4.244   3.544   7.587
13402TIP3    H140151   4.242   3.637   7.562
13402TIP3    H240152   4.338   3.520   7.573
13403TIP3   OH240153   3.561   3.872   8.070
13403TIP3    H140154   3.512   3.851   7.988
13403TIP3    H240155   3.529   3.961   8.092
13404TIP3   OH240156   3.757   3.776   7.707
13404TIP3    H140157   3.816   3.706   7.672
13404TIP3    H240158   3.792   3.788   7.798
13405TIP3   OH240159   3.810   3.823   7.975
13405TIP3    H140160   3.722   3.833   8.017
13405TIP3    H240161   3.861   3.780   8.045
13406TIP3   OH240162   4.010   2.990   7.736
13406TIP3    H140163   3.973   2.970   7.648
13406TIP3    H240164   4.093   3.035   7.710
13407TIP3   OH240165   3.726   2.370   8.040
13407TIP3    H140166   3.666   2.393   8.112
13407TIP3    H240167   3.683   2.289   8.005
13408TIP3   OH240168   3.970   2.846   8.300
13408TIP3    H140169   3.882   2.880   8.279
13408TIP3    H240170   3.977   2.773   8.235
13409TIP3   OH240171   3.409   2.386   8.009
13409TIP3    H140172   3.378   2.315   8.068
13409TIP3    H240173   3.325   2.417   7.972
13410TIP3   OH240174   3.240   2.620   8.114
13410TIP3    H140175   3.190   2.615   8.030
13410TIP3    H240176   3.326   2.650   8.077
13411TIP3   OH240177   3.516   3.157   8.141
13411TIP3    H140178   3.448   3.101   8.097
13411TIP3    H240179   3.470   3.185   8.221
13412TIP3   OH240180   3.975   2.463   7.997
13412TIP3    H140181   3.879   2.446   8.011
13412TIP3    H240182   3.985   2.559   8.017
13413TIP3   OH240183   4.053   2.710   8.075
13413TIP3    H140184   4.147   2.718   8.099
13413TIP3    H240185   4.032   2.798   8.038
13414TIP3   OH240186   3.665   3.313   7.970
13414TIP3    H140187   3.616   3.398   7.971
13414TIP3    H240188   3.609   3.258   8.027
13415TIP3   OH240189   4.466   2.797   7.937
13415TIP3    H140190   4.404   2.767   7.866
13415TIP3    H240191   4.472   2.891   7.909
13416TIP3   OH240192   4.182   3.618   7.854
13416TIP3    H140193   4.149   3.560   7.924
13416TIP3    H240194   4.189   3.559   7.777
13417TIP3   OH240195   3.205   3.745   8.246
13417TIP3    H140196   3.157   3.740   8.330
13417TIP3    H240197   3.248   3.833   8.253
13418TIP3   OH240198   3.939   3.362   7.751
13418TIP3    H140199   3.992   3.339   7.831
13418TIP3    H240200   3.851   3.331   7.778
13419TIP3   OH240201   4.103   3.305   7.966
13419TIP3    H140202   4.088   3.233   8.031
13419TIP3    H240203   4.200   3.295   7.952
13420TIP3   OH240204   3.309   3.335   7.756
13420TIP3    H140205   3.316   3.243   7.727
13420TIP3    H240206   3.285   3.324   7.850
13421TIP3   OH240207   3.248   3.341   8.026
13421TIP3    H140208   3.298   3.327   8.106
13421TIP3    H240209   3.248   3.440   8.021
13422TIP3   OH240210   4.061   2.447   8.262
13422TIP3    H140211   4.027   2.453   8.171
13422TIP3    H240212   3.990   2.495   8.310
13423TIP3   OH240213   3.524   3.543   7.978
13423TIP3    H140214   3.431   3.560   8.005
13423TIP3    H240215   3.534   3.612   7.911
13424TIP3   OH240216   3.260   3.609   8.020
13424TIP3    H140217   3.233   3.680   7.958
13424TIP3    H240218   3.236   3.652   8.105
13425TIP3   OH240219   2.978   3.258   8.037
13425TIP3    H140220   3.057   3.315   8.040
13425TIP3    H240221   3.016   3.186   7.982
13426TIP3   OH240222   4.229   3.999   8.533
13426TIP3    H140223   4.196   4.045   8.453
13426TIP3    H240224   4.325   4.004   8.516
13427TIP3   OH240225   3.468   3.540   7.667
13427TIP3    H140226   3.412   3.467   7.702
13427TIP3    H240227   3.542   3.489   7.629
13428TIP3   OH240228   3.902   3.580   7.580
13428TIP3    H140229   3.940   3.510   7.637
13428TIP3    H240230   3.954   3.572   7.498
13429TIP3   OH240231   3.116   3.063   7.890
13429TIP3    H140232   3.180   3.036   7.958
13429TIP3    H240233   3.178   3.069   7.814
13430TIP3   OH240234   3.635   3.259   7.699
13430TIP3    H140235   3.632   3.269   7.795
13430TIP3    H240236   3.631   3.161   7.691
13431TIP3   OH240237   3.327   2.981   8.048
13431TIP3    H140238   3.297   2.957   8.138
13431TIP3    H240239   3.362   2.895   8.014
13432TIP3   OH240240   3.431   2.742   7.945
13432TIP3    H140241   3.406   2.751   7.851
13432TIP3    H240242   3.529   2.746   7.939
13433TIP3   OH240243   4.245   3.083   7.617
13433TIP3    H140244   4.225   3.039   7.532
13433TIP3    H240245   4.210   3.173   7.596
13434TIP3   OH240246   3.232   3.825   7.854
13434TIP3    H140247   3.327   3.817   7.835
13434TIP3    H240248   3.204   3.875   7.775
13435TIP3   OH240249   2.711   3.209   8.049
13435TIP3    H140250   2.808   3.222   8.044
13435TIP3    H240251   2.703   3.114   8.026
13436TIP3   OH240252   4.502   4.062   8.492
13436TIP3    H140253   4.530   4.134   8.551
13436TIP3    H240254   4.556   4.079   8.412
13437TIP3   OH240255   4.380   3.276   7.941
13437TIP3    H140256   4.445   3.343   7.910
13437TIP3    H240257   4.429   3.239   8.018
13438TIP3   OH240258   4.520   3.145   8.133
13438TIP3    H140259   4.448   3.100   8.182
13438TIP3    H240260   4.580   3.177   8.203
13439TIP3   OH240261   4.534   3.535   8.550
13439TIP3    H140262   4.608   3.471   8.544
13439TIP3    H240263   4.571   3.609   8.499
13440TIP3   OH240264   4.446   3.045   7.799
13440TIP3    H140265   4.375   3.047   7.730
13440TIP3    H240266   4.418   3.123   7.852
13441TIP3   OH240267   4.308   2.718   7.737
13441TIP3    H140268   4.261   2.755   7.662
13441TIP3    H240269   4.284   2.623   7.729
13442TIP3   OH240270   4.314   2.981   8.224
13442TIP3    H140271   4.311   2.885   8.205
13442TIP3    H240272   4.326   2.981   8.322
13443TIP3   OH240273   4.255   2.452   7.731
13443TIP3    H140274   4.320   2.415   7.793
13443TIP3    H240275   4.175   2.397   7.746
13444TIP3   OH240276   4.323   2.712   8.157
13444TIP3    H140277   4.359   2.630   8.194
13444TIP3    H240278   4.383   2.727   8.080
13445TIP3   OH240279   4.432   2.444   8.216
13445TIP3    H140280   4.434   2.401   8.303
13445TIP3    H240281   4.355   2.399   8.177
13446TIP3   OH240282   4.505   2.392   7.858
13446TIP3    H140283   4.533   2.314   7.805
13446TIP3    H240284   4.561   2.461   7.819
13447TIP3   OH240285   4.085   3.935   8.121
13447TIP3    H140286   4.132   3.921   8.037
13447TIP3    H240287   4.139   4.005   8.162
13448TIP3   OH240288   4.230   2.249   8.176
13448TIP3    H140289   4.155   2.309   8.195
13448TIP3    H240290   4.193   2.165   8.206
13449TIP3   OH240291   2.769   3.624   8.204
13449TIP3    H140292   2.694   3.608   8.145
13449TIP3    H240293   2.735   3.700   8.254
13450TIP3   OH240294   3.498   3.775   7.804
13450TIP3    H140295   3.586   3.798   7.767
13450TIP3    H240296   3.475   3.701   7.743
13451TIP3   OH240297   4.218   3.884   7.882
13451TIP3    H140298   4.201   3.787   7.875
13451TIP3    H240299   4.169   3.918   7.804
13452TIP3   OH240300   2.805   3.613   7.865
13452TIP3    H140301   2.818   3.631   7.959
13452TIP3    H240302   2.890   3.569   7.842
13453TIP3   OH240303   5.711   3.415   7.845
13453TIP3    H140304   5.678   3.505   7.823
13453TIP3    H240305   5.635   3.362   7.815
13454TIP3   OH240306   5.707   3.414   8.236
13454TIP3    H140307   5.745   3.389   8.323
13454TIP3    H240308   5.668   3.329   8.207
13455TIP3   OH240309   5.024   3.352   8.583
13455TIP3    H140310   5.037   3.282   8.649
13455TIP3    H240311   5.111   3.351   8.537
13456TIP3   OH240312   5.958   3.713   7.915
13456TIP3    H140313   5.937   3.647   7.982
13456TIP3    H240314   5.985   3.790   7.968
13457TIP3   OH240315   4.980   3.716   8.328
13457TIP3    H140316   4.968   3.619   8.318
13457TIP3    H240317   5.076   3.723   8.314
13458TIP3   OH240318   4.682   2.938   8.060
13458TIP3    H140319   4.653   3.031   8.072
13458TIP3    H240320   4.605   2.894   8.100
13459TIP3   OH240321   4.752   3.209   8.272
13459TIP3    H140322   4.807   3.137   8.310
13459TIP3    H240323   4.817   3.265   8.230
13460TIP3   OH240324   5.608   4.179   7.930
13460TIP3    H140325   5.649   4.107   7.878
13460TIP3    H240326   5.589   4.135   8.014
13461TIP3   OH240327   5.509   3.638   8.280
13461TIP3    H140328   5.548   3.560   8.238
13461TIP3    H240329   5.592   3.685   8.303
13462TIP3   OH240330   6.510   2.978   8.260
13462TIP3    H140331   6.546   3.058   8.306
13462TIP3    H240332   6.516   3.008   8.167
13463TIP3   OH240333   5.919   3.138   8.308
13463TIP3    H140334   5.964   3.053   8.327
13463TIP3    H240335   5.889   3.123   8.216
13464TIP3   OH240336   5.268   2.789   8.279
13464TIP3    H140337   5.249   2.867   8.223
13464TIP3    H240338   5.226   2.718   8.226
13465TIP3   OH240339   5.956   2.890   7.895
13465TIP3    H140340   6.027   2.873   7.962
13465TIP3    H240341   6.009   2.926   7.822
13466TIP3   OH240342   4.893   2.997   8.376
13466TIP3    H140343   4.971   2.993   8.435
13466TIP3    H240344   4.842   2.924   8.413
13467TIP3   OH240345   5.327   3.202   8.184
13467TIP3    H140346   5.424   3.183   8.188
13467TIP3    H240347   5.293   3.115   8.156
13468TIP3   OH240348   6.582   3.179   8.436
13468TIP3    H140349   6.498   3.227   8.426
13468TIP3    H240350   6.566   3.136   8.522
13469TIP3   OH240351   5.597   3.634   7.717
13469TIP3    H140352   5.558   3.622   7.629
13469TIP3    H240353   5.552   3.717   7.745
13470TIP3   OH240354   5.369   3.573   8.506
13470TIP3    H140355   5.304   3.641   8.533
13470TIP3    H240356   5.412   3.616   8.428
13471TIP3   OH240357   6.160   2.892   8.076
13471TIP3    H140358   6.128   2.863   8.163
13471TIP3    H240359   6.211   2.972   8.100
13472TIP3   OH240360   5.113   2.880   8.493
13472TIP3    H140361   5.175   2.956   8.501
13472TIP3    H240362   5.160   2.827   8.427
13473TIP3   OH240363   5.181   3.750   8.608
13473TIP3    H140364   5.150   3.835   8.569
13473TIP3    H240365   5.119   3.740   8.682
13474TIP3   OH240366   4.578   3.447   7.834
13474TIP3    H140367   4.539   3.473   7.749
13474TIP3    H240368   4.596   3.535   7.874
13475TIP3   OH240369   6.023   3.961   8.076
13475TIP3    H140370   5.933   3.952   8.117
13475TIP3    H240371   6.014   4.047   8.030
13476TIP3   OH240372   6.317   2.885   8.439
13476TIP3    H140373   6.225   2.895   8.408
13476TIP3    H240374   6.368   2.916   8.361
13477TIP3   OH240375   5.609   2.492   8.402
13477TIP3    H140376   5.618   2.399   8.431
13477TIP3    H240377   5.594   2.535   8.488
13478TIP3   OH240378   5.722   4.003   7.751
13478TIP3    H140379   5.772   3.920   7.731
13478TIP3    H240380   5.785   4.068   7.712
13479TIP3   OH240381   5.867   3.787   7.664
13479TIP3    H140382   5.829   3.708   7.625
13479TIP3    H240383   5.904   3.752   7.748
13480TIP3   OH240384   6.240   3.871   8.421
13480TIP3    H140385   6.232   3.791   8.364
13480TIP3    H240386   6.225   3.943   8.357
13481TIP3   OH240387   5.540   3.264   7.682
13481TIP3    H140388   5.461   3.318   7.661
13481TIP3    H240389   5.586   3.262   7.596
13482TIP3   OH240390   5.499   3.049   7.395
13482TIP3    H140391   5.565   3.103   7.442
13482TIP3    H240392   5.558   2.988   7.346
13483TIP3   OH240393   6.447   3.515   8.265
13483TIP3    H140394   6.362   3.563   8.275
13483TIP3    H240395   6.469   3.537   8.172
13484TIP3   OH240396   5.889   3.347   7.650
13484TIP3    H140397   5.833   3.371   7.728
13484TIP3    H240398   5.973   3.323   7.695
13485TIP3   OH240399   6.120   3.376   8.570
13485TIP3    H140400   6.124   3.456   8.627
13485TIP3    H240401   6.033   3.389   8.526
13486TIP3   OH240402   5.124   3.343   8.066
13486TIP3    H140403   5.084   3.284   7.998
13486TIP3    H240404   5.200   3.289   8.099
13487TIP3   OH240405   5.247   3.748   8.219
13487TIP3    H140406   5.229   3.722   8.127
13487TIP3    H240407   5.338   3.715   8.232
13488TIP3   OH240408   5.245   3.345   8.415
13488TIP3    H140409   5.280   3.312   8.329
13488TIP3    H240410   5.298   3.426   8.431
13489TIP3   OH240411   5.784   3.956   8.201
13489TIP3    H140412   5.765   4.034   8.256
13489TIP3    H240413   5.767   3.881   8.261
13490TIP3   OH240414   5.395   3.901   8.696
13490TIP3    H140415   5.348   3.947   8.767
13490TIP3    H240416   5.326   3.839   8.665
13491TIP3   OH240417   5.725   3.207   7.477
13491TIP3    H140418   5.785   3.267   7.526
13491TIP3    H240419   5.751   3.227   7.384
13492TIP3   OH240420   5.473   3.883   7.754
13492TIP3    H140421   5.555   3.935   7.762
13492TIP3    H240422   5.413   3.944   7.711
13493TIP3   OH240423   6.244   2.443   7.529
13493TIP3    H140424   6.162   2.467   7.577
13493TIP3    H240425   6.259   2.525   7.477
13494TIP3   OH240426   4.989   3.188   7.869
13494TIP3    H140427   4.924   3.238   7.815
13494TIP3    H240428   4.940   3.107   7.885
13495TIP3   OH240429   6.044   3.812   7.081
13495TIP3    H140430   6.053   3.908   7.062
13495TIP3    H240431   6.136   3.781   7.065
13496TIP3   OH240432   4.628   3.772   8.408
13496TIP3    H140433   4.722   3.763   8.387
13496TIP3    H240434   4.626   3.857   8.455
13497TIP3   OH240435   6.492   4.221   8.473
13497TIP3    H140436   6.491   4.124   8.486
13497TIP3    H240437   6.403   4.243   8.511
13498TIP3   OH240438   5.612   4.005   8.589
13498TIP3    H140439   5.608   4.095   8.627
13498TIP3    H240440   5.529   3.966   8.625
13499TIP3   OH240441   5.358   4.128   7.557
13499TIP3    H140442   5.309   4.114   7.474
13499TIP3    H240443   5.320   4.212   7.590
13500TIP3   OH240444   5.553   4.032   7.194
13500TIP3    H140445   5.612   3.962   7.158
13500TIP3    H240446   5.589   4.043   7.285
13501TIP3   OH240447   5.608   4.080   7.463
13501TIP3    H140448   5.519   4.091   7.503
13501TIP3    H240449   5.657   4.043   7.538
13502TIP3   OH240450   6.389   3.350   8.708
13502TIP3    H140451   6.294   3.365   8.698
13502TIP3    H240452   6.395   3.254   8.712
13503TIP3   OH240453   6.146   3.130   8.693
13503TIP3    H140454   6.116   3.152   8.782
13503TIP3    H240455   6.121   3.210   8.642
13504TIP3   OH240456   5.804   3.250   7.223
13504TIP3    H140457   5.769   3.226   7.135
13504TIP3    H240458   5.890   3.289   7.197
13505TIP3   OH240459   5.513   2.625   7.526
13505TIP3    H140460   5.480   2.621   7.618
13505TIP3    H240461   5.475   2.542   7.491
13506TIP3   OH240462   5.271   3.091   8.512
13506TIP3    H140463   5.335   3.084   8.585
13506TIP3    H240464   5.278   3.184   8.484
13507TIP3   OH240465   5.195   2.975   8.090
13507TIP3    H140466   5.099   2.959   8.097
13507TIP3    H240467   5.211   2.936   8.000
13508TIP3   OH240468   5.676   3.062   7.815
13508TIP3    H140469   5.626   3.134   7.771
13508TIP3    H240470   5.732   3.030   7.742
13509TIP3   OH240471   5.838   3.092   8.050
13509TIP3    H140472   5.770   3.118   7.985
13509TIP3    H240473   5.871   3.012   8.005
13510TIP3   OH240474   5.171   2.599   7.491
13510TIP3    H140475   5.162   2.602   7.588
13510TIP3    H240476   5.094   2.653   7.464
13511TIP3   OH240477   4.734   2.700   8.215
13511TIP3    H140478   4.754   2.697   8.312
13511TIP3    H240479   4.729   2.604   8.197
13512TIP3   OH240480   4.704   2.670   7.903
13512TIP3    H140481   4.724   2.682   7.807
13512TIP3    H240482   4.612   2.706   7.903
13513TIP3   OH240483   5.842   3.340   8.470
13513TIP3    H140484   5.876   3.265   8.415
13513TIP3    H240485   5.822   3.292   8.554
13514TIP3   OH240486   5.520   2.802   8.145
13514TIP3    H140487   5.442   2.797   8.203
13514TIP3    H240488   5.593   2.795   8.208
13515TIP3   OH240489   4.956   2.838   8.127
13515TIP3    H140490   4.921   2.862   8.215
13515TIP3    H240491   5.019   2.765   8.148
13516TIP3   OH240492   5.213   2.851   7.844
13516TIP3    H140493   5.309   2.867   7.827
13516TIP3    H240494   5.170   2.876   7.759
13517TIP3   OH240495   6.016   2.876   8.332
13517TIP3    H140496   6.000   2.882   8.430
13517TIP3    H240497   5.945   2.815   8.308
13518TIP3   OH240498   5.060   2.885   7.618
13518TIP3    H140499   4.996   2.839   7.560
13518TIP3    H240500   5.116   2.929   7.550
13519TIP3   OH240501   6.190   4.560   8.555
13519TIP3    H140502   6.191   4.582   8.461
13519TIP3    H240503   6.223   4.643   8.594
13520TIP3   OH240504   5.593   3.147   8.231
13520TIP3    H140505   5.670   3.094   8.203
13520TIP3    H240506   5.586   3.122   8.326
13521TIP3   OH240507   5.123   2.620   8.123
13521TIP3    H140508   5.079   2.541   8.164
13521TIP3    H240509   5.172   2.577   8.051
13522TIP3   OH240510   5.578   3.072   8.494
13522TIP3    H140511   5.505   3.019   8.530
13522TIP3    H240512   5.651   3.042   8.550
13523TIP3   OH240513   5.309   3.416   7.629
13523TIP3    H140514   5.236   3.352   7.616
13523TIP3    H240515   5.289   3.451   7.719
13524TIP3   OH240516   6.209   3.651   8.256
13524TIP3    H140517   6.230   3.704   8.177
13524TIP3    H240518   6.124   3.609   8.231
13525TIP3   OH240519   5.768   2.724   7.502
13525TIP3    H140520   5.670   2.708   7.505
13525TIP3    H240521   5.775   2.820   7.520
13526TIP3   OH240522   5.716   3.739   8.618
13526TIP3    H140523   5.709   3.691   8.701
13526TIP3    H240524   5.670   3.823   8.634
13527TIP3   OH240525   5.835   2.979   7.598
13527TIP3    H140526   5.932   2.985   7.611
13527TIP3    H240527   5.816   3.058   7.544
13528TIP3   OH240528   4.989   3.439   8.285
13528TIP3    H140529   5.039   3.410   8.206
13528TIP3    H240530   5.039   3.397   8.357
13529TIP3   OH240531   5.456   3.568   7.455
13529TIP3    H140532   5.406   3.653   7.457
13529TIP3    H240533   5.401   3.513   7.515
13530TIP3   OH240534   5.877   3.998   8.524
13530TIP3    H140535   5.780   3.983   8.530
13530TIP3    H240536   5.888   4.068   8.589
13531TIP3   OH240537   6.279   3.072   7.431
13531TIP3    H140538   6.214   3.028   7.371
13531TIP3    H240539   6.274   3.161   7.390
13532TIP3   OH240540   6.487   3.940   8.506
13532TIP3    H140541   6.392   3.921   8.491
13532TIP3    H240542   6.525   3.902   8.424
13533TIP3   OH240543   5.990   3.884   7.345
13533TIP3    H140544   5.942   3.818   7.397
13533TIP3    H240545   5.996   3.844   7.257
13534TIP3   OH240546   5.973   3.518   8.173
13534TIP3    H140547   5.880   3.491   8.188
13534TIP3    H240548   6.007   3.438   8.128
13535TIP3   OH240549   5.108   3.748   7.932
13535TIP3    H140550   5.103   3.830   7.879
13535TIP3    H240551   5.015   3.739   7.957
13536TIP3   OH240552   4.674   3.046   7.640
13536TIP3    H140553   4.716   3.133   7.659
13536TIP3    H240554   4.595   3.051   7.699
13537TIP3   OH240555   5.236   3.509   7.871
13537TIP3    H140556   5.203   3.599   7.890
13537TIP3    H240557   5.202   3.459   7.947
13538TIP3   OH240558   5.372   4.090   8.397
13538TIP3    H140559   5.410   4.163   8.344
13538TIP3    H240560   5.452   4.051   8.434
13539TIP3   OH240561   5.005   3.991   7.790
13539TIP3    H140562   4.925   4.038   7.822
13539TIP3    H240563   5.066   4.068   7.787
13540TIP3   OH240564   5.762   3.722   8.353
13540TIP3    H140565   5.753   3.722   8.451
13540TIP3    H240566   5.837   3.663   8.341
13541TIP3   OH240567   5.737   3.619   7.243
13541TIP3    H140568   5.788   3.591   7.322
13541TIP3    H240569   5.648   3.589   7.267
13542TIP3   OH240570   6.001   4.254   8.408
13542TIP3    H140571   5.921   4.202   8.386
13542TIP3    H240572   5.997   4.321   8.335
13543TIP3   OH240573   6.076   4.087   7.062
13543TIP3    H140574   6.110   4.157   7.004
13543TIP3    H240575   5.997   4.132   7.097
13544TIP3   OH240576   5.892   3.549   7.460
13544TIP3    H140577   5.881   3.482   7.531
13544TIP3    H240578   5.987   3.539   7.442
13545TIP3   OH240579   4.816   3.957   8.538
13545TIP3    H140580   4.871   3.879   8.553
13545TIP3    H240581   4.810   3.996   8.626
13546TIP3   OH240582   5.102   3.594   7.244
13546TIP3    H140583   5.114   3.501   7.216
13546TIP3    H240584   5.079   3.584   7.338
13547TIP3   OH240585   5.041   3.603   7.518
13547TIP3    H140586   5.121   3.577   7.568
13547TIP3    H240587   5.046   3.701   7.524
13548TIP3   OH240588   4.780   3.294   7.719
13548TIP3    H140589   4.713   3.341   7.773
13548TIP3    H240590   4.795   3.361   7.649
13549TIP3   OH240591   5.966   2.914   8.594
13549TIP3    H140592   6.024   2.958   8.658
13549TIP3    H240593   5.883   2.901   8.642
13550TIP3   OH240594   5.814   2.676   7.779
13550TIP3    H140595   5.800   2.698   7.685
13550TIP3    H240596   5.854   2.759   7.814
13551TIP3   OH240597   5.310   3.795   7.463
13551TIP3    H140598   5.224   3.823   7.500
13551TIP3    H240599   5.328   3.869   7.403
13552TIP3   OH240600   5.492   2.864   7.877
13552TIP3    H140601   5.558   2.935   7.859
13552TIP3    H240602   5.504   2.853   7.974
13553TIP3   OH240603   5.797   3.211   8.706
13553TIP3    H140604   5.814   3.264   8.787
13553TIP3    H240605   5.815   3.121   8.737
13554TIP3   OH240606   5.641   2.580   7.974
13554TIP3    H140607   5.640   2.654   8.038
13554TIP3    H240608   5.704   2.615   7.908
13555TIP3   OH240609   5.055   3.875   7.536
13555TIP3    H140610   5.028   3.944   7.471
13555TIP3    H240611   5.034   3.920   7.621
13556TIP3   OH240612   5.155   2.588   7.769
13556TIP3    H140613   5.159   2.680   7.804
13556TIP3    H240614   5.251   2.566   7.775
13557TIP3   OH240615   6.407   3.063   8.638
13557TIP3    H140616   6.312   3.080   8.658
13557TIP3    H240617   6.395   2.990   8.575
13558TIP3   OH240618   6.058   3.276   8.049
13558TIP3    H140619   5.981   3.217   8.060
13558TIP3    H240620   6.128   3.229   8.098
13559TIP3   OH240621   4.777   3.499   7.523
13559TIP3    H140622   4.852   3.562   7.531
13559TIP3    H240623   4.816   3.440   7.454
13560TIP3   OH240624   4.698   2.771   7.654
13560TIP3    H140625   4.709   2.869   7.652
13560TIP3    H240626   4.636   2.758   7.582
13561TIP3   OH240627   6.031   4.231   8.001
13561TIP3    H140628   5.988   4.278   7.926
13561TIP3    H240629   6.125   4.248   7.979
13562TIP3   OH240630   4.613   3.719   7.909
13562TIP3    H140631   4.592   3.763   7.995
13562TIP3    H240632   4.690   3.770   7.882
13563TIP3   OH240633   5.264   3.797   7.151
13563TIP3    H140634   5.210   3.724   7.189
13563TIP3    H240635   5.339   3.748   7.113
13564TIP3   OH240636   5.941   4.112   8.777
13564TIP3    H140637   5.983   4.026   8.763
13564TIP3    H240638   6.013   4.174   8.760
13565TIP3   OH240639   5.699   3.837   7.065
13565TIP3    H140640   5.741   3.770   7.123
13565TIP3    H240641   5.753   3.833   6.984
13566TIP3   OH240642   4.909   3.311   7.379
13566TIP3    H140643   4.969   3.284   7.451
13566TIP3    H240644   4.974   3.317   7.305
13567TIP3   OH240645   5.427   3.513   7.185
13567TIP3    H140646   5.427   3.525   7.282
13567TIP3    H240647   5.426   3.415   7.179
13568TIP3   OH240648   6.034   3.767   8.574
13568TIP3    H140649   6.110   3.802   8.523
13568TIP3    H240650   5.964   3.829   8.546
13569TIP3   OH240651   5.112   3.222   7.593
13569TIP3    H140652   5.090   3.181   7.678
13569TIP3    H240653   5.153   3.148   7.544
13570TIP3   OH240654   5.221   3.015   7.439
13570TIP3    H140655   5.195   3.022   7.345
13570TIP3    H240656   5.318   3.017   7.431
13571TIP3   OH240657   6.037   3.339   7.104
13571TIP3    H140658   6.026   3.292   7.019
13571TIP3    H240659   6.002   3.428   7.077
13572TIP3   OH240660   5.536   3.413   8.661
13572TIP3    H140661   5.614   3.376   8.618
13572TIP3    H240662   5.499   3.472   8.593
13573TIP3   OH240663   6.165   3.591   8.738
13573TIP3    H140664   6.106   3.654   8.691
13573TIP3    H240665   6.252   3.626   8.709
13574TIP3   OH240666   5.027   4.068   7.340
13574TIP3    H140667   5.123   4.063   7.323
13574TIP3    H240668   5.000   4.124   7.264
13575TIP3   OH240669   4.505   3.463   7.551
13575TIP3    H140670   4.600   3.483   7.538
13575TIP3    H240671   4.500   3.372   7.513
13576TIP3   OH240672   4.387   4.059   8.005
13576TIP3    H140673   4.337   3.993   7.952
13576TIP3    H240674   4.459   4.005   8.041
13577TIP3   OH240675   4.564   3.893   8.148
13577TIP3    H140676   4.553   3.841   8.230
13577TIP3    H240677   4.617   3.967   8.182
13578TIP3   OH240678   6.289   4.309   7.961
13578TIP3    H140679   6.308   4.348   8.049
13578TIP3    H240680   6.341   4.367   7.903
13579TIP3   OH240681   6.307   4.340   8.240
13579TIP3    H140682   6.268   4.249   8.238
13579TIP3    H240683   6.385   4.324   8.295
13580TIP3   OH240684   6.167   3.526   7.435
13580TIP3    H140685   6.200   3.616   7.431
13580TIP3    H240686   6.215   3.489   7.513
13581TIP3   OH240687   6.303   3.401   7.640
13581TIP3    H140688   6.234   3.356   7.694
13581TIP3    H240689   6.359   3.443   7.708
13582TIP3   OH240690   6.362   3.793   8.073
13582TIP3    H140691   6.412   3.726   8.023
13582TIP3    H240692   6.358   3.867   8.009
13583TIP3   OH240693   6.186   4.091   8.262
13583TIP3    H140694   6.113   4.130   8.313
13583TIP3    H240695   6.138   4.045   8.189
13584TIP3   OH240696   6.239   3.306   7.283
13584TIP3    H140697   6.169   3.302   7.213
13584TIP3    H240698   6.203   3.381   7.336
13585TIP3   OH240699   6.109   2.982   7.242
13585TIP3    H140700   6.109   3.015   7.151
13585TIP3    H240701   6.081   2.889   7.230
13586TIP3   OH240702   6.119   3.256   7.781
13586TIP3    H140703   6.123   3.159   7.773
13586TIP3    H240704   6.102   3.267   7.877
13587TIP3   OH240705   4.753   3.376   8.504
13587TIP3    H140706   4.745   3.318   8.427
13587TIP3    H240707   4.847   3.365   8.529
13588TIP3   OH240708   6.403   3.692   8.642
13588TIP3    H140709   6.474   3.626   8.635
13588TIP3    H240710   6.446   3.771   8.607
13589TIP3   OH240711   6.604   3.500   8.641
13589TIP3    H140712   6.529   3.438   8.661
13589TIP3    H240713   6.646   3.504   8.729
13590TIP3   OH240714   6.054   2.715   7.227
13590TIP3    H140715   6.126   2.679   7.281
13590TIP3    H240716   5.981   2.653   7.241
13591TIP3   OH240717   6.116   2.973   7.677
13591TIP3    H140718   6.156   2.884   7.692
13591TIP3    H240719   6.171   3.003   7.603
13592TIP3   OH240720   6.267   3.145   8.169
13592TIP3    H140721   6.354   3.169   8.130
13592TIP3    H240722   6.280   3.184   8.259
13593TIP3   OH240723   6.334   3.294   8.395
13593TIP3    H140724   6.263   3.324   8.455
13593TIP3    H240725   6.370   3.379   8.362
13594TIP3   OH240726   6.221   2.721   7.714
13594TIP3    H140727   6.267   2.705   7.799
13594TIP3    H240728   6.159   2.645   7.713
13595TIP3   OH240729   6.303   2.650   7.354
13595TIP3    H140730   6.339   2.581   7.294
13595TIP3    H240731   6.368   2.722   7.344
13596TIP3   OH240732   4.688   2.462   8.091
13596TIP3    H140733   4.594   2.447   8.114
13596TIP3    H240734   4.682   2.526   8.017
13597TIP3   OH240735   5.870   4.185   7.618
13597TIP3    H140736   5.920   4.176   7.534
13597TIP3    H240737   5.918   4.256   7.662
13598TIP3   OH240738   5.146   4.017   8.545
13598TIP3    H140739   5.094   4.091   8.508
13598TIP3    H240740   5.231   4.037   8.503
13599TIP3   OH240741   5.615   4.257   8.692
13599TIP3    H140742   5.663   4.276   8.773
13599TIP3    H240743   5.664   4.314   8.629
13600TIP3   OH240744   5.782   4.417   8.549
13600TIP3    H140745   5.839   4.364   8.490
13600TIP3    H240746   5.842   4.489   8.573
13601TIP3   OH240747   4.826   4.301   8.567
13601TIP3    H140748   4.744   4.339   8.530
13601TIP3    H240749   4.806   4.300   8.661
13602TIP3   OH240750   5.063   4.259   8.431
13602TIP3    H140751   4.977   4.277   8.475
13602TIP3    H240752   5.045   4.287   8.340
13603TIP3   OH240753   5.486   4.285   8.231
13603TIP3    H140754   5.413   4.298   8.167
13603TIP3    H240755   5.495   4.375   8.267
13604TIP3   OH240756   5.753   4.227   8.287
13604TIP3    H140757   5.659   4.244   8.264
13604TIP3    H240758   5.798   4.294   8.233
13605TIP3   OH240759   5.956   4.414   8.193
13605TIP3    H140760   5.943   4.500   8.147
13605TIP3    H240761   5.985   4.356   8.119
13606TIP3   OH240762   4.723   4.069   8.306
13606TIP3    H140763   4.763   4.049   8.394
13606TIP3    H240764   4.795   4.033   8.249
13607TIP3   OH240765   4.927   3.945   8.184
13607TIP3    H140766   4.950   3.865   8.234
13607TIP3    H240767   5.014   3.984   8.166
13608TIP3   OH240768   5.195   4.036   8.179
13608TIP3    H140769   5.228   3.945   8.169
13608TIP3    H240770   5.240   4.063   8.261
13609TIP3   OH240771   5.766   2.693   8.253
13609TIP3    H140772   5.730   2.618   8.303
13609TIP3    H240773   5.849   2.655   8.217
13610TIP3   OH240774   6.286   2.568   8.167
13610TIP3    H140775   6.321   2.626   8.097
13610TIP3    H240776   6.194   2.599   8.174
13611TIP3   OH240777   6.382   2.675   7.934
13611TIP3    H140778   6.457   2.625   7.895
13611TIP3    H240779   6.412   2.768   7.919
13612TIP3   OH240780   5.008   2.402   8.230
13612TIP3    H140781   4.922   2.372   8.265
13612TIP3    H240782   5.062   2.323   8.248
13613TIP3   OH240783   4.809   2.268   7.926
13613TIP3    H140784   4.843   2.325   7.856
13613TIP3    H240785   4.777   2.333   7.993
13614TIP3   OH240786   5.464   2.444   8.166
13614TIP3    H140787   5.516   2.490   8.098
13614TIP3    H240788   5.512   2.469   8.248
13615TIP3   OH240789   6.000   2.585   8.144
13615TIP3    H140790   6.009   2.547   8.056
13615TIP3    H240791   5.986   2.504   8.198
13616TIP3   OH240792   6.038   2.509   7.708
13616TIP3    H140793   5.952   2.553   7.724
13616TIP3    H240794   6.023   2.423   7.753
13617TIP3   OH240795   4.477   3.850   7.668
13617TIP3    H140796   4.440   3.789   7.734
13617TIP3    H240797   4.523   3.911   7.728
13618TIP3   OH240798   4.925   2.433   7.696
13618TIP3    H140799   4.970   2.369   7.637
13618TIP3    H240800   5.001   2.487   7.727
13619TIP3   OH240801   5.432   2.611   7.791
13619TIP3    H140802   5.496   2.566   7.849
13619TIP3    H240803   5.453   2.704   7.815
13620TIP3   OH240804   5.295   4.029   7.291
13620TIP3    H140805   5.382   4.054   7.254
13620TIP3    H240806   5.273   3.956   7.230
13621TIP3   OH240807   6.015   4.154   7.385
13621TIP3    H140808   6.010   4.056   7.374
13621TIP3    H240809   5.968   4.185   7.305
13622TIP3   OH240810   6.238   4.288   8.558
13622TIP3    H140811   6.157   4.269   8.506
13622TIP3    H240812   6.227   4.385   8.573
13623TIP3   OH240813   7.500   3.664   7.342
13623TIP3    H140814   7.475   3.757   7.321
13623TIP3    H240815   7.430   3.618   7.292
13624TIP3   OH240816   7.490   3.665   7.718
13624TIP3    H140817   7.570   3.619   7.749
13624TIP3    H240818   7.459   3.607   7.648
13625TIP3   OH240819   6.803   3.572   8.066
13625TIP3    H140820   6.825   3.500   8.129
13625TIP3    H240821   6.881   3.628   8.078
13626TIP3   OH240822   7.749   3.968   7.398
13626TIP3    H140823   7.748   3.897   7.466
13626TIP3    H240824   7.782   4.043   7.450
13627TIP3   OH240825   6.780   3.974   7.800
13627TIP3    H140826   6.771   3.877   7.808
13627TIP3    H240827   6.877   3.984   7.797
13628TIP3   OH240828   6.482   3.186   7.589
13628TIP3    H140829   6.423   3.260   7.607
13628TIP3    H240830   6.419   3.124   7.549
13629TIP3   OH240831   6.549   3.474   7.754
13629TIP3    H140832   6.586   3.402   7.811
13629TIP3    H240833   6.583   3.446   7.669
13630TIP3   OH240834   7.398   4.433   7.416
13630TIP3    H140835   7.440   4.360   7.367
13630TIP3    H240836   7.397   4.398   7.507
13631TIP3   OH240837   7.304   3.895   7.761
13631TIP3    H140838   7.352   3.812   7.742
13631TIP3    H240839   7.383   3.951   7.776
13632TIP3   OH240840   7.049   3.064   7.744
13632TIP3    H140841   7.025   3.137   7.682
13632TIP3    H240842   7.003   2.989   7.702
13633TIP3   OH240843   7.723   3.188   7.362
13633TIP3    H140844   7.786   3.121   7.399
13633TIP3    H240845   7.773   3.220   7.285
13634TIP3   OH240846   6.684   3.269   7.868
13634TIP3    H140847   6.771   3.256   7.911
13634TIP3    H240848   6.691   3.204   7.795
13635TIP3   OH240849   7.123   3.466   7.659
13635TIP3    H140850   7.216   3.436   7.671
13635TIP3    H240851   7.081   3.382   7.629
13636TIP3   OH240852   7.016   3.006   8.192
13636TIP3    H140853   6.987   3.081   8.139
13636TIP3    H240854   7.082   3.047   8.256
13637TIP3   OH240855   7.388   3.884   7.207
13637TIP3    H140856   7.358   3.878   7.114
13637TIP3    H240857   7.348   3.969   7.233
13638TIP3   OH240858   7.141   3.823   7.975
13638TIP3    H140859   7.087   3.895   8.015
13638TIP3    H240860   7.196   3.874   7.911
13639TIP3   OH240861   6.929   3.173   7.965
13639TIP3    H140862   6.992   3.244   7.995
13639TIP3    H240863   6.981   3.133   7.893
13640TIP3   OH240864   6.985   4.018   8.093
13640TIP3    H140865   6.963   4.108   8.060
13640TIP3    H240866   6.904   4.001   8.147
13641TIP3   OH240867   7.821   4.221   7.556
13641TIP3    H140868   7.735   4.204   7.601
13641TIP3    H240869   7.801   4.310   7.520
13642TIP3   OH240870   7.514   4.259   7.233
13642TIP3    H140871   7.566   4.177   7.215
13642TIP3    H240872   7.578   4.325   7.197
13643TIP3   OH240873   7.661   4.044   7.151
13643TIP3    H140874   7.637   3.963   7.104
13643TIP3    H240875   7.696   4.009   7.236
13644TIP3   OH240876   7.336   3.532   7.162
13644TIP3    H140877   7.256   3.583   7.139
13644TIP3    H240878   7.381   3.524   7.076
13645TIP3   OH240879   7.296   3.304   6.884
13645TIP3    H140880   7.364   3.361   6.925
13645TIP3    H240881   7.354   3.242   6.835
13646TIP3   OH240882   7.681   3.607   7.139
13646TIP3    H140883   7.627   3.629   7.218
13646TIP3    H240884   7.766   3.583   7.180
13647TIP3   OH240885   6.909   3.590   7.548
13647TIP3    H140886   6.904   3.504   7.502
13647TIP3    H240887   6.992   3.572   7.598
13648TIP3   OH240888   7.048   4.006   7.706
13648TIP3    H140889   7.035   3.982   7.614
13648TIP3    H240890   7.139   3.974   7.724
13649TIP3   OH240891   7.054   3.574   7.906
13649TIP3    H140892   7.092   3.549   7.820
13649TIP3    H240893   7.086   3.666   7.919
13650TIP3   OH240894   7.581   4.217   7.675
13650TIP3    H140895   7.565   4.299   7.728
13650TIP3    H240896   7.564   4.145   7.739
13651TIP3   OH240897   7.190   4.142   8.236
13651TIP3    H140898   7.121   4.198   8.278
13651TIP3    H240899   7.133   4.081   8.185
13652TIP3   OH240900   7.520   3.464   6.963
13652TIP3    H140901   7.580   3.525   7.012
13652TIP3    H240902   7.546   3.484   6.870
13653TIP3   OH240903   6.927   3.692   8.333
13653TIP3    H140904   6.924   3.779   8.377
13653TIP3    H240905   6.835   3.662   8.351
13654TIP3   OH240906   7.266   4.139   7.244
13654TIP3    H140907   7.350   4.190   7.251
13654TIP3    H240908   7.209   4.201   7.197
13655TIP3   OH240909   6.981   4.289   8.324
13655TIP3    H140910   6.942   4.304   8.236
13655TIP3    H240911   6.901   4.274   8.380
13656TIP3   OH240912   7.970   2.702   6.961
13656TIP3    H140913   7.913   2.722   7.039
13656TIP3    H240914   7.989   2.791   6.926
13657TIP3   OH240915   6.732   3.460   7.385
13657TIP3    H140916   6.675   3.475   7.306
13657TIP3    H240917   6.736   3.363   7.386
13658TIP3   OH240918   7.841   4.068   6.566
13658TIP3    H140919   7.849   4.164   6.547
13658TIP3    H240920   7.933   4.038   6.551
13659TIP3   OH240921   6.563   3.828   8.269
13659TIP3    H140922   6.492   3.810   8.204
13659TIP3    H240923   6.595   3.738   8.291
13660TIP3   OH240924   6.417   4.022   7.902
13660TIP3    H140925   6.513   4.032   7.900
13660TIP3    H240926   6.392   4.103   7.950
13661TIP3   OH240927   7.368   4.274   8.084
13661TIP3    H140928   7.403   4.334   8.151
13661TIP3    H240929   7.302   4.224   8.137
13662TIP3   OH240930   7.153   4.384   7.045
13662TIP3    H140931   7.105   4.367   6.961
13662TIP3    H240932   7.118   4.471   7.071
13663TIP3   OH240933   6.588   4.238   7.428
13663TIP3    H140934   6.631   4.228   7.515
13663TIP3    H240935   6.532   4.159   7.425
13664TIP3   OH240936   7.351   4.290   6.681
13664TIP3    H140937   7.409   4.219   6.645
13664TIP3    H240938   7.386   4.299   6.772
13665TIP3   OH240939   7.403   4.337   6.951
13665TIP3    H140940   7.314   4.348   6.991
13665TIP3    H240941   7.453   4.301   7.027
13666TIP3   OH240942   6.764   4.011   8.255
13666TIP3    H140943   6.803   3.996   8.343
13666TIP3    H240944   6.688   3.948   8.257
13667TIP3   OH240945   0.690   6.200   1.421
13667TIP3    H140946   0.621   6.125   1.416
13667TIP3    H240947   0.654   6.246   1.499
13668TIP3   OH240948   7.603   3.505   6.712
13668TIP3    H140949   7.564   3.484   6.625
13668TIP3    H240950   7.687   3.546   6.684
13669TIP3   OH240951   7.313   2.879   7.012
13669TIP3    H140952   7.271   2.876   7.100
13669TIP3    H240953   7.272   2.799   6.973
13670TIP3   OH240954   7.102   3.357   8.067
13670TIP3    H140955   7.044   3.380   8.142
13670TIP3    H240956   7.097   3.439   8.014
13671TIP3   OH240957   6.970   3.254   7.560
13671TIP3    H140958   6.883   3.213   7.585
13671TIP3    H240959   6.989   3.204   7.478
13672TIP3   OH240960   7.456   3.325   7.296
13672TIP3    H140961   7.411   3.397   7.247
13672TIP3    H240962   7.522   3.294   7.231
13673TIP3   OH240963   7.600   3.371   7.534
13673TIP3    H140964   7.542   3.399   7.461
13673TIP3    H240965   7.642   3.294   7.490
13674TIP3   OH240966   6.900   3.395   8.254
13674TIP3    H140967   6.932   3.453   8.324
13674TIP3    H240968   6.862   3.323   8.307
13675TIP3   OH240969   6.976   2.859   6.980
13675TIP3    H140970   6.955   2.854   7.075
13675TIP3    H240971   6.896   2.906   6.947
13676TIP3   OH240972   6.491   2.904   7.837
13676TIP3    H140973   6.577   2.936   7.875
13676TIP3    H240974   6.519   2.862   7.754
13677TIP3   OH240975   6.478   2.881   7.371
13677TIP3    H140976   6.520   2.916   7.289
13677TIP3    H240977   6.414   2.953   7.387
13678TIP3   OH240978   7.302   3.047   7.644
13678TIP3    H140979   7.213   3.043   7.682
13678TIP3    H240980   7.352   3.067   7.725
13679TIP3   OH240981   6.745   3.121   7.635
13679TIP3    H140982   6.648   3.130   7.612
13679TIP3    H240983   6.761   3.027   7.619
13680TIP3   OH240984   7.012   3.117   7.330
13680TIP3    H140985   7.105   3.121   7.302
13680TIP3    H240986   6.963   3.132   7.246
13681TIP3   OH240987   6.859   3.158   7.110
13681TIP3    H140988   6.792   3.102   7.067
13681TIP3    H240989   6.910   3.187   7.032
13682TIP3   OH240990   6.905   3.918   8.491
13682TIP3    H140991   6.969   3.981   8.527
13682TIP3    H240992   6.862   3.884   8.571
13683TIP3   OH240993   7.386   3.373   7.712
13683TIP3    H140994   7.464   3.363   7.654
13683TIP3    H240995   7.424   3.362   7.799
13684TIP3   OH240996   6.917   2.876   7.602
13684TIP3    H140997   6.872   2.811   7.658
13684TIP3    H240998   6.946   2.820   7.527
13685TIP3   OH240999   7.101   3.672   7.110
13685TIP3    H141000   7.030   3.605   7.101
13685TIP3    H241001   7.081   3.708   7.199
13686TIP3   OH241002   7.564   2.980   6.991
13686TIP3    H141003   7.467   2.961   6.992
13686TIP3    H241004   7.568   3.077   7.003
13687TIP3   OH241005   7.444   3.988   8.069
13687TIP3    H141006   7.460   3.943   8.154
13687TIP3    H241007   7.435   4.081   8.096
13688TIP3   OH241008   7.633   3.241   7.078
13688TIP3    H141009   7.729   3.252   7.071
13688TIP3    H241010   7.601   3.318   7.026
13689TIP3   OH241011   6.797   3.697   7.794
13689TIP3    H141012   6.854   3.653   7.730
13689TIP3    H241013   6.813   3.644   7.874
13690TIP3   OH241014   7.256   3.825   6.944
13690TIP3    H141015   7.206   3.911   6.944
13690TIP3    H241016   7.198   3.770   7.000
13691TIP3   OH241017   6.674   3.601   8.397
13691TIP3    H141018   6.662   3.571   8.490
13691TIP3    H241019   6.602   3.550   8.355
13692TIP3   OH241020   7.649   4.282   8.023
13692TIP3    H141021   7.555   4.281   7.997
13692TIP3    H241022   7.647   4.343   8.098
13693TIP3   OH241023   8.071   3.329   6.926
13693TIP3    H141024   8.013   3.286   6.858
13693TIP3    H241025   8.074   3.418   6.884
13694TIP3   OH241026   7.784   4.143   6.830
13694TIP3    H141027   7.747   4.073   6.886
13694TIP3    H241028   7.792   4.100   6.743
13695TIP3   OH241029   7.763   3.773   7.599
13695TIP3    H141030   7.670   3.767   7.627
13695TIP3    H241031   7.783   3.681   7.575
13696TIP3   OH241032   6.886   3.994   7.414
13696TIP3    H141033   6.911   4.071   7.360
13696TIP3    H241034   6.794   4.015   7.431
13697TIP3   OH241035   6.477   3.293   7.149
13697TIP3    H141036   6.484   3.383   7.114
13697TIP3    H241037   6.391   3.298   7.197
13698TIP3   OH241038   7.021   3.762   7.351
13698TIP3    H141039   6.993   3.855   7.367
13698TIP3    H241040   7.026   3.727   7.441
13699TIP3   OH241041   7.170   4.341   7.882
13699TIP3    H141042   7.210   4.411   7.825
13699TIP3    H241043   7.248   4.309   7.931
13700TIP3   OH241044   6.821   4.239   7.271
13700TIP3    H141045   6.734   4.251   7.315
13700TIP3    H241046   6.855   4.331   7.273
13701TIP3   OH241047   7.557   3.988   7.827
13701TIP3    H141048   7.520   3.985   7.918
13701TIP3    H241049   7.642   3.941   7.843
13702TIP3   OH241050   7.535   3.875   6.729
13702TIP3    H141051   7.585   3.849   6.809
13702TIP3    H241052   7.446   3.844   6.752
13703TIP3   OH241053   7.871   4.343   6.547
13703TIP3    H141054   7.901   4.412   6.486
13703TIP3    H241055   7.792   4.388   6.583
13704TIP3   OH241056   7.692   3.810   6.949
13704TIP3    H141057   7.682   3.740   7.016
13704TIP3    H241058   7.788   3.804   6.931
13705TIP3   OH241059   6.610   4.206   8.043
13705TIP3    H141060   6.664   4.142   8.093
13705TIP3    H241061   6.627   4.288   8.091
13706TIP3   OH241062   6.899   3.851   6.731
13706TIP3    H141063   6.908   3.759   6.700
13706TIP3    H241064   6.875   3.838   6.824
13707TIP3   OH241065   6.846   3.856   7.006
13707TIP3    H141066   6.932   3.840   7.047
13707TIP3    H241067   6.842   3.955   7.009
13708TIP3   OH241068   6.571   3.605   7.226
13708TIP3    H141069   6.475   3.612   7.220
13708TIP3    H241070   6.595   3.660   7.148
13709TIP3   OH241071   7.605   2.947   7.262
13709TIP3    H141072   7.594   2.947   7.165
13709TIP3    H241073   7.628   3.040   7.280
13710TIP3   OH241074   7.108   4.051   6.951
13710TIP3    H141075   7.020   4.079   6.984
13710TIP3    H241076   7.125   4.122   6.887
13711TIP3   OH241077   7.297   3.117   7.371
13711TIP3    H141078   7.354   3.193   7.345
13711TIP3    H241079   7.295   3.126   7.468
13712TIP3   OH241080   7.434   2.864   7.461
13712TIP3    H141081   7.399   2.950   7.493
13712TIP3    H241082   7.499   2.894   7.394
13713TIP3   OH241083   6.854   4.128   7.019
13713TIP3    H141084   6.824   4.197   6.955
13713TIP3    H241085   6.837   4.173   7.104
13714TIP3   OH241086   6.947   2.844   7.256
13714TIP3    H141087   6.945   2.933   7.296
13714TIP3    H241088   7.043   2.826   7.259
13715TIP3   OH241089   7.862   3.488   7.533
13715TIP3    H141090   7.773   3.454   7.559
13715TIP3    H241091   7.898   3.516   7.619
13716TIP3   OH241092   6.571   3.758   7.002
13716TIP3    H141093   6.634   3.832   7.003
13716TIP3    H241094   6.615   3.699   6.937
13717TIP3   OH241095   6.515   3.024   7.144
13717TIP3    H141096   6.515   3.122   7.150
13717TIP3    H241097   6.438   3.007   7.088
13718TIP3   OH241098   7.815   4.493   7.490
13718TIP3    H141099   7.777   4.542   7.413
13718TIP3    H241100   7.909   4.494   7.468
13719TIP3   OH241101   7.068   2.702   7.962
13719TIP3    H141102   7.064   2.676   7.852
13719TIP3    H241103   7.019   2.635   7.998
13720TIP3   OH241104   6.464   3.976   7.398
13720TIP3    H141105   6.391   3.986   7.461
13720TIP3    H241106   6.420   4.007   7.315
13721TIP3   OH241107   6.599   4.503   8.440
13721TIP3    H141108   6.657   4.506   8.517
13721TIP3    H241109   6.561   4.414   8.447
13722TIP3   OH241110   7.062   4.054   6.639
13722TIP3    H141111   7.007   3.981   6.676
13722TIP3    H241112   7.135   4.004   6.600
13723TIP3   OH241113   7.496   4.093   6.553
13723TIP3    H141114   7.537   4.026   6.611
13723TIP3    H241115   7.550   4.089   6.472
13724TIP3   OH241116   6.707   3.569   6.864
13724TIP3    H141117   6.766   3.533   6.931
13724TIP3    H241118   6.769   3.575   6.787
13725TIP3   OH241119   7.226   3.772   6.673
13725TIP3    H141120   7.224   3.783   6.770
13725TIP3    H241121   7.225   3.674   6.665
13726TIP3   OH241122   6.917   3.463   7.093
13726TIP3    H141123   6.892   3.389   7.150
13726TIP3    H241124   6.957   3.413   7.019
13727TIP3   OH241125   7.162   3.557   8.323
13727TIP3    H141126   7.077   3.607   8.322
13727TIP3    H241127   7.205   3.593   8.242
13728TIP3   OH241128   7.018   3.278   6.920
13728TIP3    H141129   6.991   3.280   6.826
13728TIP3    H241130   7.116   3.275   6.912
13729TIP3   OH241131   7.834   3.597   6.592
13729TIP3    H141132   7.817   3.553   6.506
13729TIP3    H241133   7.801   3.687   6.570
13730TIP3   OH241134   7.298   3.643   8.105
13730TIP3    H141135   7.380   3.645   8.052
13730TIP3    H241136   7.243   3.710   8.059
13731TIP3   OH241137   6.824   4.329   6.831
13731TIP3    H141138   6.919   4.324   6.810
13731TIP3    H241139   6.794   4.381   6.754
13732TIP3   OH241140   6.299   3.712   7.034
13732TIP3    H141141   6.392   3.735   7.019
13732TIP3    H241142   6.291   3.625   6.988
13733TIP3   OH241143   6.220   4.325   7.461
13733TIP3    H141144   6.154   4.265   7.421
13733TIP3    H241145   6.264   4.263   7.524
13734TIP3   OH241146   6.355   4.170   7.647
13734TIP3    H141147   6.337   4.105   7.716
13734TIP3    H241148   6.408   4.235   7.697
13735TIP3   OH241149   7.968   3.787   6.920
13735TIP3    H141150   8.028   3.857   6.886
13735TIP3    H241151   8.020   3.751   6.994
13736TIP3   OH241152   8.099   3.659   7.131
13736TIP3    H141153   8.025   3.607   7.170
13736TIP3    H241154   8.118   3.721   7.202
13737TIP3   OH241155   8.074   4.001   7.491
13737TIP3    H141156   8.169   4.009   7.504
13737TIP3    H241157   8.045   4.092   7.476
13738TIP3   OH241158   7.999   4.376   7.709
13738TIP3    H141159   7.949   4.385   7.792
13738TIP3    H241160   7.941   4.314   7.661
13739TIP3   OH241161   8.035   3.561   6.775
13739TIP3    H141162   7.966   3.559   6.704
13739TIP3    H241163   8.004   3.640   6.823
13740TIP3   OH241164   7.905   3.238   6.733
13740TIP3    H141165   7.876   3.275   6.649
13740TIP3    H241166   7.880   3.143   6.721
13741TIP3   OH241167   7.911   3.510   7.262
13741TIP3    H141168   7.918   3.416   7.237
13741TIP3    H241169   7.896   3.505   7.359
13742TIP3   OH241170   6.537   3.585   8.012
13742TIP3    H141171   6.540   3.566   7.916
13742TIP3    H241172   6.634   3.586   8.032
13743TIP3   OH241173   7.849   2.974   6.715
13743TIP3    H141174   7.924   2.934   6.762
13743TIP3    H241175   7.775   2.911   6.727
13744TIP3   OH241176   7.916   3.245   7.147
13744TIP3    H141177   7.938   3.151   7.152
13744TIP3    H241178   7.975   3.274   7.074
13745TIP3   OH241179   6.737   2.970   7.948
13745TIP3    H141180   6.799   2.900   7.917
13745TIP3    H241181   6.797   3.042   7.973
13746TIP3   OH241182   6.518   3.229   8.092
13746TIP3    H141183   6.570   3.238   8.010
13746TIP3    H241184   6.543   3.309   8.141
13747TIP3   OH241185   8.103   2.909   6.834
13747TIP3    H141186   8.147   2.851   6.768
13747TIP3    H241187   8.166   2.985   6.839
13748TIP3   OH241188   6.501   2.747   7.602
13748TIP3    H141189   6.407   2.730   7.620
13748TIP3    H241190   6.497   2.799   7.520
13749TIP3   OH241191   7.666   4.441   7.104
13749TIP3    H141192   7.718   4.434   7.021
13749TIP3    H241193   7.710   4.515   7.149
13750TIP3   OH241194   6.672   2.865   8.449
13750TIP3    H141195   6.624   2.802   8.503
13750TIP3    H241196   6.607   2.887   8.378
13751TIP3   OH241197   6.769   4.234   8.498
13751TIP3    H141198   6.679   4.223   8.463
13751TIP3    H241199   6.753   4.221   8.592
13752TIP3   OH241200   6.947   4.286   8.036
13752TIP3    H141201   6.896   4.361   7.998
13752TIP3    H241202   7.031   4.301   7.989
13753TIP3   OH241203   6.619   4.533   8.067
13753TIP3    H141204   6.528   4.561   8.043
13753TIP3    H241205   6.637   4.595   8.139
13754TIP3   OH241206   6.855   4.517   7.920
13754TIP3    H141207   6.768   4.528   7.964
13754TIP3    H241208   6.836   4.551   7.831
13755TIP3   OH241209   7.268   4.531   7.708
13755TIP3    H141210   7.202   4.559   7.642
13755TIP3    H241211   7.289   4.616   7.753
13756TIP3   OH241212   7.534   4.472   7.768
13756TIP3    H141213   7.443   4.498   7.744
13756TIP3    H241214   7.583   4.552   7.742
13757TIP3   OH241215   7.680   4.684   7.654
13757TIP3    H141216   7.759   4.738   7.670
13757TIP3    H241217   7.717   4.611   7.602
13758TIP3   OH241218   6.531   4.331   7.799
13758TIP3    H141219   6.555   4.303   7.890
13758TIP3    H241220   6.604   4.287   7.750
13759TIP3   OH241221   6.726   4.201   7.661
13759TIP3    H141222   6.741   4.119   7.713
13759TIP3    H241223   6.816   4.240   7.660
13760TIP3   OH241224   6.989   4.295   7.669
13760TIP3    H141225   7.026   4.206   7.661
13760TIP3    H241226   7.035   4.324   7.750
13761TIP3   OH241227   6.800   2.693   7.762
13761TIP3    H141228   6.706   2.669   7.777
13761TIP3    H241229   6.841   2.611   7.767
13762TIP3   OH241230   6.610   2.532   7.419
13762TIP3    H141231   6.634   2.587   7.342
13762TIP3    H241232   6.580   2.598   7.483
13763TIP3   OH241233   7.225   2.712   7.656
13763TIP3    H141234   7.273   2.782   7.600
13763TIP3    H241235   7.236   2.749   7.742
13764TIP3   OH241236   7.830   2.774   7.187
13764TIP3    H141237   7.754   2.820   7.226
13764TIP3    H241238   7.831   2.691   7.239
13765TIP3   OH241239   6.321   4.104   7.201
13765TIP3    H141240   6.236   4.070   7.168
13765TIP3    H241241   6.313   4.197   7.172
13766TIP3   OH241242   6.719   2.685   7.181
13766TIP3    H141243   6.765   2.623   7.121
13766TIP3    H241244   6.793   2.739   7.214
13767TIP3   OH241245   7.221   2.872   7.273
13767TIP3    H141246   7.278   2.818   7.330
13767TIP3    H241247   7.251   2.962   7.300
13768TIP3   OH241248   7.092   4.287   6.779
13768TIP3    H141249   7.179   4.312   6.740
13768TIP3    H241250   7.069   4.214   6.717
13769TIP3   OH241251   7.813   4.411   6.871
13769TIP3    H141252   7.805   4.313   6.860
13769TIP3    H241253   7.763   4.442   6.792
13770TIP3   OH241254   6.394   4.126   6.829
13770TIP3    H141255   6.396   4.152   6.923
13770TIP3    H241256   6.482   4.082   6.818
13771TIP3   OH241257   8.264   3.423   7.133
13771TIP3    H141258   8.221   3.509   7.122
13771TIP3    H241259   8.223   3.374   7.059
13772TIP3   OH241260   8.154   3.971   6.817
13772TIP3    H141261   8.119   3.993   6.729
13772TIP3    H241262   8.192   4.056   6.846
13773TIP3   OH241263   8.539   3.646   6.749
13773TIP3    H141264   8.463   3.707   6.742
13773TIP3    H241265   8.562   3.646   6.843
13774TIP3   OH241266   8.190   4.294   7.403
13774TIP3    H141267   8.284   4.279   7.381
13774TIP3    H241268   8.189   4.276   7.499
13775TIP3   OH241269   8.901   4.617   6.540
13775TIP3    H141270   8.887   4.611   6.444
13775TIP3    H241271   8.887   4.711   6.560
13776TIP3   OH241272   8.384   4.495   6.921
13776TIP3    H141273   8.411   4.473   7.010
13776TIP3    H241274   8.326   4.420   6.899
13777TIP3   OH241275   8.734   3.169   6.456
13777TIP3    H141276   8.680   3.141   6.531
13777TIP3    H241277   8.667   3.223   6.408
13778TIP3   OH241278   8.272   3.128   6.865
13778TIP3    H141279   8.315   3.165   6.784
13778TIP3    H241280   8.211   3.201   6.884
13779TIP3   OH241281   8.627   3.399   6.585
13779TIP3    H141282   8.559   3.373   6.522
13779TIP3    H241283   8.695   3.439   6.526
13780TIP3   OH241284   8.859   3.958   6.607
13780TIP3    H141285   8.813   3.874   6.584
13780TIP3    H241286   8.841   3.964   6.703
13781TIP3   OH241287   9.002   4.076   6.399
13781TIP3    H141288   8.980   4.167   6.429
13781TIP3    H241289   8.975   4.024   6.477
13782TIP3   OH241290   8.696   4.267   6.872
13782TIP3    H141291   8.685   4.347   6.816
13782TIP3    H241292   8.611   4.264   6.917
13783TIP3   OH241293   8.257   3.559   6.603
13783TIP3    H141294   8.303   3.642   6.623
13783TIP3    H241295   8.184   3.561   6.668
13784TIP3   OH241296   8.821   4.026   6.885
13784TIP3    H141297   8.786   4.117   6.870
13784TIP3    H241298   8.751   3.988   6.938
13785TIP3   OH241299   8.607   4.504   6.751
13785TIP3    H141300   8.522   4.516   6.799
13785TIP3    H241301   8.656   4.583   6.777
13786TIP3   OH241302   8.686   4.107   6.217
13786TIP3    H141303   8.689   4.014   6.187
13786TIP3    H241304   8.668   4.096   6.313
13787TIP3   OH241305   8.638   4.114   6.488
13787TIP3    H141306   8.721   4.081   6.528
13787TIP3    H241307   8.646   4.211   6.500
13788TIP3   OH241308   8.340   3.819   6.681
13788TIP3    H141309   8.277   3.866   6.739
13788TIP3    H241310   8.359   3.888   6.614
13789TIP3   OH241311   8.910   4.322   6.463
13789TIP3    H141312   8.820   4.351   6.486
13789TIP3    H241313   8.931   4.387   6.394
13790TIP3   OH241314   8.646   4.390   6.502
13790TIP3    H141315   8.613   4.459   6.440
13790TIP3    H241316   8.632   4.435   6.588
13791TIP3   OH241317   8.369   4.017   6.485
13791TIP3    H141318   8.444   4.078   6.497
13791TIP3    H241319   8.410   3.957   6.419
13792TIP3   OH241320   8.298   3.284   6.641
13792TIP3    H141321   8.323   3.378   6.637
13792TIP3    H241322   8.236   3.278   6.568
13793TIP3   OH241323   8.237   4.235   6.879
13793TIP3    H141324   8.171   4.266   6.943
13793TIP3    H241325   8.202   4.274   6.795
13794TIP3   OH241326   8.855   4.304   6.135
13794TIP3    H141327   8.789   4.237   6.165
13794TIP3    H241328   8.936   4.250   6.140
13795TIP3   OH241329   8.507   3.827   6.346
13795TIP3    H141330   8.556   3.789   6.421
13795TIP3    H241331   8.577   3.830   6.278
13796TIP3   OH241332   8.996   4.013   6.140
13796TIP3    H141333   9.013   4.040   6.233
13796TIP3    H241334   8.922   3.952   6.155
13797TIP3   OH241335   8.720   3.729   6.566
13797TIP3    H141336   8.658   3.689   6.632
13797TIP3    H241337   8.753   3.648   6.521
13798TIP3   OH241338   8.815   3.520   6.412
13798TIP3    H141339   8.784   3.527   6.320
13798TIP3    H241340   8.910   3.504   6.394
13799TIP3   OH241341   8.612   4.607   6.327
13799TIP3    H141342   8.705   4.588   6.307
13799TIP3    H241343   8.584   4.644   6.241
13800TIP3   OH241344   8.100   3.970   6.537
13800TIP3    H141345   8.192   3.994   6.513
13800TIP3    H241346   8.092   3.881   6.496
13801TIP3   OH241347   8.017   4.584   6.942
13801TIP3    H141348   7.949   4.525   6.902
13801TIP3    H241349   8.062   4.520   7.001
13802TIP3   OH241350   8.151   4.417   7.116
13802TIP3    H141351   8.120   4.353   7.181
13802TIP3    H241352   8.195   4.482   7.175
13803TIP3   OH241353   8.113   4.367   6.680
13803TIP3    H141354   8.028   4.331   6.649
13803TIP3    H241355   8.104   4.459   6.648
13804TIP3   OH241356   8.505   2.994   6.645
13804TIP3    H141357   8.574   2.926   6.653
13804TIP3    H241358   8.513   3.041   6.731
13805TIP3   OH241359   8.872   4.545   6.267
13805TIP3    H141360   8.960   4.561   6.228
13805TIP3    H241361   8.846   4.468   6.212
13806TIP3   OH241362   8.192   4.383   6.317
13806TIP3    H141363   8.194   4.404   6.411
13806TIP3    H241364   8.279   4.339   6.303
13807TIP3   OH241365   1.872   5.076   8.289
13807TIP3    H141366   1.901   5.024   8.212
13807TIP3    H241367   1.951   5.130   8.310
13808TIP3   OH241368   1.569   4.348   8.070
13808TIP3    H141369   1.643   4.408   8.093
13808TIP3    H241370   1.618   4.284   8.014
13809TIP3   OH241371   1.784   4.506   8.131
13809TIP3    H141372   1.777   4.601   8.150
13809TIP3    H241373   1.809   4.511   8.035
13810TIP3   OH241374   2.090   5.115   7.742
13810TIP3    H141375   2.099   5.210   7.719
13810TIP3    H241376   2.182   5.083   7.727
13811TIP3   OH241377   1.395   5.427   8.209
13811TIP3    H141378   1.354   5.421   8.121
13811TIP3    H241379   1.371   5.519   8.237
13812TIP3   OH241380   1.605   5.336   7.857
13812TIP3    H141381   1.661   5.265   7.821
13812TIP3    H241382   1.638   5.344   7.949
13813TIP3   OH241383   1.657   5.389   8.129
13813TIP3    H141384   1.566   5.386   8.167
13813TIP3    H241385   1.709   5.349   8.201
13814TIP3   OH241386   1.851   4.557   7.880
13814TIP3    H141387   1.810   4.531   7.795
13814TIP3    H241388   1.937   4.592   7.849
13815TIP3   OH241389   1.514   4.866   8.067
13815TIP3    H141390   1.482   4.957   8.084
13815TIP3    H241391   1.475   4.821   8.144
13816TIP3   OH241392   2.334   4.372   8.075
13816TIP3    H141393   2.262   4.328   8.025
13816TIP3    H241394   2.329   4.460   8.032
13817TIP3   OH241395   2.034   5.183   8.003
13817TIP3    H141396   1.992   5.103   8.036
13817TIP3    H241397   2.050   5.159   7.909
13818TIP3   OH241398   1.774   4.920   7.905
13818TIP3    H141399   1.828   4.898   7.984
13818TIP3    H241400   1.686   4.893   7.935
13819TIP3   OH241401   2.118   5.389   7.724
13819TIP3    H141402   2.154   5.459   7.667
13819TIP3    H241403   2.039   5.435   7.757
13820TIP3   OH241404   1.950   4.876   8.116
13820TIP3    H141405   1.933   4.814   8.188
13820TIP3    H241406   2.046   4.861   8.099
13821TIP3   OH241407   1.151   4.895   7.910
13821TIP3    H141408   1.174   4.806   7.878
13821TIP3    H241409   1.105   4.876   7.994
13822TIP3   OH241410   1.405   5.110   8.114
13822TIP3    H141411   1.351   5.128   8.194
13822TIP3    H241412   1.376   5.182   8.055
13823TIP3   OH241413   0.970   5.198   8.152
13823TIP3    H141414   0.988   5.266   8.083
13823TIP3    H241415   1.023   5.233   8.224
13824TIP3   OH241416   1.307   5.097   7.811
13824TIP3    H141417   1.251   5.028   7.853
13824TIP3    H241418   1.380   5.043   7.776
13825TIP3   OH241419   1.748   5.140   7.730
13825TIP3    H141420   1.786   5.070   7.786
13825TIP3    H241421   1.799   5.133   7.647
13826TIP3   OH241422   0.939   4.648   7.966
13826TIP3    H141423   0.961   4.709   8.038
13826TIP3    H241424   1.026   4.631   7.926
13827TIP3   OH241425   1.456   4.804   7.812
13827TIP3    H141426   1.467   4.825   7.907
13827TIP3    H241427   1.462   4.707   7.816
13828TIP3   OH241428   1.215   4.369   8.076
13828TIP3    H141429   1.217   4.358   7.978
13828TIP3    H241430   1.309   4.373   8.098
13829TIP3   OH241431   2.086   4.643   7.768
13829TIP3    H141432   2.070   4.598   7.683
13829TIP3    H241433   2.051   4.732   7.745
13830TIP3   OH241434   1.078   5.392   7.993
13830TIP3    H141435   1.173   5.378   7.978
13830TIP3    H241436   1.058   5.450   7.917
13831TIP3   OH241437   2.220   4.852   8.095
13831TIP3    H141438   2.288   4.910   8.053
13831TIP3    H241439   2.250   4.853   8.187
13832TIP3   OH241440   2.348   4.654   8.270
13832TIP3    H141441   2.273   4.693   8.318
13832TIP3    H241442   2.306   4.614   8.193
13833TIP3   OH241443   2.281   4.618   7.957
13833TIP3    H141444   2.213   4.608   7.886
13833TIP3    H241445   2.254   4.704   7.994
13834TIP3   OH241446   2.146   4.283   7.899
13834TIP3    H141447   2.111   4.308   7.812
13834TIP3    H241448   2.128   4.186   7.897
13835TIP3   OH241449   2.097   4.017   7.892
13835TIP3    H141450   2.174   3.983   7.942
13835TIP3    H241451   2.023   3.962   7.924
13836TIP3   OH241452   2.344   3.964   8.012
13836TIP3    H141453   2.383   3.888   7.965
13836TIP3    H241454   2.417   4.028   8.010
13837TIP3   OH241455   1.950   5.431   8.302
13837TIP3    H141456   1.974   5.449   8.209
13837TIP3    H241457   1.970   5.516   8.344
13838TIP3   OH241458   1.342   5.336   7.940
13838TIP3    H141459   1.433   5.353   7.906
13838TIP3    H241460   1.318   5.261   7.881
13839TIP3   OH241461   2.058   5.455   8.047
13839TIP3    H141462   2.053   5.358   8.033
13839TIP3    H241463   2.012   5.488   7.967
13840TIP3   OH241464   3.552   4.970   7.997
13840TIP3    H141465   3.521   5.061   7.978
13840TIP3    H241466   3.476   4.920   7.963
13841TIP3   OH241467   3.528   4.982   8.367
13841TIP3    H141468   3.581   4.962   8.446
13841TIP3    H241469   3.494   4.895   8.342
13842TIP3   OH241470   3.795   5.274   8.065
13842TIP3    H141471   3.781   5.204   8.130
13842TIP3    H241472   3.829   5.347   8.120
13843TIP3   OH241473   2.824   5.289   8.462
13843TIP3    H141474   2.813   5.191   8.465
13843TIP3    H241475   2.922   5.294   8.452
13844TIP3   OH241476   2.565   4.495   8.199
13844TIP3    H141477   2.509   4.568   8.231
13844TIP3    H241478   2.497   4.426   8.191
13845TIP3   OH241479   2.719   4.731   8.409
13845TIP3    H141480   2.647   4.757   8.469
13845TIP3    H241481   2.692   4.773   8.327
13846TIP3   OH241482   3.448   5.736   8.082
13846TIP3    H141483   3.487   5.666   8.026
13846TIP3    H241484   3.438   5.689   8.166
13847TIP3   OH241485   3.348   5.200   8.409
13847TIP3    H141486   3.390   5.119   8.375
13847TIP3    H241487   3.427   5.242   8.448
13848TIP3   OH241488   4.363   4.527   8.408
13848TIP3    H141489   4.386   4.611   8.451
13848TIP3    H241490   4.395   4.541   8.317
13849TIP3   OH241491   3.744   4.677   8.463
13849TIP3    H141492   3.795   4.596   8.483
13849TIP3    H241493   3.726   4.664   8.367
13850TIP3   OH241494   3.144   4.341   8.385
13850TIP3    H141495   3.102   4.425   8.356
13850TIP3    H241496   3.083   4.277   8.342
13851TIP3   OH241497   3.794   4.449   8.045
13851TIP3    H141498   3.864   4.438   8.113
13851TIP3    H241499   3.848   4.484   7.971
13852TIP3   OH241500   3.172   4.757   8.331
13852TIP3    H141501   3.266   4.731   8.336
13852TIP3    H241502   3.130   4.676   8.295
13853TIP3   OH241503   4.428   4.727   8.603
13853TIP3    H141504   4.339   4.760   8.577
13853TIP3    H241505   4.441   4.778   8.684
13854TIP3   OH241506   3.437   5.190   7.868
13854TIP3    H141507   3.399   5.176   7.780
13854TIP3    H241508   3.392   5.272   7.896
13855TIP3   OH241509   3.995   4.460   8.225
13855TIP3    H141510   4.007   4.399   8.299
13855TIP3    H241511   4.053   4.534   8.250
13856TIP3   OH241512   2.419   5.007   7.986
13856TIP3    H141513   2.386   5.032   7.897
13856TIP3    H241514   2.453   5.093   8.019
13857TIP3   OH241515   3.866   5.520   8.227
13857TIP3    H141516   3.776   5.508   8.265
13857TIP3    H241517   3.856   5.605   8.181
13858TIP3   OH241518   4.138   4.451   8.571
13858TIP3    H141519   4.052   4.478   8.534
13858TIP3    H241520   4.203   4.487   8.508
13859TIP3   OH241521   3.560   5.563   7.899
13859TIP3    H141522   3.609   5.480   7.882
13859TIP3    H241523   3.624   5.627   7.860
13860TIP3   OH241524   3.704   5.348   7.815
13860TIP3    H141525   3.674   5.267   7.772
13860TIP3    H241526   3.743   5.313   7.898
13861TIP3   OH241527   4.087   5.428   8.571
13861TIP3    H141528   4.075   5.349   8.514
13861TIP3    H241529   4.070   5.501   8.507
13862TIP3   OH241530   3.381   4.823   7.832
13862TIP3    H141531   3.301   4.876   7.811
13862TIP3    H241532   3.426   4.819   7.746
13863TIP3   OH241533   3.340   4.608   7.549
13863TIP3    H141534   3.408   4.662   7.592
13863TIP3    H241535   3.397   4.545   7.499
13864TIP3   OH241536   4.281   5.063   8.419
13864TIP3    H141537   4.199   5.116   8.424
13864TIP3    H241538   4.313   5.091   8.330
13865TIP3   OH241539   3.730   4.906   7.799
13865TIP3    H141540   3.675   4.930   7.878
13865TIP3    H241541   3.814   4.882   7.843
13866TIP3   OH241542   3.953   4.973   8.684
13866TIP3    H141543   3.950   5.068   8.702
13866TIP3    H241544   3.873   4.962   8.630
13867TIP3   OH241545   2.963   4.909   8.215
13867TIP3    H141546   2.920   4.845   8.154
13867TIP3    H241547   3.035   4.856   8.253
13868TIP3   OH241548   3.091   5.315   8.367
13868TIP3    H141549   3.076   5.276   8.280
13868TIP3    H241550   3.178   5.275   8.391
13869TIP3   OH241551   3.091   4.884   8.561
13869TIP3    H141552   3.112   4.831   8.481
13869TIP3    H241553   3.180   4.905   8.592
13870TIP3   OH241554   3.624   5.508   8.345
13870TIP3    H141555   3.604   5.591   8.391
13870TIP3    H241556   3.600   5.439   8.410
13871TIP3   OH241557   3.566   4.764   7.629
13871TIP3    H141558   3.626   4.824   7.678
13871TIP3    H241559   3.593   4.784   7.536
13872TIP3   OH241560   3.313   5.441   7.905
13872TIP3    H141561   3.397   5.491   7.911
13872TIP3    H241562   3.255   5.503   7.859
13873TIP3   OH241563   4.080   4.002   7.677
13873TIP3    H141564   4.001   4.029   7.728
13873TIP3    H241565   4.099   4.084   7.627
13874TIP3   OH241566   2.826   4.745   8.023
13874TIP3    H141567   2.758   4.786   7.966
13874TIP3    H241568   2.787   4.658   8.041
13875TIP3   OH241569   3.886   5.370   7.228
13875TIP3    H141570   3.895   5.466   7.211
13875TIP3    H241571   3.978   5.339   7.214
13876TIP3   OH241572   4.322   5.779   8.619
13876TIP3    H141573   4.327   5.682   8.631
13876TIP3    H241574   4.235   5.797   8.661
13877TIP3   OH241575   3.195   5.685   7.708
13877TIP3    H141576   3.150   5.667   7.624
13877TIP3    H241577   3.162   5.774   7.732
13878TIP3   OH241578   2.627   5.538   8.087
13878TIP3    H141579   2.682   5.528   8.168
13878TIP3    H241580   2.577   5.455   8.089
13879TIP3   OH241581   3.394   5.590   7.345
13879TIP3    H141582   3.453   5.520   7.308
13879TIP3    H241583   3.430   5.600   7.436
13880TIP3   OH241584   3.447   5.639   7.615
13880TIP3    H141585   3.358   5.647   7.657
13880TIP3    H241586   3.498   5.598   7.686
13881TIP3   OH241587   3.648   4.809   7.378
13881TIP3    H141588   3.609   4.787   7.291
13881TIP3    H241589   3.733   4.850   7.349
13882TIP3   OH241590   3.358   4.180   7.677
13882TIP3    H141591   3.319   4.177   7.767
13882TIP3    H241592   3.316   4.101   7.639
13883TIP3   OH241593   3.031   4.547   8.235
13883TIP3    H141594   2.939   4.524   8.260
13883TIP3    H241595   3.036   4.503   8.147
13884TIP3   OH241596   3.520   4.625   7.964
13884TIP3    H141597   3.469   4.697   7.920
13884TIP3    H241598   3.576   4.592   7.890
13885TIP3   OH241599   3.672   4.649   8.198
13885TIP3    H141600   3.612   4.677   8.126
13885TIP3    H241601   3.708   4.569   8.154
13886TIP3   OH241602   3.015   4.160   7.640
13886TIP3    H141603   3.001   4.159   7.737
13886TIP3    H241604   2.937   4.211   7.611
13887TIP3   OH241605   2.537   4.190   8.034
13887TIP3    H141606   2.575   4.225   7.951
13887TIP3    H241607   2.468   4.258   8.049
13888TIP3   OH241608   3.696   4.921   8.572
13888TIP3    H141609   3.716   4.828   8.545
13888TIP3    H241610   3.666   4.911   8.664
13889TIP3   OH241611   3.389   4.371   8.270
13889TIP3    H141612   3.298   4.364   8.309
13889TIP3    H241613   3.440   4.390   8.350
13890TIP3   OH241614   2.801   4.398   8.286
13890TIP3    H141615   2.716   4.441   8.261
13890TIP3    H241616   2.815   4.338   8.211
13891TIP3   OH241617   3.053   4.412   7.994
13891TIP3    H141618   3.147   4.428   7.971
13891TIP3    H241619   3.006   4.433   7.910
13892TIP3   OH241620   3.849   4.431   8.519
13892TIP3    H141621   3.826   4.431   8.613
13892TIP3    H241622   3.779   4.374   8.481
13893TIP3   OH241623   2.904   4.445   7.770
13893TIP3    H141624   2.836   4.398   7.719
13893TIP3    H241625   2.957   4.485   7.697
13894TIP3   OH241626   4.042   6.114   8.702
13894TIP3    H141627   4.032   6.137   8.608
13894TIP3    H241628   4.068   6.198   8.741
13895TIP3   OH241629   3.443   4.687   8.377
13895TIP3    H141630   3.515   4.658   8.318
13895TIP3    H241631   3.479   4.664   8.464
13896TIP3   OH241632   2.995   4.174   8.223
13896TIP3    H141633   2.943   4.107   8.270
13896TIP3    H241634   3.032   4.125   8.148
13897TIP3   OH241635   3.149   4.974   7.777
13897TIP3    H141636   3.077   4.908   7.767
13897TIP3    H241637   3.130   5.009   7.868
13898TIP3   OH241638   4.051   5.212   8.405
13898TIP3    H141639   4.076   5.263   8.326
13898TIP3    H241640   3.966   5.171   8.378
13899TIP3   OH241641   3.609   4.282   7.653
13899TIP3    H141642   3.512   4.264   7.657
13899TIP3    H241643   3.615   4.378   7.670
13900TIP3   OH241644   3.677   4.537   7.749
13900TIP3    H141645   3.773   4.544   7.762
13900TIP3    H241646   3.656   4.616   7.695
13901TIP3   OH241647   2.848   5.016   8.443
13901TIP3    H141648   2.884   4.993   8.355
13901TIP3    H241649   2.871   4.935   8.491
13902TIP3   OH241650   3.297   5.125   7.605
13902TIP3    H141651   3.248   5.210   7.608
13902TIP3    H241652   3.243   5.069   7.664
13903TIP3   OH241653   3.712   5.530   8.714
13903TIP3    H141654   3.638   5.577   8.674
13903TIP3    H241655   3.753   5.596   8.772
13904TIP3   OH241656   4.117   4.628   7.584
13904TIP3    H141657   4.055   4.586   7.520
13904TIP3    H241658   4.115   4.718   7.544
13905TIP3   OH241659   4.329   5.504   8.659
13905TIP3    H141660   4.235   5.483   8.643
13905TIP3    H241661   4.369   5.461   8.580
13906TIP3   OH241662   3.821   5.445   7.492
13906TIP3    H141663   3.794   5.373   7.551
13906TIP3    H241664   3.835   5.399   7.407
13907TIP3   OH241665   3.818   5.082   8.314
13907TIP3    H141666   3.727   5.054   8.335
13907TIP3    H241667   3.853   5.000   8.273
13908TIP3   OH241668   2.946   5.305   8.083
13908TIP3    H141669   2.944   5.385   8.027
13908TIP3    H241670   2.852   5.282   8.087
13909TIP3   OH241671   2.508   4.604   7.790
13909TIP3    H141672   2.556   4.688   7.809
13909TIP3    H241673   2.433   4.612   7.852
13910TIP3   OH241674   3.077   5.068   8.018
13910TIP3    H141675   3.046   5.157   8.043
13910TIP3    H241676   3.045   5.015   8.094
13911TIP3   OH241677   3.206   5.650   8.535
13911TIP3    H141678   3.259   5.721   8.493
13911TIP3    H241679   3.273   5.595   8.576
13912TIP3   OH241680   2.862   5.543   7.931
13912TIP3    H141681   2.776   5.552   7.977
13912TIP3    H241682   2.895   5.635   7.935
13913TIP3   OH241683   3.605   5.281   8.512
13913TIP3    H141684   3.638   5.276   8.603
13913TIP3    H241685   3.678   5.236   8.466
13914TIP3   OH241686   3.580   5.177   7.392
13914TIP3    H141687   3.633   5.151   7.471
13914TIP3    H241688   3.493   5.143   7.418
13915TIP3   OH241689   3.841   5.808   8.554
13915TIP3    H141690   3.756   5.767   8.531
13915TIP3    H241691   3.843   5.880   8.487
13916TIP3   OH241692   3.916   5.646   7.210
13916TIP3    H141693   3.954   5.719   7.159
13916TIP3    H241694   3.835   5.690   7.244
13917TIP3   OH241695   3.740   5.110   7.609
13917TIP3    H141696   3.728   5.041   7.678
13917TIP3    H241697   3.836   5.104   7.595
13918TIP3   OH241698   2.939   5.153   7.393
13918TIP3    H141699   2.954   5.061   7.365
13918TIP3    H241700   2.919   5.141   7.488
13919TIP3   OH241701   2.883   5.158   7.667
13919TIP3    H141702   2.961   5.130   7.717
13919TIP3    H241703   2.889   5.256   7.674
13920TIP3   OH241704   2.617   4.849   7.868
13920TIP3    H141705   2.553   4.897   7.923
13920TIP3    H241706   2.635   4.916   7.799
13921TIP3   OH241707   3.657   4.234   7.928
13921TIP3    H141708   3.640   4.255   7.834
13921TIP3    H241709   3.695   4.318   7.961
13922TIP3   OH241710   3.153   5.354   7.613
13922TIP3    H141711   3.066   5.380   7.649
13922TIP3    H241712   3.168   5.425   7.549
13923TIP3   OH241713   3.339   4.423   8.009
13923TIP3    H141714   3.402   4.496   7.988
13923TIP3    H241715   3.354   4.415   8.105
13924TIP3   OH241716   3.485   4.147   8.123
13924TIP3    H141717   3.467   4.230   8.172
13924TIP3    H241718   3.550   4.179   8.056
13925TIP3   OH241719   2.899   5.431   7.681
13925TIP3    H141720   2.869   5.501   7.619
13925TIP3    H241721   2.883   5.474   7.768
13926TIP3   OH241722   2.997   4.144   7.917
13926TIP3    H141723   2.994   4.234   7.955
13926TIP3    H241724   3.095   4.130   7.919
13927TIP3   OH241725   3.900   4.831   8.205
13927TIP3    H141726   3.825   4.770   8.213
13927TIP3    H241727   3.972   4.784   8.252
13928TIP3   OH241728   2.617   5.056   7.671
13928TIP3    H141729   2.690   5.120   7.680
13928TIP3    H241730   2.658   4.996   7.605
13929TIP3   OH241731   2.557   4.333   7.805
13929TIP3    H141732   2.557   4.431   7.804
13929TIP3    H241733   2.483   4.313   7.746
13930TIP3   OH241734   3.870   5.791   8.151
13930TIP3    H141735   3.828   5.839   8.076
13930TIP3    H241736   3.965   5.809   8.130
13931TIP3   OH241737   2.480   5.272   8.056
13931TIP3    H141738   2.414   5.305   8.117
13931TIP3    H241739   2.452   5.315   7.972
13932TIP3   OH241740   3.105   5.355   7.303
13932TIP3    H141741   3.050   5.282   7.340
13932TIP3    H241742   3.180   5.304   7.268
13933TIP3   OH241743   3.541   5.394   7.217
13933TIP3    H141744   3.579   5.327   7.278
13933TIP3    H241745   3.599   5.389   7.139
13934TIP3   OH241746   2.751   4.869   7.529
13934TIP3    H141747   2.810   4.838   7.600
13934TIP3    H241748   2.816   4.874   7.455
13935TIP3   OH241749   3.266   5.073   7.336
13935TIP3    H141750   3.268   5.083   7.433
13935TIP3    H241751   3.269   4.975   7.328
13936TIP3   OH241752   3.858   5.293   8.675
13936TIP3    H141753   3.950   5.324   8.666
13936TIP3    H241754   3.814   5.378   8.693
13937TIP3   OH241755   2.953   4.779   7.744
13937TIP3    H141756   2.931   4.737   7.829
13937TIP3    H241757   2.994   4.704   7.694
13938TIP3   OH241758   3.061   4.574   7.587
13938TIP3    H141759   3.036   4.579   7.492
13938TIP3    H241760   3.159   4.575   7.580
13939TIP3   OH241761   3.878   4.901   7.256
13939TIP3    H141762   3.861   4.855   7.171
13939TIP3    H241763   3.845   4.991   7.232
13940TIP3   OH241764   2.869   5.636   7.495
13940TIP3    H141765   2.964   5.625   7.475
13940TIP3    H241766   2.841   5.685   7.416
13941TIP3   OH241767   2.348   5.013   7.710
13941TIP3    H141768   2.442   5.035   7.692
13941TIP3    H241769   2.340   4.925   7.668
13942TIP3   OH241770   2.265   5.629   8.115
13942TIP3    H141771   2.197   5.567   8.081
13942TIP3    H241772   2.308   5.573   8.183
13943TIP3   OH241773   2.396   5.482   8.305
13943TIP3    H141774   2.388   5.411   8.370
13943TIP3    H241775   2.448   5.549   8.355
13944TIP3   OH241776   4.124   5.880   8.111
13944TIP3    H141777   4.153   5.911   8.198
13944TIP3    H241778   4.193   5.916   8.052
13945TIP3   OH241779   4.152   5.898   8.393
13945TIP3    H141780   4.108   5.810   8.386
13945TIP3    H241781   4.228   5.873   8.447
13946TIP3   OH241782   4.017   5.088   7.585
13946TIP3    H141783   4.083   5.152   7.553
13946TIP3    H241784   4.063   5.050   7.663
13947TIP3   OH241785   4.145   4.955   7.789
13947TIP3    H141786   4.078   4.914   7.848
13947TIP3    H241787   4.210   4.991   7.853
13948TIP3   OH241788   4.201   5.350   8.220
13948TIP3    H141789   4.254   5.281   8.175
13948TIP3    H241790   4.198   5.421   8.152
13949TIP3   OH241791   4.029   5.650   8.411
13949TIP3    H141792   3.955   5.686   8.462
13949TIP3    H241793   3.983   5.602   8.339
13950TIP3   OH241794   4.082   4.863   7.435
13950TIP3    H141795   4.011   4.865   7.367
13950TIP3    H241796   4.053   4.939   7.489
13951TIP3   OH241797   3.952   4.535   7.389
13951TIP3    H141798   3.913   4.573   7.310
13951TIP3    H241799   3.928   4.440   7.378
13952TIP3   OH241800   3.957   4.815   7.934
13952TIP3    H141801   3.964   4.718   7.925
13952TIP3    H241802   3.942   4.826   8.031
13953TIP3   OH241803   4.215   5.225   8.780
13953TIP3    H141804   4.295   5.172   8.762
13953TIP3    H241805   4.242   5.314   8.755
13954TIP3   OH241806   4.411   5.026   8.787
13954TIP3    H141807   4.351   4.996   8.857
13954TIP3    H241808   4.496   5.003   8.828
13955TIP3   OH241809   3.897   4.268   7.370
13955TIP3    H141810   3.969   4.234   7.427
13955TIP3    H241811   3.819   4.214   7.393
13956TIP3   OH241812   3.955   4.532   7.827
13956TIP3    H141813   3.995   4.443   7.841
13956TIP3    H241814   4.013   4.564   7.755
13957TIP3   OH241815   4.113   4.702   8.328
13957TIP3    H141816   4.200   4.725   8.286
13957TIP3    H241817   4.127   4.743   8.416
13958TIP3   OH241818   4.182   4.847   8.560
13958TIP3    H141819   4.108   4.886   8.611
13958TIP3    H241820   4.218   4.927   8.515
13959TIP3   OH241821   4.060   4.281   7.865
13959TIP3    H141822   4.109   4.268   7.949
13959TIP3    H241823   4.000   4.204   7.866
13960TIP3   OH241824   4.149   4.202   7.493
13960TIP3    H141825   4.214   4.141   7.457
13960TIP3    H241826   4.202   4.284   7.500
13961TIP3   OH241827   2.563   4.034   8.250
13961TIP3    H141828   2.478   4.055   8.289
13961TIP3    H241829   2.567   4.100   8.177
13962TIP3   OH241830   3.708   5.748   7.767
13962TIP3    H141831   3.757   5.734   7.684
13962TIP3    H241832   3.765   5.811   7.813
13963TIP3   OH241833   2.982   5.602   8.700
13963TIP3    H141834   2.963   5.680   8.644
13963TIP3    H241835   3.070   5.578   8.667
13964TIP3   OH241836   3.595   5.972   8.667
13964TIP3    H141837   3.685   5.942   8.653
13964TIP3    H241838   3.603   6.017   8.754
13965TIP3   OH241839   2.891   5.830   8.579
13965TIP3    H141840   2.798   5.843   8.600
13965TIP3    H241841   2.891   5.853   8.484
13966TIP3   OH241842   3.330   5.847   8.379
13966TIP3    H141843   3.259   5.860   8.313
13966TIP3    H241844   3.337   5.937   8.417
13967TIP3   OH241845   3.595   5.771   8.429
13967TIP3    H141846   3.502   5.796   8.412
13967TIP3    H241847   3.641   5.848   8.390
13968TIP3   OH241848   3.800   5.974   8.344
13968TIP3    H141849   3.784   6.058   8.296
13968TIP3    H241850   3.827   5.914   8.271
13969TIP3   OH241851   2.590   5.637   8.443
13969TIP3    H141852   2.619   5.599   8.529
13969TIP3    H241853   2.657   5.595   8.385
13970TIP3   OH241854   2.779   5.506   8.306
13970TIP3    H141855   2.792   5.421   8.355
13970TIP3    H241856   2.870   5.542   8.308
13971TIP3   OH241857   3.039   5.594   8.327
13971TIP3    H141858   3.067   5.500   8.318
13971TIP3    H241859   3.091   5.617   8.407
13972TIP3   OH241860   3.638   4.274   8.428
13972TIP3    H141861   3.560   4.219   8.447
13972TIP3    H241862   3.694   4.216   8.372
13973TIP3   OH241863   4.132   4.141   8.324
13973TIP3    H141864   4.167   4.193   8.247
13973TIP3    H241865   4.036   4.151   8.312
13974TIP3   OH241866   4.216   4.247   8.089
13974TIP3    H141867   4.287   4.186   8.055
13974TIP3    H241868   4.258   4.334   8.069
13975TIP3   OH241869   2.625   3.845   8.057
13975TIP3    H141870   2.671   3.898   7.989
13975TIP3    H241871   2.616   3.910   8.130
13976TIP3   OH241872   3.311   4.015   8.297
13976TIP3    H141873   3.368   4.047   8.225
13976TIP3    H241874   3.337   4.078   8.368
13977TIP3   OH241875   3.851   4.136   8.289
13977TIP3    H141876   3.848   4.102   8.199
13977TIP3    H241877   3.826   4.057   8.342
13978TIP3   OH241878   3.878   4.068   7.860
13978TIP3    H141879   3.792   4.112   7.874
13978TIP3    H241880   3.862   3.981   7.902
13979TIP3   OH241881   2.361   5.409   7.857
13979TIP3    H141882   2.275   5.376   7.824
13979TIP3    H241883   2.355   5.502   7.829
13980TIP3   OH241884   2.766   3.988   7.844
13980TIP3    H141885   2.812   3.925   7.785
13980TIP3    H241886   2.841   4.043   7.876
13981TIP3   OH241887   3.271   4.168   7.940
13981TIP3    H141888   3.336   4.124   7.997
13981TIP3    H241889   3.293   4.262   7.959
13982TIP3   OH241890   3.136   5.589   7.441
13982TIP3    H141891   3.224   5.612   7.404
13982TIP3    H241892   3.113   5.514   7.380
13983TIP3   OH241893   3.854   5.712   7.535
13983TIP3    H141894   3.847   5.614   7.524
13983TIP3    H241895   3.809   5.742   7.454
13984TIP3   OH241896   2.439   5.426   7.494
13984TIP3    H141897   2.446   5.448   7.588
13984TIP3    H241898   2.526   5.383   7.477
13985TIP3   OH241899   4.069   5.841   8.716
13985TIP3    H141900   3.993   5.825   8.657
13985TIP3    H241901   4.062   5.938   8.729
13986TIP3   OH241902   5.347   5.228   7.484
13986TIP3    H141903   5.316   5.318   7.463
13986TIP3    H241904   5.272   5.176   7.449
13987TIP3   OH241905   5.345   5.230   7.871
13987TIP3    H141906   5.381   5.206   7.959
13987TIP3    H241907   5.305   5.146   7.843
13988TIP3   OH241908   4.642   5.121   8.232
13988TIP3    H141909   4.671   5.052   8.295
13988TIP3    H241910   4.724   5.172   8.222
13989TIP3   OH241911   5.593   5.531   7.553
13989TIP3    H141912   5.575   5.463   7.619
13989TIP3    H241913   5.623   5.606   7.607
13990TIP3   OH241914   4.618   5.533   7.956
13990TIP3    H141915   4.610   5.435   7.956
13990TIP3    H241916   4.715   5.542   7.948
13991TIP3   OH241917   4.323   4.737   7.738
13991TIP3    H141918   4.273   4.819   7.755
13991TIP3    H241919   4.253   4.683   7.698
13992TIP3   OH241920   4.381   5.021   7.920
13992TIP3    H141921   4.431   4.943   7.952
13992TIP3    H241922   4.440   5.057   7.852
13993TIP3   OH241923   5.244   5.991   7.570
13993TIP3    H141924   5.283   5.922   7.514
13993TIP3    H241925   5.237   5.945   7.655
13994TIP3   OH241926   5.143   5.454   7.918
13994TIP3    H141927   5.184   5.378   7.874
13994TIP3    H241928   5.226   5.501   7.943
13995TIP3   OH241929   6.160   4.771   7.917
13995TIP3    H141930   6.186   4.855   7.961
13995TIP3    H241931   6.180   4.791   7.824
13996TIP3   OH241932   5.557   4.952   7.946
13996TIP3    H141933   5.600   4.867   7.966
13996TIP3    H241934   5.524   4.936   7.856
13997TIP3   OH241935   4.894   4.596   7.911
13997TIP3    H141936   4.867   4.658   7.841
13997TIP3    H241937   4.851   4.513   7.884
13998TIP3   OH241938   5.592   4.708   7.533
13998TIP3    H141939   5.664   4.692   7.599
13998TIP3    H241940   5.645   4.741   7.458
13999TIP3   OH241941   4.528   4.813   8.019
13999TIP3    H141942   4.612   4.795   8.067
13999TIP3    H241943   4.541   4.755   7.941
14000TIP3   OH241944   4.966   5.011   7.818
14000TIP3    H141945   5.061   4.988   7.828
14000TIP3    H241946   4.929   4.926   7.787
14001TIP3   OH241947   6.226   4.978   8.091
14001TIP3    H141948   6.143   5.029   8.075
14001TIP3    H241949   6.262   5.025   8.170
14002TIP3   OH241950   4.893   4.601   8.342
14002TIP3    H141951   4.838   4.630   8.266
14002TIP3    H241952   4.839   4.636   8.416
14003TIP3   OH241953   5.231   5.446   7.356
14003TIP3    H141954   5.196   5.434   7.267
14003TIP3    H241955   5.187   5.529   7.383
14004TIP3   OH241956   4.998   5.374   8.139
14004TIP3    H141957   4.938   5.443   8.175
14004TIP3    H241958   5.042   5.421   8.065
14005TIP3   OH241959   5.797   4.710   7.712
14005TIP3    H141960   5.779   4.669   7.797
14005TIP3    H241961   5.849   4.789   7.739
14006TIP3   OH241962   4.765   4.711   8.126
14006TIP3    H141963   4.826   4.784   8.149
14006TIP3    H241964   4.814   4.670   8.051
14007TIP3   OH241965   4.825   5.570   8.240
14007TIP3    H141966   4.801   5.657   8.202
14007TIP3    H241967   4.745   5.554   8.295
14008TIP3   OH241968   4.217   5.259   7.476
14008TIP3    H141969   4.179   5.285   7.390
14008TIP3    H241970   4.251   5.344   7.510
14009TIP3   OH241971   5.658   5.776   7.718
14009TIP3    H141972   5.568   5.766   7.756
14009TIP3    H241973   5.649   5.861   7.671
14010TIP3   OH241974   5.952   4.666   8.078
14010TIP3    H141975   5.865   4.696   8.045
14010TIP3    H241976   6.013   4.702   8.011
14011TIP3   OH241977   5.256   4.318   8.079
14011TIP3    H141978   5.230   4.224   8.070
14011TIP3    H241979   5.172   4.355   8.114
14012TIP3   OH241980   5.355   5.819   7.386
14012TIP3    H141981   5.405   5.735   7.368
14012TIP3    H241982   5.418   5.883   7.346
14013TIP3   OH241983   5.501   5.604   7.302
14013TIP3    H141984   5.473   5.523   7.258
14013TIP3    H241985   5.539   5.568   7.386
14014TIP3   OH241986   5.872   5.684   8.053
14014TIP3    H141987   5.859   5.606   7.995
14014TIP3    H241988   5.855   5.759   7.993
14015TIP3   OH241989   5.178   5.080   7.319
14015TIP3    H141990   5.098   5.133   7.298
14015TIP3    H241991   5.223   5.076   7.233
14016TIP3   OH241992   5.136   4.865   7.032
14016TIP3    H141993   5.203   4.918   7.078
14016TIP3    H241994   5.194   4.802   6.984
14017TIP3   OH241995   6.085   5.331   7.907
14017TIP3    H141996   5.998   5.378   7.914
14017TIP3    H241997   6.107   5.350   7.814
14018TIP3   OH241998   5.526   5.163   7.287
14018TIP3    H141999   5.471   5.186   7.365
14018TIP3    H242000   5.610   5.138   7.330
14019TIP3   OH242001   5.754   5.185   8.196
14019TIP3    H142002   5.764   5.264   8.255
14019TIP3    H242003   5.669   5.207   8.154
14020TIP3   OH242004   4.757   5.158   7.708
14020TIP3    H142005   4.715   5.101   7.641
14020TIP3    H242006   4.833   5.104   7.737
14021TIP3   OH242007   4.886   5.571   7.854
14021TIP3    H142008   4.867   5.537   7.765
14021TIP3    H242009   4.975   5.534   7.871
14022TIP3   OH242010   4.890   5.131   8.061
14022TIP3    H142011   4.924   5.105   7.973
14022TIP3    H242012   4.936   5.216   8.077
14023TIP3   OH242013   5.416   5.769   7.838
14023TIP3    H142014   5.406   5.847   7.896
14023TIP3    H242015   5.402   5.695   7.900
14024TIP3   OH242016   5.031   5.686   8.385
14024TIP3    H142017   4.968   5.747   8.428
14024TIP3    H242018   4.969   5.632   8.332
14025TIP3   OH242019   5.362   5.021   7.115
14025TIP3    H142020   5.422   5.081   7.165
14025TIP3    H242021   5.389   5.041   7.022
14026TIP3   OH242022   4.789   5.240   8.482
14026TIP3    H142023   4.785   5.328   8.523
14026TIP3    H242024   4.695   5.215   8.488
14027TIP3   OH242025   5.109   5.698   7.394
14027TIP3    H142026   5.193   5.748   7.398
14027TIP3    H242027   5.051   5.759   7.347
14028TIP3   OH242028   4.820   5.838   8.468
14028TIP3    H142029   4.785   5.851   8.378
14028TIP3    H242030   4.740   5.836   8.523
14029TIP3   OH242031   5.881   4.258   7.166
14029TIP3    H142032   5.799   4.281   7.214
14029TIP3    H242033   5.897   4.339   7.114
14030TIP3   OH242034   4.622   5.002   7.514
14030TIP3    H142035   4.555   5.046   7.457
14030TIP3    H242036   4.588   4.912   7.518
14031TIP3   OH242037   5.682   5.627   6.716
14031TIP3    H142038   5.690   5.723   6.697
14031TIP3    H242039   5.774   5.596   6.701
14032TIP3   OH242040   4.403   5.390   8.420
14032TIP3    H142041   4.335   5.368   8.354
14032TIP3    H242042   4.442   5.303   8.442
14033TIP3   OH242043   4.260   5.579   8.049
14033TIP3    H142044   4.355   5.570   8.038
14033TIP3    H242045   4.254   5.656   8.107
14034TIP3   OH242046   5.221   5.816   8.237
14034TIP3    H142047   5.221   5.907   8.273
14034TIP3    H242048   5.154   5.773   8.293
14035TIP3   OH242049   4.991   5.941   7.195
14035TIP3    H142050   4.947   5.923   7.110
14035TIP3    H242051   4.958   6.030   7.219
14036TIP3   OH242052   4.427   5.792   7.580
14036TIP3    H142053   4.475   5.783   7.666
14036TIP3    H242054   4.379   5.708   7.577
14037TIP3   OH242055   5.190   5.847   6.832
14037TIP3    H142056   5.248   5.776   6.795
14037TIP3    H242057   5.226   5.856   6.923
14038TIP3   OH242058   5.243   5.896   7.102
14038TIP3    H142059   5.155   5.903   7.144
14038TIP3    H242060   5.296   5.858   7.174
14039TIP3   OH242061   6.038   5.165   8.349
14039TIP3    H142062   5.946   5.194   8.347
14039TIP3    H242063   6.030   5.067   8.348
14040TIP3   OH242064   4.604   5.573   8.406
14040TIP3    H142065   4.650   5.551   8.489
14040TIP3    H242066   4.529   5.510   8.409
14041TIP3   OH242067   5.007   4.388   8.192
14041TIP3    H142068   4.922   4.356   8.156
14041TIP3    H242069   4.976   4.468   8.239
14042TIP3   OH242070   5.541   4.509   8.388
14042TIP3    H142071   5.603   4.480   8.457
14042TIP3    H242072   5.453   4.491   8.428
14043TIP3   OH242073   5.775   4.932   8.304
14043TIP3    H142074   5.724   4.939   8.388
14043TIP3    H242075   5.760   5.020   8.263
14044TIP3   OH242076   5.443   5.063   6.862
14044TIP3    H142077   5.405   5.042   6.775
14044TIP3    H242078   5.527   5.106   6.835
14045TIP3   OH242079   5.152   4.438   7.163
14045TIP3    H142080   5.118   4.435   7.255
14045TIP3    H242081   5.113   4.357   7.127
14046TIP3   OH242082   4.939   4.908   8.208
14046TIP3    H142083   4.890   4.930   8.290
14046TIP3    H242084   4.924   4.990   8.155
14047TIP3   OH242085   4.821   4.788   7.728
14047TIP3    H142086   4.727   4.764   7.742
14047TIP3    H242087   4.835   4.754   7.637
14048TIP3   OH242088   5.314   4.879   7.454
14048TIP3    H142089   5.264   4.950   7.409
14048TIP3    H242090   5.369   4.845   7.380
14049TIP3   OH242091   5.474   5.156   8.530
14049TIP3    H142092   5.468   5.088   8.600
14049TIP3    H242093   5.558   5.199   8.549
14050TIP3   OH242094   5.469   4.906   7.690
14050TIP3    H142095   5.407   4.934   7.619
14050TIP3    H242096   5.505   4.827   7.644
14051TIP3   OH242097   4.760   4.940   8.417
14051TIP3    H142098   4.794   5.004   8.482
14051TIP3    H242099   4.747   4.860   8.471
14052TIP3   OH242100   4.809   4.412   7.125
14052TIP3    H142101   4.800   4.416   7.222
14052TIP3    H242102   4.733   4.467   7.097
14053TIP3   OH242103   4.358   4.456   7.994
14053TIP3    H142104   4.433   4.484   8.050
14053TIP3    H242105   4.401   4.407   7.922
14054TIP3   OH242106   4.313   4.435   7.514
14054TIP3    H142107   4.358   4.474   7.436
14054TIP3    H242108   4.254   4.510   7.536
14055TIP3   OH242109   5.470   5.151   8.107
14055TIP3    H142110   5.510   5.081   8.050
14055TIP3    H242111   5.444   5.097   8.184
14056TIP3   OH242112   5.157   4.614   7.785
14056TIP3    H142113   5.075   4.612   7.837
14056TIP3    H242114   5.225   4.610   7.854
14057TIP3   OH242115   4.578   4.664   7.791
14057TIP3    H142116   4.486   4.688   7.765
14057TIP3    H242117   4.578   4.568   7.777
14058TIP3   OH242118   4.850   4.672   7.484
14058TIP3    H142119   4.944   4.681   7.459
14058TIP3    H242120   4.803   4.689   7.399
14059TIP3   OH242121   5.643   4.690   7.987
14059TIP3    H142122   5.609   4.705   8.078
14059TIP3    H242123   5.574   4.630   7.952
14060TIP3   OH242124   4.700   4.704   7.258
14060TIP3    H142125   4.632   4.657   7.207
14060TIP3    H242126   4.753   4.743   7.185
14061TIP3   OH242127   4.748   5.484   8.633
14061TIP3    H142128   4.836   5.513   8.661
14061TIP3    H242129   4.714   5.439   8.712
14062TIP3   OH242130   5.233   4.946   7.881
14062TIP3    H142131   5.307   4.908   7.831
14062TIP3    H242132   5.242   4.901   7.967
14063TIP3   OH242133   5.209   4.842   8.175
14063TIP3    H142134   5.120   4.880   8.186
14063TIP3    H242135   5.266   4.906   8.221
14064TIP3   OH242136   4.945   5.231   7.266
14064TIP3    H142137   4.873   5.165   7.254
14064TIP3    H242138   4.925   5.265   7.357
14065TIP3   OH242139   5.845   5.464   7.891
14065TIP3    H142140   5.869   5.515   7.811
14065TIP3    H242141   5.760   5.422   7.865
14066TIP3   OH242142   5.405   4.539   7.139
14066TIP3    H142143   5.308   4.521   7.142
14066TIP3    H242144   5.411   4.635   7.157
14067TIP3   OH242145   5.339   5.552   8.263
14067TIP3    H142146   5.351   5.528   8.356
14067TIP3    H242147   5.300   5.641   8.270
14068TIP3   OH242148   5.472   4.793   7.237
14068TIP3    H142149   5.569   4.800   7.249
14068TIP3    H242150   5.452   4.873   7.183
14069TIP3   OH242151   4.640   5.256   7.941
14069TIP3    H142152   4.678   5.227   7.855
14069TIP3    H242153   4.685   5.197   8.003
14070TIP3   OH242154   5.094   5.381   7.093
14070TIP3    H142155   5.045   5.466   7.095
14070TIP3    H242156   5.039   5.326   7.152
14071TIP3   OH242157   4.524   5.176   8.543
14071TIP3    H142158   4.557   5.168   8.635
14071TIP3    H242159   4.451   5.111   8.542
14072TIP3   OH242160   5.232   5.290   8.558
14072TIP3    H142161   5.180   5.222   8.515
14072TIP3    H242162   5.322   5.253   8.549
14073TIP3   OH242163   5.500   5.811   8.150
14073TIP3    H142164   5.404   5.805   8.165
14073TIP3    H242165   5.529   5.850   8.235
14074TIP3   OH242166   5.914   4.886   7.069
14074TIP3    H142167   5.852   4.842   7.006
14074TIP3    H242168   5.910   4.976   7.029
14075TIP3   OH242169   6.130   5.692   8.135
14075TIP3    H142170   6.035   5.704   8.110
14075TIP3    H242171   6.171   5.685   8.046
14076TIP3   OH242172   5.619   5.701   6.979
14076TIP3    H142173   5.589   5.629   7.036
14076TIP3    H242174   5.631   5.658   6.893
14077TIP3   OH242175   5.611   5.332   7.809
14077TIP3    H142176   5.517   5.307   7.823
14077TIP3    H242177   5.644   5.250   7.766
14078TIP3   OH242178   4.743   5.561   7.572
14078TIP3    H142179   4.741   5.640   7.514
14078TIP3    H242180   4.649   5.539   7.577
14079TIP3   OH242181   4.309   4.861   7.277
14079TIP3    H142182   4.352   4.947   7.296
14079TIP3    H242183   4.230   4.866   7.335
14080TIP3   OH242184   4.872   5.322   7.510
14080TIP3    H142185   4.841   5.412   7.530
14080TIP3    H242186   4.838   5.271   7.586
14081TIP3   OH242187   5.012   5.901   8.035
14081TIP3    H142188   5.055   5.972   7.984
14081TIP3    H242189   5.088   5.861   8.081
14082TIP3   OH242190   4.658   5.799   7.419
14082TIP3    H142191   4.573   5.808   7.466
14082TIP3    H242192   4.691   5.891   7.422
14083TIP3   OH242193   5.396   5.536   7.997
14083TIP3    H142194   5.385   5.534   8.095
14083TIP3    H242195   5.477   5.484   7.986
14084TIP3   OH242196   5.375   5.433   6.880
14084TIP3    H142197   5.428   5.407   6.959
14084TIP3    H242198   5.287   5.402   6.906
14085TIP3   OH242199   5.626   6.079   8.057
14085TIP3    H142200   5.556   6.015   8.037
14085TIP3    H242201   5.623   6.138   7.979
14086TIP3   OH242202   5.713   5.903   6.697
14086TIP3    H142203   5.750   5.976   6.646
14086TIP3    H242204   5.632   5.946   6.731
14087TIP3   OH242205   4.714   4.683   8.543
14087TIP3    H142206   4.618   4.694   8.552
14087TIP3    H242207   4.722   4.588   8.562
14088TIP3   OH242208   5.536   5.367   7.097
14088TIP3    H142209   5.525   5.297   7.166
14088TIP3    H242210   5.632   5.360   7.082
14089TIP3   OH242211   4.446   5.763   8.195
14089TIP3    H142212   4.501   5.690   8.228
14089TIP3    H242213   4.479   5.837   8.247
14090TIP3   OH242214   4.736   5.410   6.880
14090TIP3    H142215   4.751   5.318   6.851
14090TIP3    H242216   4.714   5.397   6.975
14091TIP3   OH242217   4.679   5.415   7.154
14091TIP3    H142218   4.758   5.387   7.203
14091TIP3    H242219   4.685   5.513   7.160
14092TIP3   OH242220   4.417   5.107   7.356
14092TIP3    H142221   4.349   5.152   7.411
14092TIP3    H242222   4.431   5.174   7.286
14093TIP3   OH242223   5.569   4.746   8.246
14093TIP3    H142224   5.652   4.786   8.280
14093TIP3    H242225   5.559   4.665   8.301
14094TIP3   OH242226   5.454   4.491   7.415
14094TIP3    H142227   5.437   4.511   7.321
14094TIP3    H242228   5.491   4.575   7.449
14095TIP3   OH242229   4.950   5.609   7.101
14095TIP3    H142230   4.863   5.637   7.135
14095TIP3    H242231   4.965   5.679   7.035
14096TIP3   OH242232   5.136   4.675   7.514
14096TIP3    H142233   5.199   4.748   7.496
14096TIP3    H242234   5.142   4.668   7.612
14097TIP3   OH242235   5.404   4.990   8.316
14097TIP3    H142236   5.428   5.045   8.394
14097TIP3    H242237   5.462   4.912   8.325
14098TIP3   OH242238   5.281   4.400   7.616
14098TIP3    H142239   5.269   4.481   7.668
14098TIP3    H242240   5.343   4.432   7.546
14099TIP3   OH242241   4.695   5.688   7.168
14099TIP3    H142242   4.666   5.758   7.106
14099TIP3    H242243   4.679   5.730   7.255
14100TIP3   OH242244   4.789   4.402   7.399
14100TIP3    H142245   4.787   4.487   7.448
14100TIP3    H242246   4.883   4.378   7.414
14101TIP3   OH242247   6.041   4.884   8.312
14101TIP3    H142248   5.943   4.884   8.306
14101TIP3    H242249   6.066   4.862   8.221
14102TIP3   OH242250   5.698   5.086   7.690
14102TIP3    H142251   5.621   5.028   7.702
14102TIP3    H242252   5.768   5.039   7.739
14103TIP3   OH242253   4.413   5.313   7.158
14103TIP3    H142254   4.487   5.376   7.167
14103TIP3    H242255   4.454   5.253   7.092
14104TIP3   OH242256   4.351   4.590   7.296
14104TIP3    H142257   4.357   4.688   7.293
14104TIP3    H242258   4.275   4.575   7.239
14105TIP3   OH242259   5.660   6.041   7.636
14105TIP3    H142260   5.617   6.088   7.560
14105TIP3    H242261   5.754   6.060   7.614
14106TIP3   OH242262   4.737   4.316   8.164
14106TIP3    H142263   4.738   4.289   8.068
14106TIP3    H242264   4.726   4.229   8.207
14107TIP3   OH242265   4.280   5.532   7.543
14107TIP3    H142266   4.214   5.560   7.607
14107TIP3    H242267   4.246   5.574   7.460
14108TIP3   OH242268   4.445   6.062   8.593
14108TIP3    H142269   4.527   6.024   8.629
14108TIP3    H242270   4.387   5.985   8.597
14109TIP3   OH242271   4.901   5.612   6.791
14109TIP3    H142272   4.848   5.537   6.826
14109TIP3    H242273   4.976   5.564   6.750
14110TIP3   OH242274   5.543   5.912   8.405
14110TIP3    H142275   5.554   5.860   8.486
14110TIP3    H242276   5.610   5.981   8.418
14111TIP3   OH242277   5.336   5.652   6.703
14111TIP3    H142278   5.378   5.586   6.761
14111TIP3    H242279   5.390   5.647   6.622
14112TIP3   OH242280   4.547   5.127   7.015
14112TIP3    H142281   4.605   5.095   7.086
14112TIP3    H242282   4.612   5.131   6.941
14113TIP3   OH242283   5.208   5.564   8.574
14113TIP3    H142284   5.142   5.588   8.507
14113TIP3    H242285   5.209   5.466   8.573
14114TIP3   OH242286   5.061   5.328   6.823
14114TIP3    H142287   5.064   5.339   6.920
14114TIP3    H242288   5.063   5.230   6.816
14115TIP3   OH242289   5.662   5.577   8.200
14115TIP3    H142290   5.741   5.616   8.158
14115TIP3    H242291   5.595   5.645   8.180
14116TIP3   OH242292   4.703   5.180   8.768
14116TIP3    H142293   4.795   5.155   8.753
14116TIP3    H242294   4.695   5.170   8.865
14117TIP3   OH242295   4.752   5.034   7.231
14117TIP3    H142296   4.728   4.990   7.314
14117TIP3    H242297   4.792   4.961   7.180
14118TIP3   OH242298   5.023   5.093   8.459
14118TIP3    H142299   4.948   5.155   8.459
14118TIP3    H242300   5.075   5.125   8.381
14119TIP3   OH242301   4.857   4.831   7.073
14119TIP3    H142302   4.832   4.837   6.978
14119TIP3    H242303   4.955   4.832   7.065
14120TIP3   OH242304   5.676   5.156   6.742
14120TIP3    H142305   5.657   5.113   6.656
14120TIP3    H242306   5.643   5.246   6.721
14121TIP3   OH242307   5.151   4.888   8.588
14121TIP3    H142308   5.153   4.810   8.530
14121TIP3    H242309   5.107   4.955   8.531
14122TIP3   OH242310   5.150   4.675   8.398
14122TIP3    H142311   5.181   4.717   8.314
14122TIP3    H242312   5.058   4.650   8.374
14123TIP3   OH242313   5.171   5.202   8.264
14123TIP3    H142314   5.258   5.218   8.226
14123TIP3    H242315   5.116   5.271   8.220
14124TIP3   OH242316   5.790   5.393   8.362
14124TIP3    H142317   5.734   5.463   8.320
14124TIP3    H242318   5.879   5.430   8.342
14125TIP3   OH242319   4.970   5.005   8.794
14125TIP3    H142320   4.927   4.918   8.785
14125TIP3    H242321   5.042   4.996   8.729
14126TIP3   OH242322   5.283   4.437   8.465
14126TIP3    H142323   5.232   4.518   8.443
14126TIP3    H242324   5.215   4.367   8.453
14127TIP3   OH242325   5.409   4.934   8.683
14127TIP3    H142326   5.393   4.923   8.777
14127TIP3    H242327   5.320   4.912   8.647
14128TIP3   OH242328   5.638   4.890   8.538
14128TIP3    H142329   5.553   4.895   8.586
14128TIP3    H242330   5.697   4.857   8.607
14129TIP3   OH242331   4.866   4.747   8.850
14129TIP3    H142332   4.938   4.701   8.805
14129TIP3    H242333   4.904   4.753   8.939
14130TIP3   OH242334   5.394   4.429   8.718
14130TIP3    H142335   5.455   4.357   8.699
14130TIP3    H242336   5.344   4.438   8.635
14131TIP3   OH242337   4.666   5.892   6.982
14131TIP3    H142338   4.761   5.881   6.962
14131TIP3    H242339   4.639   5.942   6.902
14132TIP3   OH242340   4.144   5.271   7.197
14132TIP3    H142341   4.238   5.294   7.180
14132TIP3    H242342   4.138   5.183   7.154
14133TIP3   OH242343   4.058   5.884   7.613
14133TIP3    H142344   3.993   5.822   7.573
14133TIP3    H242345   4.103   5.824   7.676
14134TIP3   OH242346   4.192   5.730   7.799
14134TIP3    H142347   4.182   5.659   7.864
14134TIP3    H242348   4.246   5.793   7.850
14135TIP3   OH242349   5.913   6.120   7.587
14135TIP3    H142350   5.936   6.151   7.677
14135TIP3    H242351   5.978   6.165   7.531
14136TIP3   OH242352   5.955   6.146   7.856
14136TIP3    H142353   5.913   6.060   7.880
14136TIP3    H242354   5.985   6.181   7.942
14137TIP3   OH242355   5.813   5.343   7.072
14137TIP3    H142356   5.879   5.409   7.040
14137TIP3    H242357   5.859   5.306   7.150
14138TIP3   OH242358   5.942   5.211   7.276
14138TIP3    H142359   5.874   5.169   7.333
14138TIP3    H242360   6.005   5.248   7.341
14139TIP3   OH242361   5.996   5.604   7.707
14139TIP3    H142362   6.046   5.536   7.657
14139TIP3    H242363   5.998   5.681   7.646
14140TIP3   OH242364   5.821   5.912   7.905
14140TIP3    H142365   5.748   5.945   7.961
14140TIP3    H242366   5.772   5.867   7.832
14141TIP3   OH242367   5.878   5.120   6.921
14141TIP3    H142368   5.807   5.120   6.853
14141TIP3    H242369   5.849   5.196   6.976
14142TIP3   OH242370   5.749   4.792   6.875
14142TIP3    H142371   5.706   4.829   6.797
14142TIP3    H242372   5.726   4.697   6.866
14143TIP3   OH242373   5.753   5.071   7.420
14143TIP3    H142374   5.760   4.974   7.411
14143TIP3    H242375   5.739   5.082   7.517
14144TIP3   OH242376   4.377   5.141   8.170
14144TIP3    H142377   4.376   5.108   8.078
14144TIP3    H242378   4.475   5.144   8.186
14145TIP3   OH242379   6.032   5.474   8.267
14145TIP3    H142380   6.116   5.436   8.298
14145TIP3    H242381   6.063   5.552   8.218
14146TIP3   OH242382   6.258   5.316   8.325
14146TIP3    H142383   6.173   5.268   8.342
14146TIP3    H242384   6.316   5.236   8.321
14147TIP3   OH242385   5.691   4.527   6.861
14147TIP3    H142386   5.762   4.492   6.918
14147TIP3    H242387   5.616   4.468   6.878
14148TIP3   OH242388   5.752   4.787   7.313
14148TIP3    H142389   5.793   4.698   7.328
14148TIP3    H242390   5.809   4.819   7.241
14149TIP3   OH242391   5.910   4.953   7.811
14149TIP3    H142392   5.995   4.978   7.769
14149TIP3    H242393   5.924   4.994   7.899
14150TIP3   OH242394   5.981   5.103   8.038
14150TIP3    H142395   5.905   5.135   8.092
14150TIP3    H242396   6.012   5.187   7.998
14151TIP3   OH242397   5.860   4.536   7.353
14151TIP3    H142398   5.907   4.519   7.437
14151TIP3    H242399   5.798   4.460   7.351
14152TIP3   OH242400   4.557   4.521   8.180
14152TIP3    H142401   4.615   4.442   8.179
14152TIP3    H242402   4.623   4.591   8.166
14153TIP3   OH242403   4.362   4.792   8.247
14153TIP3    H142404   4.410   4.788   8.163
14153TIP3    H242405   4.385   4.880   8.279
14154TIP3   OH242406   6.287   4.832   8.414
14154TIP3    H142407   6.195   4.860   8.397
14154TIP3    H242408   6.290   4.749   8.363
14155TIP3   OH242409   5.939   4.465   6.991
14155TIP3    H142410   5.976   4.397   6.931
14155TIP3    H242411   6.003   4.537   6.983
14156TIP3   OH242412   4.330   4.290   7.741
14156TIP3    H142413   4.239   4.296   7.774
14156TIP3    H242414   4.331   4.354   7.667
14157TIP3   OH242415   5.501   6.001   7.252
14157TIP3    H142416   5.556   5.993   7.171
14157TIP3    H242417   5.552   6.066   7.303
14158TIP3   OH242418   4.582   4.416   8.532
14158TIP3    H142419   4.534   4.359   8.594
14158TIP3    H242420   4.508   4.448   8.476
14159TIP3   OH242421   4.599   5.822   8.647
14159TIP3    H142422   4.511   5.793   8.618
14159TIP3    H242423   4.618   5.758   8.717
14160TIP3   OH242424   4.783   5.842   8.183
14160TIP3    H142425   4.738   5.920   8.144
14160TIP3    H242426   4.870   5.853   8.140
14161TIP3   OH242427   5.240   6.084   8.334
14161TIP3    H142428   5.299   6.059   8.406
14161TIP3    H242429   5.301   6.137   8.278
14162TIP3   OH242430   5.428   6.232   8.192
14162TIP3    H142431   5.484   6.170   8.141
14162TIP3    H242432   5.475   6.315   8.177
14163TIP3   OH242433   6.204   4.594   8.277
14163TIP3    H142434   6.115   4.593   8.237
14163TIP3    H242435   6.233   4.501   8.263
14164TIP3   OH242436   4.458   6.094   8.210
14164TIP3    H142437   4.369   6.127   8.188
14164TIP3    H242438   4.471   6.135   8.296
14165TIP3   OH242439   4.698   6.078   8.071
14165TIP3    H142440   4.609   6.088   8.112
14165TIP3    H242441   4.680   6.107   7.979
14166TIP3   OH242442   5.118   6.101   7.867
14166TIP3    H142443   5.051   6.118   7.799
14166TIP3    H242444   5.131   6.190   7.906
14167TIP3   OH242445   5.387   6.040   7.921
14167TIP3    H142446   5.295   6.060   7.894
14167TIP3    H242447   5.437   6.107   7.872
14168TIP3   OH242448   5.586   6.224   7.828
14168TIP3    H142449   5.571   6.308   7.779
14168TIP3    H242450   5.618   6.165   7.756
14169TIP3   OH242451   4.369   5.887   7.954
14169TIP3    H142452   4.397   5.859   8.044
14169TIP3    H242453   4.442   5.845   7.902
14170TIP3   OH242454   4.566   5.761   7.815
14170TIP3    H142455   4.581   5.677   7.863
14170TIP3    H242456   4.657   5.796   7.809
14171TIP3   OH242457   4.833   5.853   7.819
14171TIP3    H142458   4.863   5.761   7.805
14171TIP3    H242459   4.882   5.874   7.900
14172TIP3   OH242460   5.409   4.512   7.910
14172TIP3    H142461   5.364   4.441   7.959
14172TIP3    H242462   5.478   4.463   7.861
14173TIP3   OH242463   5.928   4.390   7.807
14173TIP3    H142464   5.964   4.443   7.732
14173TIP3    H242465   5.833   4.410   7.800
14174TIP3   OH242466   6.024   4.487   7.571
14174TIP3    H142467   6.098   4.437   7.531
14174TIP3    H242468   6.056   4.579   7.556
14175TIP3   OH242469   4.449   4.112   7.536
14175TIP3    H142470   4.482   4.184   7.477
14175TIP3    H242471   4.430   4.162   7.618
14176TIP3   OH242472   5.134   4.231   7.797
14176TIP3    H142473   5.177   4.298   7.741
14176TIP3    H242474   5.076   4.284   7.854
14177TIP3   OH242475   5.645   4.400   7.781
14177TIP3    H142476   5.640   4.362   7.692
14177TIP3    H242477   5.633   4.320   7.837
14178TIP3   OH242478   5.676   4.324   7.346
14178TIP3    H142479   5.591   4.369   7.362
14178TIP3    H242480   5.660   4.238   7.389
14179TIP3   OH242481   4.158   5.665   7.343
14179TIP3    H142482   4.073   5.631   7.310
14179TIP3    H242483   4.149   5.758   7.317
14180TIP3   OH242484   4.569   4.245   7.322
14180TIP3    H142485   4.623   4.183   7.269
14180TIP3    H242486   4.638   4.304   7.358
14181TIP3   OH242487   5.071   4.424   7.427
14181TIP3    H142488   5.126   4.376   7.490
14181TIP3    H242489   5.093   4.516   7.451
14182TIP3   OH242490   4.932   5.846   6.928
14182TIP3    H142491   5.020   5.868   6.891
14182TIP3    H242492   4.909   5.771   6.868
14183TIP3   OH242493   5.651   5.969   7.022
14183TIP3    H142494   5.644   5.871   7.012
14183TIP3    H242495   5.605   5.999   6.941
14184TIP3   OH242496   4.235   5.683   6.981
14184TIP3    H142497   4.241   5.702   7.076
14184TIP3    H242498   4.322   5.639   6.964
14185TIP3   OH242499   7.130   5.480   6.977
14185TIP3    H142500   7.102   5.571   6.952
14185TIP3    H242501   7.061   5.429   6.932
14186TIP3   OH242502   7.102   5.495   7.385
14186TIP3    H142503   7.171   5.439   7.425
14186TIP3    H242504   7.091   5.451   7.300
14187TIP3   OH242505   6.436   5.345   7.696
14187TIP3    H142506   6.463   5.283   7.766
14187TIP3    H242507   6.507   5.411   7.703
14188TIP3   OH242508   6.418   5.791   7.441
14188TIP3    H142509   6.404   5.693   7.445
14188TIP3    H242510   6.514   5.793   7.429
14189TIP3   OH242511   6.119   4.990   7.225
14189TIP3    H142512   6.070   5.072   7.244
14189TIP3    H242513   6.050   4.938   7.181
14190TIP3   OH242514   6.178   5.278   7.405
14190TIP3    H142515   6.227   5.201   7.439
14190TIP3    H242516   6.233   5.306   7.331
14191TIP3   OH242517   6.924   5.706   7.352
14191TIP3    H142518   6.950   5.612   7.344
14191TIP3    H242519   7.011   5.747   7.350
14192TIP3   OH242520   7.328   5.195   7.422
14192TIP3    H142521   7.369   5.106   7.425
14192TIP3    H242522   7.299   5.196   7.328
14193TIP3   OH242523   6.696   4.870   7.398
14193TIP3    H142524   6.674   4.943   7.336
14193TIP3    H242525   6.646   4.797   7.354
14194TIP3   OH242526   7.390   4.962   7.020
14194TIP3    H142527   7.460   4.942   7.086
14194TIP3    H242528   7.443   5.001   6.948
14195TIP3   OH242529   6.323   5.070   7.507
14195TIP3    H142530   6.406   5.055   7.554
14195TIP3    H242531   6.338   5.015   7.427
14196TIP3   OH242532   6.765   5.268   7.294
14196TIP3    H142533   6.858   5.240   7.310
14196TIP3    H242534   6.725   5.184   7.264
14197TIP3   OH242535   6.684   4.852   7.834
14197TIP3    H142536   6.625   4.890   7.767
14197TIP3    H242537   6.632   4.870   7.915
14198TIP3   OH242538   7.020   5.700   6.848
14198TIP3    H142539   6.997   5.686   6.755
14198TIP3    H242540   6.978   5.787   6.864
14199TIP3   OH242541   6.787   5.619   7.592
14199TIP3    H142542   6.727   5.681   7.638
14199TIP3    H242543   6.838   5.678   7.535
14200TIP3   OH242544   7.591   4.947   7.207
14200TIP3    H142545   7.545   4.918   7.288
14200TIP3    H242546   7.636   5.027   7.239
14201TIP3   OH242547   6.558   4.967   7.616
14201TIP3    H142548   6.620   5.039   7.642
14201TIP3    H242549   6.608   4.928   7.541
14202TIP3   OH242550   6.013   5.515   6.962
14202TIP3    H142551   5.973   5.540   6.877
14202TIP3    H242552   6.044   5.601   6.996
14203TIP3   OH242553   7.035   4.573   7.545
14203TIP3    H142554   7.020   4.478   7.563
14203TIP3    H242555   6.959   4.612   7.594
14204TIP3   OH242556   7.279   5.885   6.775
14204TIP3    H142557   7.265   5.801   6.728
14204TIP3    H242558   7.354   5.865   6.832
14205TIP3   OH242559   6.972   5.337   6.804
14205TIP3    H142560   6.892   5.390   6.785
14205TIP3    H242561   7.017   5.336   6.718
14206TIP3   OH242562   6.931   5.122   6.519
14206TIP3    H142563   6.998   5.175   6.566
14206TIP3    H242564   6.989   5.059   6.471
14207TIP3   OH242565   7.317   5.417   6.780
14207TIP3    H142566   7.265   5.441   6.860
14207TIP3    H242567   7.402   5.391   6.822
14208TIP3   OH242568   6.552   5.415   7.194
14208TIP3    H142569   6.510   5.357   7.126
14208TIP3    H242570   6.629   5.361   7.221
14209TIP3   OH242571   6.684   5.836   7.325
14209TIP3    H142572   6.643   5.808   7.240
14209TIP3    H242573   6.763   5.777   7.328
14210TIP3   OH242574   6.697   5.369   7.541
14210TIP3    H142575   6.723   5.345   7.450
14210TIP3    H242576   6.737   5.458   7.551
14211TIP3   OH242577   7.159   5.276   6.602
14211TIP3    H142578   7.217   5.337   6.653
14211TIP3    H242579   7.187   5.296   6.510
14212TIP3   OH242580   6.514   5.524   7.912
14212TIP3    H142581   6.462   5.599   7.880
14212TIP3    H242582   6.447   5.475   7.963
14213TIP3   OH242583   6.903   5.952   6.867
14213TIP3    H142584   6.964   6.008   6.919
14213TIP3    H242585   6.844   6.017   6.825
14214TIP3   OH242586   7.678   4.515   6.653
14214TIP3    H142587   7.595   4.537   6.700
14214TIP3    H242588   7.692   4.596   6.601
14215TIP3   OH242589   6.418   5.259   6.999
14215TIP3    H142590   6.351   5.304   6.943
14215TIP3    H242591   6.380   5.171   7.007
14216TIP3   OH242592   7.477   5.880   6.194
14216TIP3    H142593   7.481   5.978   6.184
14216TIP3    H242594   7.570   5.857   6.174
14217TIP3   OH242595   6.216   5.631   7.883
14217TIP3    H142596   6.142   5.619   7.820
14217TIP3    H242597   6.230   5.540   7.915
14218TIP3   OH242598   6.055   5.832   7.552
14218TIP3    H142599   6.145   5.845   7.519
14218TIP3    H242600   6.025   5.923   7.570
14219TIP3   OH242601   6.778   6.197   6.687
14219TIP3    H142602   6.734   6.182   6.601
14219TIP3    H242603   6.751   6.288   6.709
14220TIP3   OH242604   6.219   6.047   7.059
14220TIP3    H142605   6.262   6.039   7.147
14220TIP3    H242606   6.166   5.966   7.058
14221TIP3   OH242607   6.981   6.093   6.309
14221TIP3    H142608   7.040   6.023   6.271
14221TIP3    H242609   7.018   6.101   6.399
14222TIP3   OH242610   7.018   6.128   6.582
14222TIP3    H142611   6.934   6.151   6.629
14222TIP3    H242612   7.052   6.057   6.637
14223TIP3   OH242613   6.804   4.648   7.682
14223TIP3    H142614   6.716   4.618   7.652
14223TIP3    H242615   6.778   4.729   7.730
14224TIP3   OH242616   7.334   4.745   7.861
14224TIP3    H142617   7.390   4.792   7.924
14224TIP3    H242618   7.246   4.747   7.903
14225TIP3   OH242619   7.237   5.310   6.344
14225TIP3    H142620   7.209   5.289   6.253
14225TIP3    H242621   7.309   5.373   6.328
14226TIP3   OH242622   6.951   4.694   6.651
14226TIP3    H142623   6.914   4.691   6.742
14226TIP3    H242624   6.908   4.614   6.614
14227TIP3   OH242625   6.740   5.153   7.694
14227TIP3    H142626   6.695   5.179   7.777
14227TIP3    H242627   6.723   5.233   7.639
14228TIP3   OH242628   6.620   5.050   7.210
14228TIP3    H142629   6.527   5.025   7.229
14228TIP3    H242630   6.631   5.009   7.122
14229TIP3   OH242631   7.107   5.134   6.934
14229TIP3    H142632   7.057   5.207   6.891
14229TIP3    H242633   7.163   5.103   6.861
14230TIP3   OH242634   7.256   5.160   7.165
14230TIP3    H142635   7.195   5.188   7.094
14230TIP3    H242636   7.293   5.081   7.120
14231TIP3   OH242637   6.566   5.185   7.907
14231TIP3    H142638   6.622   5.236   7.967
14231TIP3    H242639   6.548   5.106   7.960
14232TIP3   OH242640   6.609   4.673   6.616
14232TIP3    H142641   6.594   4.672   6.712
14232TIP3    H242642   6.530   4.724   6.586
14233TIP3   OH242643   6.147   4.711   7.489
14233TIP3    H142644   6.223   4.746   7.541
14233TIP3    H242645   6.187   4.685   7.405
14234TIP3   OH242646   6.114   4.695   7.006
14234TIP3    H142647   6.158   4.732   6.927
14234TIP3    H242648   6.053   4.768   7.025
14235TIP3   OH242649   6.949   4.864   7.268
14235TIP3    H142650   6.866   4.868   7.320
14235TIP3    H242651   7.016   4.873   7.338
14236TIP3   OH242652   6.381   4.930   7.278
14236TIP3    H142653   6.287   4.939   7.250
14236TIP3    H242654   6.402   4.838   7.255
14237TIP3   OH242655   6.647   4.923   6.970
14237TIP3    H142656   6.740   4.940   6.946
14237TIP3    H242657   6.598   4.945   6.887
14238TIP3   OH242658   7.403   4.932   7.433
14238TIP3    H142659   7.392   4.925   7.528
14238TIP3    H242660   7.335   4.869   7.401
14239TIP3   OH242661   6.498   4.959   6.747
14239TIP3    H142662   6.427   4.912   6.698
14239TIP3    H242663   6.549   4.996   6.672
14240TIP3   OH242664   7.018   5.183   7.362
14240TIP3    H142665   7.100   5.163   7.315
14240TIP3    H242666   7.037   5.153   7.452
14241TIP3   OH242667   6.551   4.688   7.251
14241TIP3    H142668   6.514   4.611   7.299
14241TIP3    H242669   6.588   4.646   7.173
14242TIP3   OH242670   7.007   5.096   7.658
14242TIP3    H142671   6.913   5.122   7.666
14242TIP3    H242672   7.048   5.140   7.734
14243TIP3   OH242673   6.743   5.488   6.755
14243TIP3    H142674   6.670   5.422   6.743
14243TIP3    H242675   6.722   5.523   6.845
14244TIP3   OH242676   7.201   4.797   6.624
14244TIP3    H142677   7.105   4.778   6.630
14244TIP3    H242678   7.207   4.892   6.645
14245TIP3   OH242679   7.269   5.049   6.722
14245TIP3    H142680   7.366   5.058   6.737
14245TIP3    H242681   7.249   5.130   6.671
14246TIP3   OH242682   6.443   5.517   7.430
14246TIP3    H142683   6.479   5.484   7.345
14246TIP3    H242684   6.468   5.445   7.491
14247TIP3   OH242685   6.890   5.637   6.578
14247TIP3    H142686   6.842   5.723   6.580
14247TIP3    H242687   6.835   5.583   6.639
14248TIP3   OH242688   6.305   5.401   8.059
14248TIP3    H142689   6.282   5.382   8.152
14248TIP3    H242690   6.228   5.359   8.013
14249TIP3   OH242691   7.712   5.138   6.554
14249TIP3    H142692   7.649   5.097   6.490
14249TIP3    H242693   7.706   5.230   6.520
14250TIP3   OH242694   7.350   5.935   6.443
14250TIP3    H142695   7.389   5.889   6.518
14250TIP3    H242696   7.414   5.915   6.372
14251TIP3   OH242697   6.540   5.823   7.070
14251TIP3    H142698   6.536   5.899   7.008
14251TIP3    H242699   6.448   5.794   7.068
14252TIP3   OH242700   6.106   5.118   6.765
14252TIP3    H142701   6.147   5.204   6.784
14252TIP3    H242702   6.026   5.122   6.822
14253TIP3   OH242703   6.668   5.581   6.998
14253TIP3    H142704   6.638   5.671   7.020
14253TIP3    H242705   6.632   5.529   7.073
14254TIP3   OH242706   6.457   6.049   6.909
14254TIP3    H142707   6.370   6.061   6.952
14254TIP3    H242708   6.491   6.142   6.912
14255TIP3   OH242709   7.173   5.660   6.366
14255TIP3    H142710   7.221   5.657   6.452
14255TIP3    H242711   7.081   5.656   6.396
14256TIP3   OH242712   7.491   6.150   6.173
14256TIP3    H142713   7.559   6.209   6.139
14256TIP3    H242714   7.416   6.212   6.189
14257TIP3   OH242715   6.526   4.932   8.050
14257TIP3    H142716   6.431   4.938   8.068
14257TIP3    H242717   6.556   4.876   8.124
14258TIP3   OH242718   7.317   5.629   6.601
14258TIP3    H142719   7.311   5.556   6.665
14258TIP3    H242720   7.412   5.620   6.577
14259TIP3   OH242721   6.263   6.034   7.695
14259TIP3    H142722   6.255   5.943   7.728
14259TIP3    H242723   6.222   6.087   7.765
14260TIP3   OH242724   6.534   5.666   6.366
14260TIP3    H142725   6.547   5.573   6.338
14260TIP3    H242726   6.512   5.654   6.461
14261TIP3   OH242727   6.478   5.672   6.639
14261TIP3    H142728   6.556   5.646   6.690
14261TIP3    H242729   6.481   5.770   6.645
14262TIP3   OH242730   6.213   5.365   6.843
14262TIP3    H142731   6.146   5.409   6.898
14262TIP3    H242732   6.225   5.432   6.773
14263TIP3   OH242733   7.251   4.747   6.902
14263TIP3    H142734   7.233   4.769   6.809
14263TIP3    H242735   7.288   4.831   6.936
14264TIP3   OH242736   6.747   5.867   6.586
14264TIP3    H142737   6.659   5.893   6.620
14264TIP3    H242738   6.762   5.937   6.521
14265TIP3   OH242739   6.932   4.931   7.000
14265TIP3    H142740   6.995   5.005   6.982
14265TIP3    H242741   6.938   4.924   7.098
14266TIP3   OH242742   7.075   4.652   7.101
14266TIP3    H142743   7.060   4.731   7.156
14266TIP3    H242744   7.138   4.688   7.034
14267TIP3   OH242745   6.493   5.944   6.655
14267TIP3    H142746   6.462   6.013   6.593
14267TIP3    H242747   6.476   5.986   6.742
14268TIP3   OH242748   6.589   4.658   6.893
14268TIP3    H142749   6.586   4.749   6.929
14268TIP3    H242750   6.686   4.642   6.899
14269TIP3   OH242751   7.531   5.270   7.184
14269TIP3    H142752   7.438   5.243   7.189
14269TIP3    H242753   7.566   5.238   7.271
14270TIP3   OH242754   6.208   5.568   6.646
14270TIP3    H142755   6.279   5.635   6.654
14270TIP3    H242756   6.250   5.510   6.578
14271TIP3   OH242757   6.149   4.847   6.782
14271TIP3    H142758   6.150   4.944   6.780
14271TIP3    H242759   6.071   4.828   6.727
14272TIP3   OH242760   6.541   4.569   7.649
14272TIP3    H142761   6.509   4.536   7.562
14272TIP3    H242762   6.528   4.491   7.707
14273TIP3   OH242763   6.073   5.783   7.030
14273TIP3    H142764   6.012   5.817   7.097
14273TIP3    H242765   6.039   5.827   6.948
14274TIP3   OH242766   6.697   5.870   6.277
14274TIP3    H142767   6.646   5.793   6.312
14274TIP3    H242768   6.773   5.825   6.235
14275TIP3   OH242769   7.140   5.904   6.188
14275TIP3    H142770   7.202   5.877   6.257
14275TIP3    H242771   7.196   5.906   6.109
14276TIP3   OH242772   6.344   5.384   6.501
14276TIP3    H142773   6.402   5.354   6.573
14276TIP3    H242774   6.409   5.389   6.428
14277TIP3   OH242775   6.857   5.583   6.306
14277TIP3    H142776   6.860   5.596   6.403
14277TIP3    H242777   6.854   5.485   6.301
14278TIP3   OH242778   6.551   5.291   6.720
14278TIP3    H142779   6.521   5.248   6.802
14278TIP3    H242780   6.588   5.216   6.669
14279TIP3   OH242781   6.824   5.337   7.927
14279TIP3    H142782   6.777   5.394   7.990
14279TIP3    H242783   6.843   5.397   7.855
14280TIP3   OH242784   6.653   5.086   6.560
14280TIP3    H142785   6.627   5.093   6.466
14280TIP3    H242786   6.750   5.089   6.552
14281TIP3   OH242787   7.482   5.420   6.220
14281TIP3    H142788   7.452   5.373   6.140
14281TIP3    H242789   7.440   5.508   6.203
14282TIP3   OH242790   2.009   0.226   3.188
14282TIP3    H142791   2.037   0.159   3.123
14282TIP3    H242792   1.980   0.298   3.129
14283TIP3   OH242793   6.946   4.916   7.876
14283TIP3    H142794   6.972   4.960   7.793
14283TIP3    H242795   6.850   4.902   7.862
14284TIP3   OH242796   7.079   4.698   7.973
14284TIP3    H142797   7.029   4.777   7.941
14284TIP3    H242798   7.014   4.627   7.954
14285TIP3   OH242799   6.642   5.027   8.363
14285TIP3    H142800   6.665   4.948   8.311
14285TIP3    H242801   6.710   5.025   8.431
14286TIP3   OH242802   7.177   4.693   8.233
14286TIP3    H142803   7.250   4.646   8.192
14286TIP3    H242804   7.120   4.706   8.155
14287TIP3   OH242805   6.462   6.148   6.468
14287TIP3    H142806   6.557   6.138   6.448
14287TIP3    H242807   6.434   6.197   6.389
14288TIP3   OH242808   5.939   5.527   6.683
14288TIP3    H142809   6.034   5.547   6.666
14288TIP3    H242810   5.931   5.439   6.640
14289TIP3   OH242811   5.855   6.142   7.095
14289TIP3    H142812   5.788   6.082   7.056
14289TIP3    H242813   5.899   6.081   7.158
14290TIP3   OH242814   5.984   5.975   7.271
14290TIP3    H142815   5.961   5.909   7.338
14290TIP3    H242816   6.034   6.039   7.326
14291TIP3   OH242817   7.580   5.585   6.560
14291TIP3    H142818   7.645   5.640   6.510
14291TIP3    H242819   7.636   5.546   6.630
14292TIP3   OH242820   7.722   5.434   6.739
14292TIP3    H142821   7.672   5.426   6.822
14292TIP3    H242822   7.786   5.507   6.755
14293TIP3   OH242823   7.671   5.370   6.410
14293TIP3    H142824   7.602   5.378   6.341
14293TIP3    H242825   7.641   5.442   6.470
14294TIP3   OH242826   7.544   5.046   6.363
14294TIP3    H142827   7.501   5.086   6.287
14294TIP3    H242828   7.521   4.951   6.351
14295TIP3   OH242829   7.536   5.311   6.914
14295TIP3    H142830   7.549   5.220   6.885
14295TIP3    H242831   7.544   5.303   7.011
14296TIP3   OH242832   6.171   5.395   7.653
14296TIP3    H142833   6.162   5.362   7.561
14296TIP3    H242834   6.268   5.387   7.664
14297TIP3   OH242835   7.488   4.780   6.343
14297TIP3    H142836   7.556   4.747   6.405
14297TIP3    H242837   7.411   4.724   6.362
14298TIP3   OH242838   7.550   5.044   6.799
14298TIP3    H142839   7.588   4.954   6.811
14298TIP3    H242840   7.605   5.076   6.725
14299TIP3   OH242841   6.378   5.071   8.310
14299TIP3    H142842   6.475   5.068   8.324
14299TIP3    H242843   6.352   4.994   8.365
14300TIP3   OH242844   7.655   4.792   6.838
14300TIP3    H142845   7.701   4.775   6.923
14300TIP3    H242846   7.592   4.717   6.836
14301TIP3   OH242847   6.355   4.777   7.660
14301TIP3    H142848   6.418   4.703   7.668
14301TIP3    H242849   6.417   4.852   7.651
14302TIP3   OH242850   6.155   5.049   7.732
14302TIP3    H142851   6.204   5.046   7.647
14302TIP3    H242852   6.186   5.133   7.768
14303TIP3   OH242853   7.737   4.721   6.480
14303TIP3    H142854   7.772   4.655   6.417
14303TIP3    H242855   7.799   4.796   6.468
14304TIP3   OH242856   6.142   4.554   7.235
14304TIP3    H142857   6.049   4.548   7.261
14304TIP3    H242858   6.137   4.612   7.156
14305TIP3   OH242859   6.361   4.622   8.041
14305TIP3    H142860   6.315   4.630   8.126
14305TIP3    H242861   6.297   4.668   7.983
14306TIP3   OH242862   6.149   6.116   7.444
14306TIP3    H142863   6.198   6.120   7.529
14306TIP3    H242864   6.224   6.087   7.386
14307TIP3   OH242865   6.343   6.007   7.295
14307TIP3    H142866   6.368   5.927   7.347
14307TIP3    H242867   6.432   6.047   7.277
14308TIP3   OH242868   6.593   6.105   7.263
14308TIP3    H142869   6.640   6.023   7.243
14308TIP3    H242870   6.656   6.153   7.317
14309TIP3   OH242871   7.198   4.752   7.387
14309TIP3    H142872   7.147   4.686   7.438
14309TIP3    H242873   7.265   4.697   7.342
14310TIP3   OH242874   7.726   4.646   7.287
14310TIP3    H142875   7.758   4.705   7.216
14310TIP3    H242876   7.632   4.672   7.291
14311TIP3   OH242877   7.825   4.749   7.052
14311TIP3    H142878   7.896   4.694   7.012
14311TIP3    H242879   7.867   4.837   7.050
14312TIP3   OH242880   6.450   4.477   7.402
14312TIP3    H142881   6.357   4.445   7.405
14312TIP3    H242882   6.497   4.391   7.397
14313TIP3   OH242883   6.249   4.346   7.057
14313TIP3    H142884   6.273   4.402   6.981
14313TIP3    H242885   6.216   4.412   7.121
14314TIP3   OH242886   6.902   4.503   7.286
14314TIP3    H142887   6.954   4.554   7.221
14314TIP3    H242888   6.920   4.550   7.368
14315TIP3   OH242889   7.441   4.651   7.266
14315TIP3    H142890   7.441   4.611   7.178
14315TIP3    H242891   7.430   4.573   7.324
14316TIP3   OH242892   7.472   4.581   6.832
14316TIP3    H142893   7.387   4.626   6.848
14316TIP3    H242894   7.455   4.494   6.876
14317TIP3   OH242895   5.955   5.921   6.830
14317TIP3    H142896   5.870   5.888   6.798
14317TIP3    H242897   5.946   6.015   6.805
14318TIP3   OH242898   6.357   4.501   6.817
14318TIP3    H142899   6.404   4.440   6.757
14318TIP3    H242900   6.431   4.556   6.851
14319TIP3   OH242901   6.866   4.681   6.914
14319TIP3    H142902   6.927   4.636   6.974
14319TIP3    H242903   6.887   4.775   6.939
14320TIP3   OH242904   6.728   6.103   6.415
14320TIP3    H142905   6.816   6.123   6.377
14320TIP3    H242906   6.704   6.028   6.356
14321TIP3   OH242907   7.425   6.203   6.494
14321TIP3    H142908   7.405   6.108   6.490
14321TIP3    H242909   7.442   6.221   6.401
14322TIP3   OH242910   6.649   4.740   8.270
14322TIP3    H142911   6.609   4.678   8.335
14322TIP3    H242912   6.742   4.739   8.303
14323TIP3   OH242913   6.897   4.730   8.387
14323TIP3    H142914   6.989   4.731   8.356
14323TIP3    H242915   6.905   4.719   8.483
14324TIP3   OH242916   6.033   5.942   6.468
14324TIP3    H142917   6.036   5.959   6.563
14324TIP3    H242918   6.119   5.898   6.452
14325TIP3   OH242919   7.912   5.240   6.719
14325TIP3    H142920   7.858   5.321   6.722
14325TIP3    H242921   7.850   5.186   6.666
14326TIP3   OH242922   7.759   5.719   6.408
14326TIP3    H142923   7.732   5.766   6.327
14326TIP3    H242924   7.779   5.794   6.468
14327TIP3   OH242925   8.707   4.979   6.168
14327TIP3    H142926   8.743   4.908   6.224
14327TIP3    H242927   8.698   4.930   6.084
14328TIP3   OH242928   8.407   4.933   6.100
14328TIP3    H142929   8.382   4.920   6.193
14328TIP3    H242930   8.327   4.981   6.067
14329TIP3   OH242931   7.982   4.961   6.976
14329TIP3    H142932   8.024   5.042   6.936
14329TIP3    H242933   7.965   4.912   6.893
14330TIP3   OH242934   7.911   4.950   6.493
14330TIP3    H142935   7.957   4.989   6.415
14330TIP3    H242936   7.848   5.023   6.511
14331TIP3   OH242937   8.138   5.121   6.821
14331TIP3    H142938   8.066   5.164   6.769
14331TIP3    H242939   8.183   5.066   6.755
14332TIP3   OH242940   3.615   0.297   1.490
14332TIP3    H142941   3.595   0.334   1.578
14332TIP3    H242942   3.529   0.312   1.443
14333TIP3   OH242943   8.300   5.203   6.251
14333TIP3    H142944   8.215   5.170   6.218
14333TIP3    H242945   8.342   5.228   6.167
14334TIP3   OH242946   8.319   4.936   6.702
14334TIP3    H142947   8.290   4.870   6.768
14334TIP3    H242948   8.400   4.898   6.670
14335TIP3   OH242949   7.870   5.356   6.220
14335TIP3    H142950   7.921   5.440   6.232
14335TIP3    H242951   7.808   5.362   6.296
14336TIP3   OH242952   8.317   5.877   5.865
14336TIP3    H142953   8.316   5.786   5.828
14336TIP3    H242954   8.404   5.874   5.913
14337TIP3   OH242955   7.969   5.600   6.280
14337TIP3    H142956   7.900   5.626   6.345
14337TIP3    H242957   7.995   5.687   6.248
14338TIP3   OH242958   8.384   4.903   6.370
14338TIP3    H142959   8.367   4.983   6.421
14338TIP3    H242960   8.477   4.884   6.389
14339TIP3   OH242961   7.992   5.858   6.091
14339TIP3    H142962   8.039   5.862   6.176
14339TIP3    H242963   8.049   5.794   6.041
14340TIP3   OH242964   7.956   5.102   6.268
14340TIP3    H142965   7.945   5.199   6.253
14340TIP3    H242966   7.883   5.070   6.214
14341TIP3   OH242967   8.155   5.660   6.007
14341TIP3    H142968   8.210   5.600   6.061
14341TIP3    H242969   8.205   5.656   5.923
14342TIP3   OH242970   8.316   5.505   6.161
14342TIP3    H142971   8.348   5.493   6.251
14342TIP3    H242972   8.376   5.446   6.111
14343TIP3   OH242973   8.474   5.318   6.035
14343TIP3    H142974   8.435   5.306   5.946
14343TIP3    H242975   8.533   5.395   6.017
14344TIP3   OH242976   7.732   5.785   6.128
14344TIP3    H142977   7.819   5.829   6.117
14344TIP3    H242978   7.750   5.700   6.086
14345TIP3   OH242979   7.928   4.831   6.738
14345TIP3    H142980   7.833   4.808   6.746
14345TIP3    H242981   7.930   4.879   6.652
14346TIP3   OH242982   8.253   4.746   6.891
14346TIP3    H142983   8.159   4.720   6.893
14346TIP3    H242984   8.295   4.658   6.895
14347TIP3   OH242985   8.046   4.604   6.546
14347TIP3    H142986   8.068   4.656   6.466
14347TIP3    H242987   8.011   4.671   6.606
14348TIP3   OH242988   8.150   4.752   6.304
14348TIP3    H142989   8.195   4.691   6.242
14348TIP3    H242990   8.226   4.805   6.337
14349TIP3   OH242991   8.671   4.968   6.444
14349TIP3    H142992   8.738   4.899   6.457
14349TIP3    H242993   8.666   5.004   6.535
14350TIP3   OH242994   7.787   6.135   5.971
14350TIP3    H142995   7.807   6.216   6.022
14350TIP3    H242996   7.876   6.116   5.934
14351TIP3   OH242997   2.125   6.114   8.493
14351TIP3    H142998   2.148   6.141   8.583
14351TIP3    H242999   2.211   6.110   8.449
14352TIP3   OH243000   1.644   5.994   8.189
14352TIP3    H143001   1.701   6.001   8.268
14352TIP3    H243002   1.697   6.042   8.123
14353TIP3   OH243003   1.840   6.028   8.390
14353TIP3    H143004   1.839   5.944   8.437
14353TIP3    H243005   1.932   6.057   8.407
14354TIP3   OH243006   1.199   6.282   7.922
14354TIP3    H143007   1.109   6.319   7.915
14354TIP3    H243008   1.246   6.320   7.845
14355TIP3   OH243009   1.188   6.150   7.670
14355TIP3    H143010   1.246   6.176   7.743
14355TIP3    H243011   1.250   6.096   7.616
14356TIP3   OH243012   1.592   6.419   7.945
14356TIP3    H143013   1.578   6.487   8.013
14356TIP3    H243014   1.680   6.386   7.973
14357TIP3   OH243015   1.414   6.316   7.763
14357TIP3    H143016   1.484   6.367   7.809
14357TIP3    H243017   1.434   6.339   7.669
14358TIP3   OH243018   1.925   5.560   7.829
14358TIP3    H143019   1.843   5.583   7.877
14358TIP3    H243020   1.940   5.642   7.777
14359TIP3   OH243021   1.742   6.918   7.341
14359TIP3    H143022   1.753   7.014   7.334
14359TIP3    H243023   1.835   6.888   7.351
14360TIP3   OH243024   1.485   6.353   7.509
14360TIP3    H143025   1.453   6.334   7.419
14360TIP3    H243026   1.564   6.407   7.491
14361TIP3   OH243027   1.188   5.753   7.803
14361TIP3    H143028   1.172   5.746   7.900
14361TIP3    H243029   1.159   5.662   7.778
14362TIP3   OH243030   1.352   6.174   8.113
14362TIP3    H143031   1.299   6.206   8.036
14362TIP3    H243032   1.429   6.137   8.065
14363TIP3   OH243033   1.446   5.843   7.799
14363TIP3    H143034   1.349   5.826   7.799
14363TIP3    H243035   1.452   5.938   7.821
14364TIP3   OH243036   1.520   6.094   7.899
14364TIP3    H143037   1.617   6.100   7.909
14364TIP3    H243038   1.499   6.171   7.843
14365TIP3   OH243039   1.955   6.187   7.735
14365TIP3    H143040   1.895   6.142   7.670
14365TIP3    H243041   1.954   6.276   7.692
14366TIP3   OH243042   1.409   6.732   7.516
14366TIP3    H143043   1.459   6.683   7.585
14366TIP3    H243044   1.319   6.708   7.544
14367TIP3   OH243045   1.817   7.241   7.320
14367TIP3    H143046   1.796   7.291   7.238
14367TIP3    H243047   1.728   7.230   7.357
14368TIP3   OH243048   1.552   6.590   7.706
14368TIP3    H143049   1.560   6.551   7.794
14368TIP3    H243050   1.639   6.632   7.696
14369TIP3   OH243051   1.505   5.787   8.071
14369TIP3    H143052   1.484   5.812   7.979
14369TIP3    H243053   1.547   5.868   8.107
14370TIP3   OH243054   1.193   5.968   8.199
14370TIP3    H143055   1.255   6.033   8.161
14370TIP3    H243056   1.189   5.997   8.291
14371TIP3   OH243057   1.345   5.688   8.271
14371TIP3    H143058   1.339   5.757   8.338
14371TIP3    H243059   1.395   5.732   8.199
14372TIP3   OH243060   1.382   6.954   7.342
14372TIP3    H143061   1.418   6.894   7.410
14372TIP3    H243062   1.441   6.940   7.265
14373TIP3   OH243063   1.118   6.637   7.494
14373TIP3    H143064   1.139   6.641   7.590
14373TIP3    H243065   1.115   6.540   7.480
14374TIP3   OH243066   0.941   6.168   7.797
14374TIP3    H143067   0.910   6.154   7.705
14374TIP3    H243068   1.035   6.149   7.780
14375TIP3   OH243069   1.723   6.456   7.404
14375TIP3    H143070   1.703   6.412   7.319
14375TIP3    H243071   1.690   6.547   7.382
14376TIP3   OH243072   1.864   6.645   7.732
14376TIP3    H143073   1.933   6.704   7.693
14376TIP3    H243074   1.916   6.598   7.802
14377TIP3   OH243075   1.980   6.502   7.931
14377TIP3    H143076   1.929   6.462   8.004
14377TIP3    H243077   2.059   6.538   7.977
14378TIP3   OH243078   1.923   6.418   7.583
14378TIP3    H143079   1.853   6.417   7.514
14378TIP3    H243080   1.893   6.494   7.635
14379TIP3   OH243081   1.792   6.094   7.540
14379TIP3    H143082   1.750   6.129   7.461
14379TIP3    H243083   1.770   5.998   7.531
14380TIP3   OH243084   1.814   6.345   8.106
14380TIP3    H143085   1.822   6.253   8.073
14380TIP3    H243086   1.760   6.334   8.185
14381TIP3   OH243087   1.736   5.828   7.525
14381TIP3    H143088   1.808   5.793   7.580
14381TIP3    H243089   1.662   5.767   7.542
14382TIP3   OH243090   1.801   6.099   7.974
14382TIP3    H143091   1.832   6.006   7.986
14382TIP3    H243092   1.857   6.124   7.897
14383TIP3   OH243093   1.891   5.845   8.002
14383TIP3    H143094   1.948   5.827   8.080
14383TIP3    H243095   1.831   5.767   8.005
14384TIP3   OH243096   1.983   5.767   7.653
14384TIP3    H143097   2.021   5.698   7.594
14384TIP3    H243098   2.049   5.839   7.646
14385TIP3   OH243099   1.991   5.695   8.421
14385TIP3    H143100   2.031   5.739   8.343
14385TIP3    H243101   1.896   5.692   8.395
14386TIP3   OH243102   2.076   5.811   8.196
14386TIP3    H143103   2.150   5.756   8.160
14386TIP3    H243104   2.115   5.901   8.185
14387TIP3   OH243105   1.729   5.668   8.389
14387TIP3    H143106   1.665   5.667   8.317
14387TIP3    H243107   1.704   5.590   8.441
14388TIP3   OH243108   1.721   5.626   8.008
14388TIP3    H143109   1.635   5.670   8.023
14388TIP3    H243110   1.703   5.539   8.049
14389TIP3   OH243111   1.156   5.732   8.069
14389TIP3    H143112   1.196   5.685   8.144
14389TIP3    H243113   1.148   5.821   8.108
14390TIP3   OH243114   3.188   6.787   7.635
14390TIP3    H143115   3.157   6.877   7.613
14390TIP3    H243116   3.112   6.735   7.601
14391TIP3   OH243117   3.201   6.766   8.007
14391TIP3    H143118   3.221   6.751   8.101
14391TIP3    H243119   3.154   6.684   7.983
14392TIP3   OH243120   3.435   7.084   7.697
14392TIP3    H143121   3.413   7.020   7.766
14392TIP3    H243122   3.469   7.160   7.749
14393TIP3   OH243123   2.167   6.278   7.889
14393TIP3    H143124   2.134   6.368   7.907
14393TIP3    H243125   2.090   6.239   7.844
14394TIP3   OH243126   2.224   6.571   8.029
14394TIP3    H143127   2.279   6.517   8.089
14394TIP3    H243128   2.279   6.651   8.022
14395TIP3   OH243129   3.086   7.529   7.724
14395TIP3    H143130   3.130   7.471   7.658
14395TIP3    H243131   3.115   7.485   7.806
14396TIP3   OH243132   3.020   6.971   8.044
14396TIP3    H143133   3.067   6.898   8.000
14396TIP3    H243134   3.097   7.020   8.078
14397TIP3   OH243135   3.998   6.329   8.065
14397TIP3    H143136   4.029   6.412   8.108
14397TIP3    H243137   4.024   6.345   7.973
14398TIP3   OH243138   3.394   6.515   8.101
14398TIP3    H143139   3.441   6.431   8.119
14398TIP3    H243140   3.364   6.499   8.009
14399TIP3   OH243141   2.739   6.169   8.061
14399TIP3    H143142   2.719   6.241   7.998
14399TIP3    H243143   2.692   6.095   8.016
14400TIP3   OH243144   3.432   6.266   7.683
14400TIP3    H143145   3.503   6.251   7.749
14400TIP3    H243146   3.485   6.299   7.608
14401TIP3   OH243147   2.386   6.390   8.168
14401TIP3    H143148   2.467   6.354   8.209
14401TIP3    H243149   2.387   6.339   8.084
14402TIP3   OH243150   2.809   6.561   7.974
14402TIP3    H143151   2.905   6.540   7.978
14402TIP3    H243152   2.771   6.479   7.935
14403TIP3   OH243153   4.074   6.536   8.238
14403TIP3    H143154   3.989   6.584   8.222
14403TIP3    H243155   4.105   6.580   8.319
14404TIP3   OH243156   2.746   6.147   8.490
14404TIP3    H143157   2.679   6.187   8.431
14404TIP3    H243158   2.701   6.142   8.575
14405TIP3   OH243159   3.080   7.005   7.502
14405TIP3    H143160   3.036   6.989   7.417
14405TIP3    H243161   3.034   7.088   7.529
14406TIP3   OH243162   3.636   6.271   7.861
14406TIP3    H143163   3.635   6.218   7.941
14406TIP3    H243164   3.690   6.348   7.888
14407TIP3   OH243165   2.607   6.263   8.281
14407TIP3    H143166   2.669   6.336   8.301
14407TIP3    H243167   2.653   6.222   8.204
14408TIP3   OH243168   2.056   6.810   7.622
14408TIP3    H143169   2.027   6.836   7.532
14408TIP3    H243170   2.107   6.887   7.653
14409TIP3   OH243171   3.516   7.318   7.847
14409TIP3    H143172   3.428   7.304   7.889
14409TIP3    H243173   3.503   7.407   7.807
14410TIP3   OH243174   3.791   6.228   8.229
14410TIP3    H143175   3.705   6.256   8.193
14410TIP3    H243176   3.854   6.261   8.162
14411TIP3   OH243177   3.089   5.867   8.212
14411TIP3    H143178   3.074   5.772   8.230
14411TIP3    H243179   3.011   5.906   8.257
14412TIP3   OH243180   3.207   7.375   7.534
14412TIP3    H143181   3.254   7.291   7.515
14412TIP3    H243182   3.271   7.439   7.494
14413TIP3   OH243183   3.348   7.158   7.447
14413TIP3    H143184   3.307   7.078   7.410
14413TIP3    H243185   3.385   7.123   7.531
14414TIP3   OH243186   3.722   7.249   8.167
14414TIP3    H143187   3.715   7.157   8.134
14414TIP3    H243188   3.740   7.297   8.083
14415TIP3   OH243189   3.019   6.637   7.470
14415TIP3    H143190   2.939   6.689   7.449
14415TIP3    H243191   3.064   6.633   7.383
14416TIP3   OH243192   2.976   6.424   7.181
14416TIP3    H143193   3.043   6.476   7.229
14416TIP3    H243194   3.034   6.361   7.134
14417TIP3   OH243195   3.929   6.880   8.056
14417TIP3    H143196   3.843   6.927   8.063
14417TIP3    H243197   3.953   6.903   7.963
14418TIP3   OH243198   3.366   6.721   7.438
14418TIP3    H143199   3.311   6.744   7.516
14418TIP3    H243200   3.450   6.696   7.481
14419TIP3   OH243201   3.594   6.728   8.334
14419TIP3    H143202   3.608   6.807   8.392
14419TIP3    H243203   3.516   6.757   8.284
14420TIP3   OH243204   2.603   6.710   7.854
14420TIP3    H143205   2.557   6.655   7.786
14420TIP3    H243206   2.676   6.651   7.883
14421TIP3   OH243207   2.778   7.089   8.036
14421TIP3    H143208   2.723   7.032   7.981
14421TIP3    H243209   2.866   7.047   8.026
14422TIP3   OH243210   2.752   6.692   8.204
14422TIP3    H143211   2.772   6.653   8.116
14422TIP3    H243212   2.837   6.735   8.226
14423TIP3   OH243213   3.272   7.292   7.963
14423TIP3    H143214   3.276   7.351   8.040
14423TIP3    H243215   3.255   7.205   8.004
14424TIP3   OH243216   3.204   6.579   7.265
14424TIP3    H143217   3.263   6.639   7.315
14424TIP3    H243218   3.230   6.599   7.172
14425TIP3   OH243219   2.954   7.248   7.538
14425TIP3    H143220   3.031   7.306   7.555
14425TIP3    H243221   2.887   7.310   7.505
14426TIP3   OH243222   3.722   5.817   7.315
14426TIP3    H143223   3.640   5.839   7.364
14426TIP3    H243224   3.736   5.899   7.264
14427TIP3   OH243225   2.468   6.558   7.658
14427TIP3    H143226   2.400   6.605   7.605
14427TIP3    H243227   2.425   6.473   7.673
14428TIP3   OH243228   3.522   7.183   6.865
14428TIP3    H143229   3.531   7.279   6.848
14428TIP3    H243230   3.614   7.153   6.851
14429TIP3   OH243231   2.843   7.509   7.329
14429TIP3    H143232   2.796   7.473   7.250
14429TIP3    H243233   2.783   7.578   7.359
14430TIP3   OH243234   3.031   7.403   6.982
14430TIP3    H143235   3.089   7.333   6.946
14430TIP3    H243236   3.068   7.413   7.073
14431TIP3   OH243237   3.093   7.446   7.250
14431TIP3    H143238   3.004   7.463   7.288
14431TIP3    H243239   3.137   7.403   7.325
14432TIP3   OH243240   3.874   6.717   8.521
14432TIP3    H143241   3.786   6.746   8.495
14432TIP3    H243242   3.873   6.621   8.503
14433TIP3   OH243243   2.851   5.944   8.333
14433TIP3    H143244   2.761   5.920   8.304
14433TIP3    H243245   2.830   6.027   8.380
14434TIP3   OH243246   3.386   6.075   8.528
14434TIP3    H143247   3.459   6.034   8.579
14434TIP3    H243248   3.306   6.043   8.576
14435TIP3   OH243249   3.615   6.486   8.462
14435TIP3    H143250   3.573   6.505   8.548
14435TIP3    H243251   3.602   6.570   8.413
14436TIP3   OH243252   3.283   6.622   7.011
14436TIP3    H143253   3.247   6.599   6.924
14436TIP3    H243254   3.367   6.664   6.986
14437TIP3   OH243255   2.993   5.997   7.314
14437TIP3    H143256   2.958   5.993   7.405
14437TIP3    H243257   2.954   5.915   7.277
14438TIP3   OH243258   2.778   6.464   8.356
14438TIP3    H143259   2.784   6.498   8.446
14438TIP3    H243260   2.766   6.546   8.303
14439TIP3   OH243261   2.665   6.351   7.874
14439TIP3    H143262   2.571   6.327   7.891
14439TIP3    H243263   2.677   6.311   7.785
14440TIP3   OH243264   3.156   6.437   7.605
14440TIP3    H143265   3.105   6.508   7.560
14440TIP3    H243266   3.211   6.403   7.532
14441TIP3   OH243267   3.309   6.464   7.842
14441TIP3    H143268   3.249   6.492   7.770
14441TIP3    H243269   3.347   6.384   7.797
14442TIP3   OH243270   2.651   5.973   7.279
14442TIP3    H143271   2.639   5.972   7.376
14442TIP3    H243272   2.573   6.026   7.252
14443TIP3   OH243273   2.204   6.040   8.143
14443TIP3    H143274   2.284   6.060   8.195
14443TIP3    H243275   2.239   6.008   8.058
14444TIP3   OH243276   2.159   5.995   7.670
14444TIP3    H143277   2.204   6.031   7.590
14444TIP3    H243278   2.099   6.069   7.689
14445TIP3   OH243279   3.304   6.709   8.264
14445TIP3    H143280   3.346   6.644   8.202
14445TIP3    H243281   3.279   6.648   8.336
14446TIP3   OH243282   2.998   6.175   7.935
14446TIP3    H143283   2.917   6.171   7.990
14446TIP3    H243284   3.069   6.165   8.001
14447TIP3   OH243285   2.427   6.230   7.946
14447TIP3    H143286   2.332   6.236   7.917
14447TIP3    H243287   2.451   6.140   7.918
14448TIP3   OH243288   2.691   6.225   7.634
14448TIP3    H143289   2.785   6.240   7.610
14448TIP3    H243290   2.644   6.247   7.550
14449TIP3   OH243291   3.482   6.254   8.146
14449TIP3    H143292   3.440   6.265   8.233
14449TIP3    H243293   3.421   6.191   8.103
14450TIP3   OH243294   2.542   6.259   7.409
14450TIP3    H143295   2.472   6.214   7.359
14450TIP3    H243296   2.594   6.298   7.335
14451TIP3   OH243297   3.077   6.501   8.031
14451TIP3    H143298   3.149   6.463   7.978
14451TIP3    H243299   3.085   6.453   8.115
14452TIP3   OH243300   2.595   5.988   7.913
14452TIP3    H143301   2.560   5.910   7.961
14452TIP3    H243302   2.639   5.947   7.838
14453TIP3   OH243303   3.054   6.397   8.313
14453TIP3    H143304   2.965   6.433   8.325
14453TIP3    H243305   3.110   6.456   8.368
14454TIP3   OH243306   2.789   6.785   7.413
14454TIP3    H143307   2.715   6.722   7.403
14454TIP3    H243308   2.778   6.812   7.508
14455TIP3   OH243309   3.690   7.011   8.037
14455TIP3    H143310   3.709   7.063   7.956
14455TIP3    H243311   3.602   6.972   8.015
14456TIP3   OH243312   3.246   6.098   7.288
14456TIP3    H143313   3.149   6.079   7.293
14456TIP3    H243314   3.252   6.193   7.309
14457TIP3   OH243315   3.313   6.351   7.388
14457TIP3    H143316   3.410   6.357   7.400
14457TIP3    H243317   3.294   6.431   7.334
14458TIP3   OH243318   2.471   6.751   8.089
14458TIP3    H143319   2.506   6.766   7.999
14458TIP3    H243320   2.539   6.694   8.126
14459TIP3   OH243321   2.934   6.939   7.241
14459TIP3    H143322   2.885   7.024   7.245
14459TIP3    H243323   2.879   6.883   7.300
14460TIP3   OH243324   3.754   6.444   7.220
14460TIP3    H143325   3.692   6.399   7.157
14460TIP3    H243326   3.751   6.533   7.179
14461TIP3   OH243327   3.976   7.249   8.276
14461TIP3    H143328   3.885   7.261   8.243
14461TIP3    H243329   4.024   7.234   8.192
14462TIP3   OH243330   3.463   7.260   7.131
14462TIP3    H143331   3.430   7.192   7.192
14462TIP3    H243332   3.471   7.212   7.046
14463TIP3   OH243333   3.451   6.887   7.962
14463TIP3    H143334   3.357   6.860   7.970
14463TIP3    H243335   3.487   6.808   7.916
14464TIP3   OH243336   2.575   7.061   7.668
14464TIP3    H143337   2.612   7.140   7.713
14464TIP3    H243338   2.484   7.061   7.701
14465TIP3   OH243339   2.149   6.419   7.424
14465TIP3    H143340   2.194   6.504   7.446
14465TIP3    H243341   2.071   6.423   7.484
14466TIP3   OH243342   2.743   6.853   7.667
14466TIP3    H143343   2.690   6.935   7.662
14466TIP3    H243344   2.699   6.809   7.742
14467TIP3   OH243345   3.261   7.075   8.128
14467TIP3    H143346   3.268   7.131   8.208
14467TIP3    H243347   3.344   7.024   8.132
14468TIP3   OH243348   3.216   6.991   7.029
14468TIP3    H143349   3.269   6.964   7.108
14468TIP3    H243350   3.128   6.960   7.056
14469TIP3   OH243351   3.555   7.457   6.844
14469TIP3    H143352   3.588   7.530   6.790
14469TIP3    H243353   3.475   7.500   6.881
14470TIP3   OH243354   3.376   6.920   7.243
14470TIP3    H143355   3.365   6.854   7.314
14470TIP3    H243356   3.473   6.916   7.231
14471TIP3   OH243357   2.576   6.969   7.030
14471TIP3    H143358   2.589   6.876   7.003
14471TIP3    H243359   2.559   6.958   7.126
14472TIP3   OH243360   2.521   6.977   7.303
14472TIP3    H143361   2.589   6.949   7.366
14472TIP3    H243362   2.525   7.074   7.313
14473TIP3   OH243363   2.260   6.662   7.505
14473TIP3    H143364   2.193   6.705   7.562
14473TIP3    H243365   2.275   6.731   7.438
14474TIP3   OH243366   3.400   6.320   8.408
14474TIP3    H143367   3.492   6.349   8.426
14474TIP3    H243368   3.396   6.233   8.454
14475TIP3   OH243369   3.290   6.050   7.567
14475TIP3    H143370   3.277   6.070   7.472
14475TIP3    H243371   3.330   6.133   7.600
14476TIP3   OH243372   2.790   7.168   7.249
14476TIP3    H143373   2.704   7.192   7.286
14476TIP3    H243374   2.802   7.238   7.184
14477TIP3   OH243375   2.976   6.235   7.665
14477TIP3    H143376   3.040   6.307   7.647
14477TIP3    H243377   2.984   6.226   7.762
14478TIP3   OH243378   3.233   6.546   8.471
14478TIP3    H143379   3.272   6.605   8.538
14478TIP3    H243380   3.296   6.470   8.468
14479TIP3   OH243381   3.120   5.954   7.764
14479TIP3    H143382   3.113   6.033   7.821
14479TIP3    H243383   3.182   5.987   7.695
14480TIP3   OH243384   2.536   7.251   7.320
14480TIP3    H143385   2.506   7.315   7.251
14480TIP3    H243386   2.534   7.308   7.398
14481TIP3   OH243387   2.633   5.960   7.556
14481TIP3    H143388   2.632   6.051   7.592
14481TIP3    H243389   2.730   5.942   7.562
14482TIP3   OH243390   3.884   6.445   8.457
14482TIP3    H143391   3.786   6.439   8.456
14482TIP3    H243392   3.905   6.410   8.369
14483TIP3   OH243393   3.538   6.646   7.841
14483TIP3    H143394   3.463   6.586   7.851
14483TIP3    H243395   3.610   6.598   7.888
14484TIP3   OH243396   2.260   6.871   7.311
14484TIP3    H143397   2.334   6.935   7.318
14484TIP3    H243398   2.299   6.812   7.242
14485TIP3   OH243399   2.192   6.148   7.447
14485TIP3    H143400   2.196   6.245   7.443
14485TIP3    H243401   2.117   6.129   7.389
14486TIP3   OH243402   3.517   7.581   7.772
14486TIP3    H143403   3.461   7.641   7.721
14486TIP3    H243404   3.603   7.624   7.759
14487TIP3   OH243405   2.577   5.882   8.312
14487TIP3    H143406   2.551   5.848   8.223
14487TIP3    H243407   2.569   5.801   8.366
14488TIP3   OH243408   2.742   7.168   6.939
14488TIP3    H143409   2.687   7.096   6.977
14488TIP3    H243410   2.818   7.117   6.905
14489TIP3   OH243411   3.178   7.208   6.854
14489TIP3    H143412   3.216   7.141   6.914
14489TIP3    H243413   3.235   7.202   6.775
14490TIP3   OH243414   2.389   6.684   7.165
14490TIP3    H143415   2.447   6.654   7.237
14490TIP3    H243416   2.454   6.690   7.092
14491TIP3   OH243417   2.904   6.887   6.972
14491TIP3    H143418   2.905   6.898   7.069
14491TIP3    H243419   2.904   6.789   6.965
14492TIP3   OH243420   3.510   7.095   8.306
14492TIP3    H143421   3.585   7.149   8.276
14492TIP3    H243422   3.445   7.163   8.332
14493TIP3   OH243423   2.591   6.593   7.382
14493TIP3    H143424   2.567   6.552   7.466
14493TIP3    H243425   2.631   6.518   7.333
14494TIP3   OH243426   2.698   6.388   7.224
14494TIP3    H143427   2.673   6.395   7.129
14494TIP3    H243428   2.796   6.390   7.216
14495TIP3   OH243429   3.516   6.715   6.892
14495TIP3    H143430   3.497   6.670   6.806
14495TIP3    H243431   3.482   6.805   6.870
14496TIP3   OH243432   2.929   6.440   8.679
14496TIP3    H143433   2.956   6.347   8.676
14496TIP3    H243434   3.011   6.485   8.655
14497TIP3   OH243435   3.009   6.211   8.527
14497TIP3    H143436   3.036   6.258   8.446
14497TIP3    H243437   2.914   6.195   8.511
14498TIP3   OH243438   2.996   6.770   8.359
14498TIP3    H143439   3.089   6.743   8.360
14498TIP3    H243440   3.003   6.866   8.367
14499TIP3   OH243441   3.643   6.935   8.496
14499TIP3    H143442   3.597   7.007   8.449
14499TIP3    H243443   3.735   6.968   8.489
14500TIP3   OH243444   3.142   5.983   8.613
14500TIP3    H143445   3.094   6.066   8.595
14500TIP3    H243446   3.069   5.919   8.612
14501TIP3   OH243447   3.496   6.450   8.720
14501TIP3    H143448   3.415   6.418   8.763
14501TIP3    H243449   3.555   6.375   8.734
14502TIP3   OH243450   2.511   7.460   7.139
14502TIP3    H143451   2.603   7.443   7.112
14502TIP3    H243452   2.477   7.501   7.057
14503TIP3   OH243453   1.997   6.822   7.351
14503TIP3    H143454   2.090   6.844   7.328
14503TIP3    H243455   1.985   6.736   7.305
14504TIP3   OH243456   3.747   7.729   7.752
14504TIP3    H143457   3.812   7.767   7.815
14504TIP3    H243458   3.802   7.720   7.673
14505TIP3   OH243459   3.654   6.901   7.222
14505TIP3    H143460   3.721   6.966   7.191
14505TIP3    H243461   3.699   6.864   7.301
14506TIP3   OH243462   3.782   6.770   7.427
14506TIP3    H143463   3.715   6.728   7.485
14506TIP3    H243464   3.848   6.804   7.491
14507TIP3   OH243465   3.836   7.162   7.853
14507TIP3    H143466   3.887   7.092   7.807
14507TIP3    H243467   3.821   7.227   7.783
14508TIP3   OH243468   3.732   7.447   7.965
14508TIP3    H143469   3.697   7.538   7.962
14508TIP3    H243470   3.664   7.398   7.915
14509TIP3   OH243471   3.719   6.678   7.071
14509TIP3    H143472   3.647   6.679   7.004
14509TIP3    H243473   3.690   6.753   7.127
14510TIP3   OH243474   3.589   6.351   7.025
14510TIP3    H143475   3.545   6.384   6.946
14510TIP3    H243476   3.567   6.255   7.019
14511TIP3   OH243477   3.594   6.628   7.571
14511TIP3    H143478   3.602   6.532   7.562
14511TIP3    H243479   3.579   6.640   7.667
14512TIP3   OH243480   3.882   7.011   8.381
14512TIP3    H143481   3.960   6.970   8.422
14512TIP3    H243482   3.917   7.099   8.356
14513TIP3   OH243483   4.097   6.866   8.475
14513TIP3    H143484   4.015   6.820   8.507
14513TIP3    H243485   4.155   6.787   8.469
14514TIP3   OH243486   3.533   6.085   7.010
14514TIP3    H143487   3.606   6.051   7.065
14514TIP3    H243488   3.459   6.025   7.029
14515TIP3   OH243489   3.593   6.344   7.464
14515TIP3    H143490   3.633   6.256   7.479
14515TIP3    H243491   3.650   6.376   7.392
14516TIP3   OH243492   3.751   6.514   7.961
14516TIP3    H143493   3.836   6.538   7.918
14516TIP3    H243494   3.768   6.552   8.050
14517TIP3   OH243495   3.827   6.658   8.189
14517TIP3    H143496   3.748   6.689   8.237
14517TIP3    H243497   3.860   6.741   8.150
14518TIP3   OH243498   3.699   6.094   7.504
14518TIP3    H143499   3.748   6.077   7.587
14518TIP3    H243500   3.639   6.017   7.502
14519TIP3   OH243501   2.395   6.091   8.342
14519TIP3    H143502   2.448   6.009   8.342
14519TIP3    H243503   2.464   6.156   8.318
14520TIP3   OH243504   2.217   6.378   8.389
14520TIP3    H143505   2.199   6.296   8.342
14520TIP3    H243506   2.286   6.415   8.329
14521TIP3   OH243507   4.129   6.393   8.566
14521TIP3    H143508   4.037   6.419   8.543
14521TIP3    H243509   4.136   6.309   8.518
14522TIP3   OH243510   3.778   6.024   7.139
14522TIP3    H143511   3.817   5.954   7.082
14522TIP3    H243512   3.845   6.095   7.134
14523TIP3   OH243513   2.185   5.865   7.904
14523TIP3    H143514   2.090   5.853   7.919
14523TIP3    H243515   2.184   5.919   7.822
14524TIP3   OH243516   3.361   7.556   7.405
14524TIP3    H143517   3.400   7.543   7.316
14524TIP3    H243518   3.416   7.627   7.440
14525TIP3   OH243519   4.043   6.151   8.425
14525TIP3    H143520   3.953   6.141   8.389
14525TIP3    H243521   4.077   6.058   8.416
14526TIP3   OH243522   3.246   6.067   8.054
14526TIP3    H143523   3.206   5.994   8.104
14526TIP3    H243524   3.321   6.024   8.008
14527TIP3   OH243525   3.767   5.953   7.959
14527TIP3    H143526   3.804   6.001   7.881
14527TIP3    H243527   3.671   5.968   7.948
14528TIP3   OH243528   3.864   6.047   7.722
14528TIP3    H143529   3.937   5.994   7.683
14528TIP3    H243530   3.898   6.138   7.706
14529TIP3   OH243531   2.496   5.778   8.068
14529TIP3    H143532   2.403   5.744   8.068
14529TIP3    H243533   2.544   5.693   8.063
14530TIP3   OH243534   2.289   5.648   7.719
14530TIP3    H143535   2.317   5.702   7.643
14530TIP3    H243536   2.260   5.716   7.783
14531TIP3   OH243537   2.942   5.809   7.951
14531TIP3    H143538   2.997   5.854   7.884
14531TIP3    H243539   2.977   5.846   8.033
14532TIP3   OH243540   3.482   5.957   7.932
14532TIP3    H143541   3.487   5.916   7.845
14532TIP3    H243542   3.472   5.878   7.990
14533TIP3   OH243543   3.517   5.881   7.496
14533TIP3    H143544   3.430   5.923   7.510
14533TIP3    H243545   3.503   5.795   7.540
14534TIP3   OH243546   2.403   5.803   7.480
14534TIP3    H143547   2.450   5.741   7.421
14534TIP3    H243548   2.477   5.857   7.514
14535TIP3   OH243549   2.910   5.984   7.578
14535TIP3    H143550   2.971   5.936   7.636
14535TIP3    H243551   2.933   6.076   7.603
14536TIP3   OH243552   2.772   7.402   7.076
14536TIP3    H143553   2.861   7.424   7.040
14536TIP3    H243554   2.750   7.327   7.015
14537TIP3   OH243555   3.497   7.527   7.168
14537TIP3    H143556   3.489   7.429   7.160
14537TIP3    H243557   3.447   7.555   7.088
14538TIP3   OH243558   2.082   7.235   7.123
14538TIP3    H143559   2.075   7.254   7.217
14538TIP3    H243560   2.172   7.195   7.115
14539TIP3   OH243561   4.981   7.044   7.125
14539TIP3    H143562   4.950   7.133   7.100
14539TIP3    H243563   4.910   6.990   7.087
14540TIP3   OH243564   4.955   7.036   7.522
14540TIP3    H143565   5.003   6.993   7.595
14540TIP3    H243566   4.921   6.957   7.475
14541TIP3   OH243567   4.277   6.935   7.872
14541TIP3    H143568   4.307   6.863   7.931
14541TIP3    H243569   4.358   6.988   7.868
14542TIP3   OH243570   5.222   7.339   7.195
14542TIP3    H143571   5.206   7.259   7.248
14542TIP3    H243572   5.265   7.395   7.261
14543TIP3   OH243573   4.249   7.348   7.594
14543TIP3    H143574   4.241   7.250   7.588
14543TIP3    H243575   4.344   7.354   7.615
14544TIP3   OH243576   3.960   6.548   7.375
14544TIP3    H143577   3.911   6.630   7.393
14544TIP3    H243578   3.890   6.495   7.332
14545TIP3   OH243579   4.018   6.836   7.556
14545TIP3    H143580   4.067   6.757   7.589
14545TIP3    H243581   4.077   6.867   7.487
14546TIP3   OH243582   4.850   7.800   7.199
14546TIP3    H143583   4.892   7.728   7.148
14546TIP3    H243584   4.897   7.791   7.284
14547TIP3   OH243585   4.770   7.269   7.544
14547TIP3    H143586   4.806   7.183   7.513
14547TIP3    H243587   4.854   7.318   7.553
14548TIP3   OH243588   5.717   6.559   7.488
14548TIP3    H143589   5.790   6.587   7.549
14548TIP3    H243590   5.762   6.570   7.403
14549TIP3   OH243591   5.185   6.777   7.586
14549TIP3    H143592   5.233   6.695   7.608
14549TIP3    H243593   5.159   6.757   7.494
14550TIP3   OH243594   4.534   6.429   7.549
14550TIP3    H143595   4.516   6.501   7.486
14550TIP3    H243596   4.487   6.355   7.506
14551TIP3   OH243597   5.230   6.522   7.172
14551TIP3    H143598   5.301   6.508   7.240
14551TIP3    H243599   5.285   6.555   7.098
14552TIP3   OH243600   4.166   6.629   7.658
14552TIP3    H143601   4.249   6.610   7.705
14552TIP3    H243602   4.180   6.574   7.578
14553TIP3   OH243603   4.607   6.827   7.453
14553TIP3    H143604   4.700   6.801   7.465
14553TIP3    H243605   4.567   6.744   7.420
14554TIP3   OH243606   4.529   6.412   7.985
14554TIP3    H143607   4.469   6.449   7.917
14554TIP3    H243608   4.476   6.430   8.066
14555TIP3   OH243609   4.870   7.262   6.993
14555TIP3    H143610   4.832   7.246   6.906
14555TIP3    H243611   4.825   7.346   7.017
14556TIP3   OH243612   4.636   7.186   7.775
14556TIP3    H143613   4.572   7.249   7.816
14556TIP3    H243614   4.672   7.240   7.701
14557TIP3   OH243615   5.435   6.525   7.350
14557TIP3    H143616   5.432   6.474   7.431
14557TIP3    H243617   5.505   6.590   7.371
14558TIP3   OH243618   4.400   6.526   7.768
14558TIP3    H143619   4.462   6.598   7.793
14558TIP3    H243620   4.450   6.486   7.693
14559TIP3   OH243621   4.446   7.367   7.856
14559TIP3    H143622   4.458   7.464   7.860
14559TIP3    H243623   4.376   7.357   7.924
14560TIP3   OH243624   3.854   7.073   7.112
14560TIP3    H143625   3.814   7.099   7.027
14560TIP3    H243626   3.888   7.158   7.146
14561TIP3   OH243627   5.558   6.464   7.698
14561TIP3    H143628   5.473   6.501   7.670
14561TIP3    H243629   5.619   6.499   7.629
14562TIP3   OH243630   4.880   6.126   7.699
14562TIP3    H143631   4.866   6.031   7.719
14562TIP3    H243632   4.803   6.165   7.746
14563TIP3   OH243633   4.993   7.631   7.038
14563TIP3    H143634   5.043   7.548   7.017
14563TIP3    H243635   5.048   7.693   6.985
14564TIP3   OH243636   5.138   7.420   6.943
14564TIP3    H143637   5.107   7.342   6.896
14564TIP3    H243638   5.171   7.381   7.027
14565TIP3   OH243639   4.816   6.896   6.957
14565TIP3    H143640   4.735   6.947   6.933
14565TIP3    H243641   4.861   6.889   6.871
14566TIP3   OH243642   4.772   6.682   6.668
14566TIP3    H143643   4.840   6.732   6.715
14566TIP3    H243644   4.829   6.617   6.620
14567TIP3   OH243645   5.161   6.979   6.925
14567TIP3    H143646   5.109   7.000   7.006
14567TIP3    H243647   5.246   6.951   6.966
14568TIP3   OH243648   4.395   6.973   7.345
14568TIP3    H143649   4.353   6.915   7.278
14568TIP3    H243650   4.471   6.918   7.374
14569TIP3   OH243651   4.530   7.406   7.489
14569TIP3    H143652   4.497   7.365   7.407
14569TIP3    H243653   4.613   7.356   7.504
14570TIP3   OH243654   4.527   6.944   7.697
14570TIP3    H143655   4.562   6.918   7.609
14570TIP3    H243656   4.573   7.029   7.714
14571TIP3   OH243657   4.998   6.837   6.753
14571TIP3    H143658   5.059   6.896   6.803
14571TIP3    H243659   5.026   6.858   6.660
14572TIP3   OH243660   4.422   7.054   8.124
14572TIP3    H143661   4.418   7.145   8.159
14572TIP3    H243662   4.328   7.026   8.136
14573TIP3   OH243663   4.743   7.509   7.027
14573TIP3    H143664   4.822   7.563   7.044
14573TIP3    H243665   4.684   7.572   6.984
14574TIP3   OH243666   5.518   6.074   6.802
14574TIP3    H143667   5.436   6.095   6.851
14574TIP3    H243668   5.532   6.156   6.750
14575TIP3   OH243669   4.260   6.818   7.150
14575TIP3    H143670   4.191   6.859   7.094
14575TIP3    H243671   4.227   6.728   7.158
14576TIP3   OH243672   5.319   7.440   6.350
14576TIP3    H143673   5.325   7.537   6.336
14576TIP3    H243674   5.411   7.413   6.329
14577TIP3   OH243675   4.065   7.191   8.022
14577TIP3    H143676   3.990   7.171   7.962
14577TIP3    H243677   4.099   7.102   8.045
14578TIP3   OH243678   3.890   7.399   7.679
14578TIP3    H143679   3.986   7.383   7.676
14578TIP3    H243680   3.878   7.447   7.763
14579TIP3   OH243681   4.624   7.754   6.833
14579TIP3    H143682   4.581   7.738   6.747
14579TIP3    H243683   4.596   7.845   6.855
14580TIP3   OH243684   4.063   7.607   7.216
14580TIP3    H143685   4.108   7.598   7.302
14580TIP3    H243686   4.017   7.521   7.209
14581TIP3   OH243687   4.827   7.660   6.465
14581TIP3    H143688   4.887   7.590   6.431
14581TIP3    H243689   4.858   7.668   6.558
14582TIP3   OH243690   4.873   7.704   6.733
14582TIP3    H143691   4.790   7.711   6.785
14582TIP3    H243692   4.937   7.678   6.801
14583TIP3   OH243693   4.247   7.392   8.043
14583TIP3    H143694   4.287   7.373   8.130
14583TIP3    H243695   4.178   7.322   8.037
14584TIP3   OH243696   4.645   6.206   7.831
14584TIP3    H143697   4.557   6.175   7.801
14584TIP3    H243698   4.618   6.286   7.879
14585TIP3   OH243699   5.175   6.321   8.025
14585TIP3    H143700   5.241   6.289   8.089
14585TIP3    H243701   5.090   6.303   8.072
14586TIP3   OH243702   5.081   6.883   6.499
14586TIP3    H143703   5.045   6.856   6.413
14586TIP3    H243704   5.164   6.926   6.472
14587TIP3   OH243705   4.788   6.255   6.801
14587TIP3    H143706   4.754   6.250   6.892
14587TIP3    H243707   4.751   6.172   6.765
14588TIP3   OH243708   4.576   6.721   7.846
14588TIP3    H143709   4.533   6.745   7.930
14588TIP3    H243710   4.561   6.803   7.793
14589TIP3   OH243711   4.460   6.610   7.361
14589TIP3    H143712   4.368   6.582   7.380
14589TIP3    H243713   4.473   6.569   7.273
14590TIP3   OH243714   4.952   6.694   7.091
14590TIP3    H143715   4.902   6.765   7.045
14590TIP3    H243716   5.007   6.659   7.018
14591TIP3   OH243717   5.102   6.718   7.327
14591TIP3    H143718   5.042   6.740   7.253
14591TIP3    H243719   5.144   6.639   7.287
14592TIP3   OH243720   4.391   6.749   8.054
14592TIP3    H143721   4.435   6.810   8.116
14592TIP3    H243722   4.383   6.668   8.108
14593TIP3   OH243723   4.446   6.230   6.765
14593TIP3    H143724   4.436   6.228   6.862
14593TIP3    H243725   4.367   6.282   6.740
14594TIP3   OH243726   3.989   6.270   7.639
14594TIP3    H143727   4.065   6.303   7.691
14594TIP3    H243728   4.030   6.241   7.556
14595TIP3   OH243729   3.955   6.252   7.156
14595TIP3    H143730   4.001   6.288   7.077
14595TIP3    H243731   3.894   6.326   7.174
14596TIP3   OH243732   5.110   6.970   7.766
14596TIP3    H143733   5.152   6.905   7.704
14596TIP3    H243734   5.080   6.908   7.836
14597TIP3   OH243735   4.793   6.433   7.422
14597TIP3    H143736   4.713   6.430   7.478
14597TIP3    H243737   4.865   6.420   7.486
14598TIP3   OH243738   4.222   6.487   7.429
14598TIP3    H143739   4.128   6.493   7.400
14598TIP3    H243740   4.247   6.395   7.406
14599TIP3   OH243741   4.487   6.482   7.121
14599TIP3    H143742   4.581   6.495   7.100
14599TIP3    H243743   4.442   6.503   7.036
14600TIP3   OH243744   5.274   6.514   7.628
14600TIP3    H143745   5.239   6.524   7.719
14600TIP3    H243746   5.211   6.450   7.591
14601TIP3   OH243747   4.337   6.520   6.895
14601TIP3    H143748   4.267   6.472   6.847
14601TIP3    H243749   4.389   6.556   6.821
14602TIP3   OH243750   4.385   7.298   8.274
14602TIP3    H143751   4.474   7.315   8.307
14602TIP3    H243752   4.350   7.237   8.342
14603TIP3   OH243753   4.869   6.757   7.519
14603TIP3    H143754   4.943   6.719   7.469
14603TIP3    H243755   4.874   6.709   7.604
14604TIP3   OH243756   4.390   6.246   7.402
14604TIP3    H143757   4.354   6.168   7.451
14604TIP3    H243758   4.438   6.203   7.330
14605TIP3   OH243759   4.842   6.655   7.801
14605TIP3    H143760   4.752   6.689   7.819
14605TIP3    H243761   4.899   6.712   7.857
14606TIP3   OH243762   4.581   7.047   6.902
14606TIP3    H143763   4.511   6.980   6.891
14606TIP3    H243764   4.562   7.080   6.993
14607TIP3   OH243765   5.041   6.355   6.774
14607TIP3    H143766   4.945   6.336   6.780
14607TIP3    H243767   5.047   6.450   6.796
14608TIP3   OH243768   5.109   6.608   6.875
14608TIP3    H143769   5.206   6.610   6.889
14608TIP3    H243770   5.094   6.687   6.820
14609TIP3   OH243771   4.277   7.072   7.577
14609TIP3    H143772   4.316   7.041   7.493
14609TIP3    H243773   4.318   7.013   7.642
14610TIP3   OH243774   4.730   7.195   6.727
14610TIP3    H143775   4.681   7.281   6.731
14610TIP3    H243776   4.675   7.140   6.787
14611TIP3   OH243777   4.160   6.981   8.189
14611TIP3    H143778   4.155   6.974   8.286
14611TIP3    H243779   4.082   6.929   8.162
14612TIP3   OH243780   5.547   6.698   6.707
14612TIP3    H143781   5.485   6.655   6.644
14612TIP3    H243782   5.548   6.787   6.666
14613TIP3   OH243783   5.253   7.529   6.612
14613TIP3    H143784   5.231   7.462   6.679
14613TIP3    H243785   5.265   7.475   6.532
14614TIP3   OH243786   5.190   7.167   7.431
14614TIP3    H143787   5.114   7.106   7.432
14614TIP3    H243788   5.263   7.106   7.415
14615TIP3   OH243789   4.379   7.376   7.213
14615TIP3    H143790   4.378   7.455   7.155
14615TIP3    H243791   4.286   7.351   7.213
14616TIP3   OH243792   3.944   6.676   6.912
14616TIP3    H143793   3.988   6.760   6.933
14616TIP3    H243794   3.866   6.679   6.972
14617TIP3   OH243795   4.509   7.137   7.146
14617TIP3    H143796   4.479   7.227   7.170
14617TIP3    H243797   4.476   7.085   7.222
14618TIP3   OH243798   4.293   7.614   7.056
14618TIP3    H143799   4.209   7.622   7.103
14618TIP3    H243800   4.325   7.707   7.059
14619TIP3   OH243801   5.041   7.318   7.613
14619TIP3    H143802   5.020   7.235   7.658
14619TIP3    H243803   5.096   7.284   7.539
14620TIP3   OH243804   5.013   7.247   6.517
14620TIP3    H143805   5.067   7.222   6.596
14620TIP3    H243806   4.926   7.214   6.543
14621TIP3   OH243807   5.350   7.717   6.332
14621TIP3    H143808   5.392   7.797   6.293
14621TIP3    H243809   5.268   7.756   6.366
14622TIP3   OH243810   4.368   6.492   8.201
14622TIP3    H143811   4.271   6.493   8.212
14622TIP3    H243812   4.396   6.431   8.271
14623TIP3   OH243813   5.172   7.180   6.733
14623TIP3    H143814   5.161   7.112   6.803
14623TIP3    H243815   5.270   7.175   6.720
14624TIP3   OH243816   4.114   7.593   7.859
14624TIP3    H143817   4.125   7.498   7.848
14624TIP3    H243818   4.179   7.606   7.930
14625TIP3   OH243819   4.373   7.225   6.517
14625TIP3    H143820   4.387   7.132   6.489
14625TIP3    H243821   4.352   7.213   6.612
14626TIP3   OH243822   4.317   7.229   6.790
14626TIP3    H143823   4.395   7.200   6.840
14626TIP3    H243824   4.324   7.327   6.797
14627TIP3   OH243825   4.053   6.920   6.992
14627TIP3    H143826   3.986   6.965   7.048
14627TIP3    H243827   4.067   6.988   6.924
14628TIP3   OH243828   5.204   6.562   7.891
14628TIP3    H143829   5.291   6.582   7.930
14628TIP3    H243830   5.184   6.478   7.937
14629TIP3   OH243831   5.086   6.308   7.054
14629TIP3    H143832   5.075   6.328   6.959
14629TIP3    H243833   5.128   6.390   7.088
14630TIP3   OH243834   4.586   7.424   6.736
14630TIP3    H143835   4.500   7.451   6.773
14630TIP3    H243836   4.603   7.498   6.676
14631TIP3   OH243837   4.770   6.493   7.152
14631TIP3    H143838   4.836   6.563   7.135
14631TIP3    H243839   4.778   6.482   7.249
14632TIP3   OH243840   5.027   6.788   7.959
14632TIP3    H143841   5.021   6.791   8.057
14632TIP3    H243842   5.095   6.719   7.948
14633TIP3   OH243843   4.916   6.210   7.250
14633TIP3    H143844   4.916   6.285   7.311
14633TIP3    H243845   4.978   6.243   7.181
14634TIP3   OH243846   4.333   7.503   6.806
14634TIP3    H143847   4.302   7.573   6.744
14634TIP3    H243848   4.317   7.545   6.893
14635TIP3   OH243849   4.430   6.216   7.041
14635TIP3    H143850   4.429   6.306   7.081
14635TIP3    H243851   4.526   6.197   7.049
14636TIP3   OH243852   5.321   6.914   7.320
14636TIP3    H143853   5.253   6.846   7.335
14636TIP3    H243854   5.398   6.877   7.369
14637TIP3   OH243855   4.051   7.127   6.795
14637TIP3    H143856   4.124   7.190   6.804
14637TIP3    H243857   4.091   7.067   6.729
14638TIP3   OH243858   3.989   6.405   6.932
14638TIP3    H143859   3.991   6.503   6.929
14638TIP3    H243860   3.911   6.385   6.880
14639TIP3   OH243861   4.379   6.126   7.801
14639TIP3    H143862   4.350   6.092   7.714
14639TIP3    H243863   4.369   6.048   7.859
14640TIP3   OH243864   3.919   7.352   7.181
14640TIP3    H143865   3.851   7.375   7.245
14640TIP3    H243866   3.882   7.391   7.098
14641TIP3   OH243867   4.538   7.426   6.427
14641TIP3    H143868   4.483   7.354   6.465
14641TIP3    H243869   4.614   7.374   6.394
14642TIP3   OH243870   4.975   7.464   6.341
14642TIP3    H143871   5.013   7.399   6.403
14642TIP3    H243872   5.034   7.458   6.264
14643TIP3   OH243873   4.185   6.941   6.652
14643TIP3    H143874   4.242   6.909   6.724
14643TIP3    H243875   4.251   6.946   6.579
14644TIP3   OH243876   4.699   7.143   6.458
14644TIP3    H143877   4.701   7.154   6.555
14644TIP3    H243878   4.701   7.045   6.451
14645TIP3   OH243879   4.371   7.056   8.451
14645TIP3    H143880   4.423   6.984   8.414
14645TIP3    H243881   4.324   7.011   8.522
14646TIP3   OH243882   4.389   6.849   6.869
14646TIP3    H143883   4.364   6.806   6.952
14646TIP3    H243884   4.428   6.775   6.818
14647TIP3   OH243885   4.653   6.900   8.090
14647TIP3    H143886   4.584   6.969   8.095
14647TIP3    H243887   4.720   6.946   8.034
14648TIP3   OH243888   4.494   6.646   6.710
14648TIP3    H143889   4.470   6.651   6.615
14648TIP3    H243890   4.592   6.646   6.703
14649TIP3   OH243891   5.323   6.979   6.370
14649TIP3    H143892   5.299   6.928   6.291
14649TIP3    H243893   5.279   7.064   6.349
14650TIP3   OH243894   4.767   6.695   8.228
14650TIP3    H143895   4.774   6.618   8.168
14650TIP3    H243896   4.727   6.763   8.169
14651TIP3   OH243897   4.787   6.489   8.033
14651TIP3    H143898   4.815   6.528   7.948
14651TIP3    H243899   4.694   6.465   8.013
14652TIP3   OH243900   4.812   7.026   7.910
14652TIP3    H143901   4.883   7.015   7.847
14652TIP3    H243902   4.752   7.090   7.865
14653TIP3   OH243903   4.641   6.825   8.441
14653TIP3    H143904   4.587   6.749   8.467
14653TIP3    H243905   4.690   6.786   8.366
14654TIP3   OH243906   4.921   6.256   8.118
14654TIP3    H143907   4.870   6.335   8.089
14654TIP3    H243908   4.856   6.184   8.101
14655TIP3   OH243909   5.037   6.766   8.231
14655TIP3    H143910   5.074   6.764   8.320
14655TIP3    H243911   4.945   6.736   8.247
14656TIP3   OH243912   4.500   6.592   8.506
14656TIP3    H143913   4.503   6.504   8.462
14656TIP3    H243914   4.540   6.570   8.591
14657TIP3   OH243915   5.002   6.248   8.388
14657TIP3    H143916   5.076   6.186   8.374
14657TIP3    H243917   4.970   6.259   8.296
14658TIP3   OH243918   4.303   7.711   6.620
14658TIP3    H143919   4.398   7.698   6.601
14658TIP3    H243920   4.276   7.757   6.539
14659TIP3   OH243921   3.781   7.087   6.832
14659TIP3    H143922   3.876   7.107   6.816
14659TIP3    H243923   3.773   6.998   6.791
14660TIP3   OH243924   3.696   7.703   7.250
14660TIP3    H143925   3.631   7.641   7.210
14660TIP3    H243926   3.739   7.642   7.315
14661TIP3   OH243927   3.826   7.547   7.438
14661TIP3    H143928   3.817   7.473   7.501
14661TIP3    H243929   3.889   7.603   7.487
14662TIP3   OH243930   5.448   7.159   6.709
14662TIP3    H143931   5.518   7.221   6.679
14662TIP3    H243932   5.492   7.121   6.788
14663TIP3   OH243933   5.573   7.030   6.913
14663TIP3    H143934   5.509   6.985   6.972
14663TIP3    H243935   5.642   7.061   6.975
14664TIP3   OH243936   5.518   6.934   6.560
14664TIP3    H143937   5.446   6.935   6.493
14664TIP3    H243938   5.489   7.008   6.617
14665TIP3   OH243939   5.380   6.610   6.512
14665TIP3    H143940   5.345   6.635   6.426
14665TIP3    H243941   5.361   6.513   6.511
14666TIP3   OH243942   5.388   6.884   7.055
14666TIP3    H143943   5.399   6.788   7.050
14666TIP3    H243944   5.371   6.898   7.151
14667TIP3   OH243945   4.015   6.958   7.804
14667TIP3    H143946   4.012   6.921   7.713
14667TIP3    H243947   4.112   6.957   7.821
14668TIP3   OH243948   5.327   6.344   6.500
14668TIP3    H143949   5.403   6.308   6.551
14668TIP3    H243950   5.256   6.281   6.516
14669TIP3   OH243951   5.387   6.599   6.949
14669TIP3    H143952   5.428   6.511   6.964
14669TIP3    H243953   5.446   6.632   6.878
14670TIP3   OH243954   5.537   6.806   7.444
14670TIP3    H143955   5.626   6.817   7.405
14670TIP3    H243956   5.561   6.823   7.537
14671TIP3   OH243957   4.229   6.628   8.464
14671TIP3    H143958   4.326   6.626   8.475
14671TIP3    H243959   4.203   6.549   8.516
14672TIP3   OH243960   5.495   6.351   6.990
14672TIP3    H143961   5.545   6.334   7.073
14672TIP3    H243962   5.435   6.273   6.989
14673TIP3   OH243963   4.195   6.336   7.813
14673TIP3    H143964   4.256   6.260   7.820
14673TIP3    H243965   4.259   6.409   7.802
14674TIP3   OH243966   3.995   6.607   7.881
14674TIP3    H143967   4.047   6.604   7.798
14674TIP3    H243968   4.028   6.689   7.921
14675TIP3   OH243969   5.574   6.281   6.624
14675TIP3    H143970   5.612   6.210   6.568
14675TIP3    H243971   5.642   6.350   6.620
14676TIP3   OH243972   3.983   6.113   7.386
14676TIP3    H143973   3.890   6.106   7.412
14676TIP3    H243974   3.978   6.170   7.306
14677TIP3   OH243975   5.137   7.782   6.868
14677TIP3    H143976   5.191   7.797   6.788
14677TIP3    H243977   5.088   7.866   6.880
14678TIP3   OH243978   4.205   6.195   8.198
14678TIP3    H143979   4.152   6.190   8.279
14678TIP3    H243980   4.138   6.229   8.135
14679TIP3   OH243981   4.450   7.640   7.813
14679TIP3    H143982   4.383   7.710   7.802
14679TIP3    H243983   4.456   7.609   7.722
14680TIP3   OH243984   5.835   6.401   7.882
14680TIP3    H143985   5.740   6.386   7.873
14680TIP3    H243986   5.871   6.313   7.864
14681TIP3   OH243987   4.339   7.832   7.650
14681TIP3    H143988   4.308   7.879   7.730
14681TIP3    H243989   4.326   7.901   7.582
14682TIP3   OH243990   4.006   7.695   7.597
14682TIP3    H143991   4.041   7.683   7.687
14682TIP3    H243992   4.079   7.655   7.545
14683TIP3   OH243993   4.199   7.573   7.449
14683TIP3    H143994   4.217   7.488   7.495
14683TIP3    H243995   4.289   7.604   7.429
14684TIP3   OH243996   4.462   7.671   7.430
14684TIP3    H143997   4.504   7.584   7.445
14684TIP3    H243998   4.452   7.707   7.520
14685TIP3   OH243999   5.037   6.322   7.535
14685TIP3    H144000   5.000   6.248   7.587
14685TIP3    H244001   5.116   6.281   7.494
14686TIP3   OH244002   5.562   6.199   7.439
14686TIP3    H144003   5.603   6.254   7.368
14686TIP3    H244004   5.470   6.228   7.437
14687TIP3   OH244005   5.661   6.306   7.206
14687TIP3    H144006   5.735   6.253   7.170
14687TIP3    H244007   5.696   6.397   7.192
14688TIP3   OH244008   4.291   6.032   7.554
14688TIP3    H144009   4.199   6.000   7.557
14688TIP3    H244010   4.339   5.947   7.550
14689TIP3   OH244011   4.080   5.905   7.205
14689TIP3    H144012   4.111   5.960   7.131
14689TIP3    H244013   4.055   5.972   7.271
14690TIP3   OH244014   4.737   6.066   7.437
14690TIP3    H144015   4.793   6.111   7.371
14690TIP3    H244016   4.770   6.104   7.520
14691TIP3   OH244017   5.273   6.214   7.421
14691TIP3    H144018   5.285   6.174   7.334
14691TIP3    H244019   5.265   6.134   7.478
14692TIP3   OH244020   5.313   6.138   6.983
14692TIP3    H144021   5.226   6.178   6.997
14692TIP3    H244022   5.300   6.051   7.027
14693TIP3   OH244023   3.795   7.478   6.977
14693TIP3    H144024   3.710   7.442   6.946
14693TIP3    H244025   3.785   7.571   6.950
14694TIP3   OH244026   4.199   6.061   6.965
14694TIP3    H144027   4.246   5.998   6.908
14694TIP3    H244028   4.274   6.115   7.000
14695TIP3   OH244029   4.706   6.241   7.065
14695TIP3    H144030   4.767   6.193   7.123
14695TIP3    H244031   4.730   6.333   7.090
14696TIP3   OH244032   4.569   7.660   6.564
14696TIP3    H144033   4.656   7.684   6.527
14696TIP3    H244034   4.547   7.585   6.505
14697TIP3   OH244035   5.298   7.801   6.647
14697TIP3    H144036   5.299   7.702   6.643
14697TIP3    H244037   5.251   7.821   6.564
14698TIP3   OH244038   4.492   6.318   8.443
14698TIP3    H144039   4.453   6.247   8.498
14698TIP3    H244040   4.587   6.307   8.467
14699TIP3   OH244041   4.752   6.292   8.535
14699TIP3    H144042   4.832   6.293   8.480
14699TIP3    H244043   4.784   6.247   8.614
14700TIP3   OH244044   3.875   7.501   6.620
14700TIP3    H144045   3.876   7.510   6.717
14700TIP3    H244046   3.961   7.456   6.603
14701TIP3   OH244047   5.750   6.805   6.862
14701TIP3    H144048   5.702   6.887   6.882
14701TIP3    H244049   5.679   6.753   6.820
14702TIP3   OH244050   5.806   7.085   7.042
14702TIP3    H144051   5.861   7.022   7.094
14702TIP3    H244052   5.866   7.106   6.970
14703TIP3   OH244053   6.300   6.707   7.057
14703TIP3    H144054   6.295   6.770   6.983
14703TIP3    H244055   6.263   6.627   7.015
14704TIP3   OH244056   5.975   6.891   7.145
14704TIP3    H144057   6.063   6.862   7.173
14704TIP3    H244058   5.964   6.831   7.068
14705TIP3   OH244059   5.645   7.319   6.594
14705TIP3    H144060   5.598   7.361   6.521
14705TIP3    H244061   5.677   7.401   6.639
14706TIP3   OH244062   6.578   6.941   6.158
14706TIP3    H144063   6.653   6.985   6.200
14706TIP3    H244064   6.625   6.871   6.109
14707TIP3   OH244065   7.290   6.320   6.241
14707TIP3    H144066   7.214   6.329   6.301
14707TIP3    H244067   7.301   6.413   6.213
14708TIP3   OH244068   6.064   7.066   6.604
14708TIP3    H144069   5.983   7.105   6.565
14708TIP3    H244070   6.031   6.985   6.645
14709TIP3   OH244071   6.888   7.161   5.924
14709TIP3    H144072   6.836   7.121   5.852
14709TIP3    H244073   6.977   7.128   5.902
14710TIP3   OH244074   6.582   6.515   6.281
14710TIP3    H144075   6.554   6.508   6.374
14710TIP3    H244076   6.547   6.430   6.248
14711TIP3   OH244077   6.240   6.860   6.832
14711TIP3    H144078   6.152   6.831   6.865
14711TIP3    H244079   6.244   6.811   6.748
14712TIP3   OH244080   6.241   6.486   6.251
14712TIP3    H144081   6.234   6.482   6.349
14712TIP3    H244082   6.160   6.536   6.229
14713TIP3   OH244083   5.785   6.530   7.120
14713TIP3    H144084   5.861   6.568   7.168
14713TIP3    H244085   5.825   6.494   7.040
14714TIP3   OH244086   5.750   6.510   6.639
14714TIP3    H144087   5.799   6.549   6.564
14714TIP3    H244088   5.689   6.583   6.660
14715TIP3   OH244089   6.009   6.739   6.915
14715TIP3    H144090   5.915   6.740   6.887
14715TIP3    H244091   6.037   6.646   6.901
14716TIP3   OH244092   6.280   6.729   6.599
14716TIP3    H144093   6.374   6.744   6.576
14716TIP3    H244094   6.232   6.755   6.517
14717TIP3   OH244095   6.129   6.780   6.380
14717TIP3    H144096   6.056   6.732   6.336
14717TIP3    H244097   6.181   6.809   6.302
14718TIP3   OH244098   6.184   6.507   6.890
14718TIP3    H144099   6.147   6.430   6.938
14718TIP3    H244100   6.235   6.464   6.820
14719TIP3   OH244101   6.347   7.322   6.400
14719TIP3    H144102   6.290   7.243   6.387
14719TIP3    H244103   6.326   7.346   6.492
14720TIP3   OH244104   6.832   6.628   6.270
14720TIP3    H144105   6.738   6.600   6.266
14720TIP3    H244106   6.833   6.712   6.222
14721TIP3   OH244107   5.711   6.958   6.367
14721TIP3    H144108   5.773   7.023   6.406
14721TIP3    H244109   5.653   6.939   6.443
14722TIP3   OH244110   6.163   7.472   5.982
14722TIP3    H144111   6.182   7.382   5.950
14722TIP3    H244112   6.144   7.454   6.076
14723TIP3   OH244113   6.156   7.464   6.256
14723TIP3    H144114   6.235   7.416   6.289
14723TIP3    H244115   6.185   7.556   6.255
14724TIP3   OH244116   5.845   7.177   6.476
14724TIP3    H144117   5.780   7.221   6.535
14724TIP3    H244118   5.860   7.249   6.412
14725TIP3   OH244119   6.873   6.566   6.535
14725TIP3    H144120   6.867   6.599   6.443
14725TIP3    H244121   6.957   6.605   6.566
14726TIP3   OH244122   6.563   6.748   6.631
14726TIP3    H144123   6.640   6.807   6.622
14726TIP3    H244124   6.540   6.768   6.724
14727TIP3   OH244125   6.719   6.473   6.740
14727TIP3    H144126   6.760   6.532   6.806
14727TIP3    H244127   6.768   6.506   6.660
14728TIP3   OH244128   6.228   6.468   6.526
14728TIP3    H144129   6.226   6.557   6.567
14728TIP3    H244130   6.323   6.449   6.535
14729TIP3   OH244131   5.844   7.388   6.287
14729TIP3    H144132   5.901   7.464   6.304
14729TIP3    H244133   5.898   7.336   6.223
14730TIP3   OH244134   5.783   6.678   6.417
14730TIP3    H144135   5.779   6.772   6.390
14730TIP3    H244136   5.715   6.638   6.362
14731TIP3   OH244137   6.104   6.358   7.288
14731TIP3    H144138   6.123   6.335   7.195
14731TIP3    H244139   6.147   6.287   7.338
14732TIP3   OH244140   5.688   7.576   6.649
14732TIP3    H144141   5.643   7.627   6.719
14732TIP3    H244142   5.737   7.644   6.601
14733TIP3   OH244143   6.334   7.678   5.919
14733TIP3    H144144   6.275   7.603   5.944
14733TIP3    H244145   6.409   7.628   5.881
14734TIP3   OH244146   5.985   7.203   6.144
14734TIP3    H144147   6.041   7.166   6.214
14734TIP3    H244148   6.047   7.202   6.068
14735TIP3   OH244149   6.479   7.391   5.960
14735TIP3    H144150   6.487   7.393   6.056
14735TIP3    H244151   6.489   7.294   5.944
14736TIP3   OH244152   6.193   7.102   6.361
14736TIP3    H144153   6.151   7.068   6.443
14736TIP3    H244154   6.223   7.020   6.317
14737TIP3   OH244155   6.292   6.899   6.194
14737TIP3    H144156   6.266   6.901   6.100
14737TIP3    H244157   6.389   6.900   6.188
14738TIP3   OH244158   5.576   7.348   6.293
14738TIP3    H144159   5.669   7.381   6.296
14738TIP3    H244160   5.590   7.253   6.302
14739TIP3   OH244161   7.099   6.874   6.042
14739TIP3    H144162   7.116   6.895   5.949
14739TIP3    H244163   7.120   6.778   6.041
14740TIP3   OH244164   7.130   6.607   5.998
14740TIP3    H144165   7.212   6.566   6.032
14740TIP3    H244166   7.066   6.535   6.004
14741TIP3   OH244167   5.991   6.605   7.283
14741TIP3    H144168   6.034   6.516   7.287
14741TIP3    H244169   6.046   6.652   7.347
14742TIP3   OH244170   5.794   6.888   7.380
14742TIP3    H144171   5.858   6.871   7.308
14742TIP3    H244172   5.782   6.985   7.375
14743TIP3   OH244173   7.398   6.514   6.051
14743TIP3    H144174   7.444   6.476   5.975
14743TIP3    H244175   7.452   6.590   6.075
14744TIP3   OH244176   5.778   6.368   6.869
14744TIP3    H144177   5.686   6.362   6.897
14744TIP3    H244178   5.772   6.427   6.791
14745TIP3   OH244179   6.089   6.286   7.018
14745TIP3    H144180   5.997   6.256   7.031
14745TIP3    H244181   6.136   6.200   7.019
14746TIP3   OH244182   5.877   6.162   6.693
14746TIP3    H144183   5.906   6.218   6.619
14746TIP3    H244184   5.851   6.228   6.760
14747TIP3   OH244185   6.534   6.316   6.924
14747TIP3    H144186   6.591   6.371   6.869
14747TIP3    H244187   6.521   6.370   7.003
14748TIP3   OH244188   7.080   6.363   6.446
14748TIP3    H144189   7.005   6.422   6.461
14748TIP3    H244190   7.053   6.282   6.494
14749TIP3   OH244191   5.618   7.749   6.410
14749TIP3    H144192   5.532   7.704   6.403
14749TIP3    H244193   5.604   7.803   6.489
14750TIP3   OH244194   5.996   6.321   6.450
14750TIP3    H144195   6.041   6.255   6.394
14750TIP3    H244196   6.072   6.371   6.487
14751TIP3   OH244197   6.506   6.493   6.549
14751TIP3    H144198   6.563   6.444   6.610
14751TIP3    H244199   6.530   6.585   6.574
14752TIP3   OH244200   5.668   7.744   6.115
14752TIP3    H144201   5.659   7.748   6.212
14752TIP3    H244202   5.760   7.709   6.104
14753TIP3   OH244203   2.634   8.236   6.791
14753TIP3    H144204   2.685   8.308   6.832
14753TIP3    H244205   2.701   8.193   6.733
14754TIP3   OH244206   3.365   7.625   6.946
14754TIP3    H144207   3.285   7.642   7.001
14754TIP3    H244208   3.375   7.711   6.901
14755TIP3   OH244209   2.918   8.400   6.645
14755TIP3    H144210   2.887   8.385   6.553
14755TIP3    H244211   2.981   8.473   6.633
14756TIP3   OH244212   2.613   7.826   6.942
14756TIP3    H144213   2.604   7.808   7.036
14756TIP3    H244214   2.577   7.744   6.904
14757TIP3   OH244215   2.290   7.783   6.896
14757TIP3    H144216   2.275   7.800   6.991
14757TIP3    H244217   2.211   7.824   6.857
14758TIP3   OH244218   2.881   7.898   6.921
14758TIP3    H144219   2.783   7.896   6.919
14758TIP3    H244220   2.903   7.988   6.890
14759TIP3   OH244221   2.986   8.147   6.863
14759TIP3    H144222   3.022   8.152   6.953
14759TIP3    H244223   2.944   8.233   6.854
14760TIP3   OH244224   3.380   8.223   6.822
14760TIP3    H144225   3.315   8.189   6.755
14760TIP3    H244226   3.376   8.317   6.797
14761TIP3   OH244227   2.990   7.872   7.172
14761TIP3    H144228   2.955   7.875   7.080
14761TIP3    H244229   2.946   7.950   7.210
14762TIP3   OH244230   3.155   8.544   6.524
14762TIP3    H144231   3.128   8.490   6.446
14762TIP3    H244232   3.150   8.633   6.487
14763TIP3   OH244233   3.355   8.504   6.704
14763TIP3    H144234   3.283   8.484   6.639
14763TIP3    H244235   3.352   8.600   6.698
14764TIP3   OH244236   3.221   8.158   6.622
14764TIP3    H144237   3.149   8.189   6.565
14764TIP3    H244238   3.198   8.063   6.627
14765TIP3   OH244239   3.170   7.892   6.644
14765TIP3    H144240   3.236   7.862   6.709
14765TIP3    H244241   3.091   7.839   6.666
14766TIP3   OH244242   3.268   8.159   7.070
14766TIP3    H144243   3.302   8.073   7.102
14766TIP3    H244244   3.306   8.165   6.981
14767TIP3   OH244245   3.355   7.901   7.129
14767TIP3    H144246   3.383   7.890   7.222
14767TIP3    H244247   3.286   7.832   7.124
14768TIP3   OH244248   3.419   7.836   6.776
14768TIP3    H144249   3.444   7.760   6.719
14768TIP3    H244250   3.490   7.898   6.760
14769TIP3   OH244251   3.421   7.783   7.600
14769TIP3    H144252   3.455   7.821   7.516
14769TIP3    H244253   3.326   7.770   7.577
14770TIP3   OH244254   3.508   7.878   7.359
14770TIP3    H144255   3.582   7.831   7.314
14770TIP3    H244256   3.528   7.971   7.344
14771TIP3   OH244257   3.156   7.749   7.573
14771TIP3    H144258   3.099   7.750   7.496
14771TIP3    H244259   3.119   7.675   7.625
14772TIP3   OH244260   3.177   7.684   7.131
14772TIP3    H144261   3.102   7.745   7.152
14772TIP3    H244262   3.148   7.603   7.177
14773TIP3   OH244263   2.044   7.610   7.091
14773TIP3    H144264   2.076   7.535   7.036
14773TIP3    H244265   2.121   7.623   7.149
14774TIP3   OH244266   3.596   8.352   6.933
14774TIP3    H144267   3.578   8.440   6.975
14774TIP3    H244268   3.522   8.298   6.967
14775TIP3   OH244269   4.171   8.241   7.181
14775TIP3    H144270   4.153   8.312   7.116
14775TIP3    H244271   4.128   8.164   7.136
14776TIP3   OH244272   4.879   8.314   6.778
14776TIP3    H144273   4.929   8.314   6.862
14776TIP3    H244274   4.862   8.408   6.768
14777TIP3   OH244275   4.260   8.616   7.119
14777TIP3    H144276   4.346   8.597   7.080
14777TIP3    H244277   4.201   8.553   7.073
14778TIP3   OH244278   4.037   8.352   7.391
14778TIP3    H144279   4.099   8.426   7.402
14778TIP3    H244280   4.087   8.299   7.326
14779TIP3   OH244281   4.493   7.930   7.311
14779TIP3    H144282   4.499   7.838   7.345
14779TIP3    H244283   4.429   7.969   7.374
14780TIP3   OH244284   4.448   8.688   6.584
14780TIP3    H144285   4.372   8.749   6.571
14780TIP3    H244286   4.501   8.704   6.504
14781TIP3   OH244287   4.411   8.492   6.305
14781TIP3    H144288   4.471   8.539   6.365
14781TIP3    H244289   4.473   8.433   6.258
14782TIP3   OH244290   4.090   8.751   6.906
14782TIP3    H144291   4.015   8.715   6.955
14782TIP3    H244292   4.148   8.780   6.979
14783TIP3   OH244293   4.652   8.656   6.393
14783TIP3    H144294   4.712   8.726   6.421
14783TIP3    H244295   4.665   8.659   6.295
14784TIP3   OH244296   5.139   7.872   6.432
14784TIP3    H144297   5.063   7.897   6.489
14784TIP3    H244298   5.123   7.926   6.353
14785TIP3   OH244299   4.285   8.030   7.468
14785TIP3    H144300   4.192   8.007   7.449
14785TIP3    H244301   4.277   8.118   7.507
14786TIP3   OH244302   4.713   8.667   6.134
14786TIP3    H144303   4.684   8.648   6.043
14786TIP3    H244304   4.759   8.752   6.120
14787TIP3   OH244305   4.428   8.067   6.438
14787TIP3    H144306   4.393   8.062   6.529
14787TIP3    H244307   4.388   7.986   6.401
14788TIP3   OH244308   4.093   8.417   6.987
14788TIP3    H144309   4.004   8.379   6.982
14788TIP3    H244310   4.121   8.400   6.894
14789TIP3   OH244311   4.577   8.488   6.717
14789TIP3    H144312   4.531   8.566   6.677
14789TIP3    H244313   4.638   8.463   6.645
14790TIP3   OH244314   4.081   8.048   6.401
14790TIP3    H144315   4.070   8.045   6.498
14790TIP3    H244316   4.005   8.103   6.375
14791TIP3   OH244317   3.664   8.145   7.225
14791TIP3    H144318   3.725   8.126   7.300
14791TIP3    H244319   3.662   8.060   7.177
14792TIP3   OH244320   3.611   8.082   6.815
14792TIP3    H144321   3.631   8.077   6.719
14792TIP3    H244322   3.518   8.117   6.813
14793TIP3   OH244323   4.423   8.267   7.063
14793TIP3    H144324   4.344   8.251   7.119
14793TIP3    H244325   4.492   8.221   7.115
14794TIP3   OH244326   3.853   8.275   6.971
14794TIP3    H144327   3.788   8.295   7.041
14794TIP3    H244328   3.901   8.198   7.009
14795TIP3   OH244329   4.135   8.310   6.724
14795TIP3    H144330   4.230   8.307   6.749
14795TIP3    H244331   4.141   8.338   6.632
14796TIP3   OH244332   4.027   8.055   7.038
14796TIP3    H144333   3.989   7.982   7.092
14796TIP3    H244334   4.086   8.006   6.979
14797TIP3   OH244335   4.223   8.846   6.549
14797TIP3    H144336   4.143   8.794   6.527
14797TIP3    H244337   4.198   8.888   6.633
14798TIP3   OH244338   4.678   8.168   6.405
14798TIP3    H144339   4.582   8.149   6.412
14798TIP3    H244340   4.685   8.263   6.429
14799TIP3   OH244341   4.743   8.418   6.502
14799TIP3    H144342   4.841   8.413   6.503
14799TIP3    H244343   4.727   8.502   6.455
14800TIP3   OH244344   4.324   9.017   6.360
14800TIP3    H144345   4.294   9.093   6.414
14800TIP3    H244346   4.299   8.945   6.420
14801TIP3   OH244347   5.200   8.432   6.302
14801TIP3    H144348   5.118   8.434   6.247
14801TIP3    H244349   5.221   8.528   6.297
14802TIP3   OH244350   3.587   8.494   6.545
14802TIP3    H144351   3.629   8.581   6.563
14802TIP3    H244352   3.504   8.503   6.596
14803TIP3   OH244353   4.701   8.979   6.158
14803TIP3    H144354   4.752   9.055   6.193
14803TIP3    H244355   4.612   9.020   6.148
14804TIP3   OH244356   3.991   8.986   6.203
14804TIP3    H144357   4.036   8.902   6.180
14804TIP3    H244358   4.038   9.015   6.282
14805TIP3   OH244359   3.691   8.730   6.624
14805TIP3    H144360   3.730   8.766   6.706
14805TIP3    H244361   3.698   8.806   6.563
14806TIP3   OH244362   4.719   8.110   6.681
14806TIP3    H144363   4.705   8.135   6.588
14806TIP3    H244364   4.774   8.185   6.713
14807TIP3   OH244365   4.394   8.305   6.796
14807TIP3    H144366   4.461   8.372   6.768
14807TIP3    H244367   4.411   8.302   6.893
14808TIP3   OH244368   4.552   8.026   6.884
14808TIP3    H144369   4.555   8.103   6.942
14808TIP3    H244370   4.614   8.054   6.813
14809TIP3   OH244371   4.066   8.033   6.679
14809TIP3    H144372   4.077   8.124   6.712
14809TIP3    H244373   4.160   8.003   6.684
14810TIP3   OH244374   3.702   8.959   6.447
14810TIP3    H144375   3.733   9.050   6.429
14810TIP3    H244376   3.749   8.909   6.377
14811TIP3   OH244377   3.656   8.245   6.610
14811TIP3    H144378   3.637   8.334   6.572
14811TIP3    H244379   3.633   8.190   6.532
14812TIP3   OH244380   4.026   7.931   7.438
14812TIP3    H144381   3.998   7.893   7.352
14812TIP3    H244382   4.016   7.854   7.498
14813TIP3   OH244383   3.814   8.750   6.297
14813TIP3    H144384   3.868   8.717   6.371
14813TIP3    H244385   3.884   8.757   6.228
14814TIP3   OH244386   4.256   8.920   6.101
14814TIP3    H144387   4.285   8.941   6.191
14814TIP3    H244388   4.294   8.831   6.088
14815TIP3   OH244389   4.017   8.666   6.497
14815TIP3    H144390   4.017   8.625   6.584
14815TIP3    H244391   4.057   8.594   6.442
14816TIP3   OH244392   4.138   8.461   6.364
14816TIP3    H144393   4.105   8.452   6.272
14816TIP3    H244394   4.235   8.463   6.347
14817TIP3   OH244395   4.957   8.793   6.020
14817TIP3    H144396   4.928   8.744   5.940
14817TIP3    H244397   4.943   8.885   5.989
14818TIP3   OH244398   3.442   8.866   6.506
14818TIP3    H144399   3.518   8.912   6.464
14818TIP3    H244400   3.424   8.796   6.441
14819TIP3   OH244401   5.180   8.680   6.176
14819TIP3    H144402   5.101   8.689   6.120
14819TIP3    H244403   5.229   8.760   6.148
14820TIP3   OH244404   4.988   8.424   6.135
14820TIP3    H144405   4.949   8.453   6.052
14820TIP3    H244406   4.963   8.329   6.135
14821TIP3   OH244407   4.938   8.161   6.141
14821TIP3    H144408   5.020   8.110   6.154
14821TIP3    H244409   4.868   8.093   6.140
14822TIP3   OH244410   5.026   8.383   6.518
14822TIP3    H144411   5.026   8.347   6.609
14822TIP3    H244412   5.063   8.473   6.530
14823TIP3   OH244413   5.094   8.152   6.643
14823TIP3    H144414   5.131   8.149   6.733
14823TIP3    H244415   5.032   8.076   6.646
14824TIP3   OH244416   3.856   8.143   7.427
14824TIP3    H144417   3.917   8.067   7.437
14824TIP3    H244418   3.921   8.216   7.415
14825TIP3   OH244419   5.192   8.103   6.255
14825TIP3    H144420   5.228   8.022   6.213
14825TIP3    H244421   5.269   8.162   6.238
14826TIP3   OH244422   3.619   7.931   7.041
14826TIP3    H144423   3.524   7.911   7.057
14826TIP3    H244424   3.615   7.986   6.961
14827TIP3   OH244425   4.625   8.124   7.171
14827TIP3    H144426   4.592   8.041   7.212
14827TIP3    H244427   4.710   8.097   7.132
14828TIP3   OH244428   3.928   7.846   7.189
14828TIP3    H144429   3.836   7.812   7.194
14828TIP3    H244430   3.977   7.761   7.185
14829TIP3   OH244431   3.720   7.718   6.846
14829TIP3    H144432   3.751   7.773   6.772
14829TIP3    H244433   3.693   7.783   6.913
14830TIP3   OH244434   4.365   7.886   7.071
14830TIP3    H144435   4.430   7.925   7.010
14830TIP3    H244436   4.406   7.906   7.158
14831TIP3   OH244437   4.964   7.952   6.998
14831TIP3    H144438   4.951   8.044   7.032
14831TIP3    H244439   4.920   7.901   7.069
14832TIP3   OH244440   4.931   7.940   6.614
14832TIP3    H144441   4.846   7.983   6.633
14832TIP3    H244442   4.918   7.853   6.658
14833TIP3   OH244443   3.837   7.880   6.604
14833TIP3    H144444   3.880   7.812   6.548
14833TIP3    H244445   3.916   7.928   6.637
14834TIP3   OH244446   4.343   8.053   6.701
14834TIP3    H144447   4.404   8.003   6.758
14834TIP3    H244448   4.367   8.144   6.728
14835TIP3   OH244449   5.864   8.310   5.908
14835TIP3    H144450   5.843   8.304   6.001
14835TIP3    H244451   5.783   8.351   5.870
14836TIP3   OH244452   5.403   8.273   6.220
14836TIP3    H144453   5.472   8.323   6.174
14836TIP3    H244454   5.350   8.343   6.262
14837TIP3   OH244455   5.366   8.471   5.990
14837TIP3    H144456   5.427   8.532   6.038
14837TIP3    H244457   5.293   8.460   6.053
14838TIP3   OH244458   5.314   8.228   6.493
14838TIP3    H144459   5.324   8.197   6.586
14838TIP3    H244460   5.409   8.241   6.470
14839TIP3   OH244461   5.465   7.980   6.275
14839TIP3    H144462   5.508   8.035   6.208
14839TIP3    H244463   5.468   8.038   6.352
14840TIP3   OH244464   5.634   8.132   6.085
14840TIP3    H144465   5.676   8.065   6.027
14840TIP3    H244466   5.706   8.155   6.144
   8.50000    8.01388    6.94022    0.00000    0.00000   -2.83333    0.00000   -2.83333   -4.00694
