Title
44466
    1GLY      N    1   6.360   4.606   3.691
    1GLY    HT1    2   6.461   4.597   3.715
    1GLY    HT2    3   6.321   4.693   3.734
    1GLY    HT3    4   6.355   4.617   3.587
    1GLY     CA    5   6.289   4.487   3.735
    1GLY    HA1    6   6.288   4.486   3.843
    1GLY    HA2    7   6.340   4.404   3.689
    1GLY      C    8   6.144   4.484   3.689
    1GLY      O    9   6.092   4.584   3.639
    2PRO      N   10   6.064   4.373   3.711
    2PRO     CD   11   6.123   4.252   3.735
    2PRO    HD1   12   6.156   4.248   3.841
    2PRO    HD2   13   6.208   4.231   3.666
    2PRO     CA   14   5.921   4.369   3.679
    2PRO     HA   15   5.908   4.401   3.577
    2PRO     CB   16   5.884   4.222   3.703
    2PRO    HB1   17   5.818   4.184   3.622
    2PRO    HB2   18   5.830   4.210   3.799
    2PRO     CG   19   6.014   4.150   3.711
    2PRO    HG1   20   6.013   4.073   3.792
    2PRO    HG2   21   6.033   4.098   3.615
    2PRO      C   22   5.839   4.461   3.769
    2PRO      O   23   5.883   4.496   3.879
    3GLY      N   24   5.726   4.503   3.712
    3GLY     HN   25   5.696   4.466   3.624
    3GLY     CA   26   5.634   4.587   3.787
    3GLY    HA1   27   5.554   4.614   3.720
    3GLY    HA2   28   5.688   4.672   3.826
    3GLY      C   29   5.570   4.515   3.904
    3GLY      O   30   5.582   4.393   3.917
    4ASP      N   31   5.513   4.596   3.984
    4ASP     HN   32   5.529   4.694   3.988
    4ASP     CA   33   5.433   4.539   4.092
    4ASP     HA   34   5.501   4.474   4.145
    4ASP     CB   35   5.386   4.648   4.188
    4ASP    HB1   36   5.312   4.609   4.261
    4ASP    HB2   37   5.336   4.730   4.131
    4ASP     CG   38   5.499   4.708   4.270
    4ASP    OD1   39   5.604   4.642   4.284
    4ASP    OD2   40   5.482   4.821   4.320
    4ASP      C   41   5.313   4.462   4.036
    4ASP      O   42   5.256   4.501   3.934
    5PRO      N   43   5.273   4.362   4.093
    5PRO     CD   44   5.333   4.311   4.203
    5PRO    HD1   45   5.322   4.382   4.289
    5PRO    HD2   46   5.439   4.286   4.185
    5PRO     CA   47   5.149   4.297   4.049
    5PRO     HA   48   5.165   4.260   3.949
    5PRO     CB   49   5.130   4.185   4.152
    5PRO    HB1   50   5.113   4.087   4.102
    5PRO    HB2   51   5.044   4.204   4.220
    5PRO     CG   52   5.257   4.184   4.232
    5PRO    HG1   53   5.239   4.169   4.340
    5PRO    HG2   54   5.320   4.100   4.196
    5PRO      C   55   5.030   4.391   4.049
    5PRO      O   56   5.029   4.491   4.122
    6GLY      N   57   4.945   4.354   3.949
    6GLY     HN   58   4.954   4.269   3.899
    6GLY     CA   59   4.822   4.432   3.945
    6GLY    HA1   60   4.765   4.395   3.861
    6GLY    HA2   61   4.852   4.535   3.935
    6GLY      C   62   4.737   4.417   4.070
    6GLY      O   63   4.765   4.331   4.154
    7PRO      N   64   4.645   4.487   4.071
    7PRO     CD   65   4.606   4.591   3.972
    7PRO    HD1   66   4.596   4.549   3.869
    7PRO    HD2   67   4.680   4.674   3.975
    7PRO     CA   68   4.547   4.472   4.180
    7PRO     HA   69   4.597   4.467   4.276
    7PRO     CB   70   4.460   4.598   4.167
    7PRO    HB1   71   4.507   4.677   4.230
    7PRO    HB2   72   4.355   4.584   4.201
    7PRO     CG   73   4.473   4.638   4.024
    7PRO    HG1   74   4.392   4.587   3.966
    7PRO    HG2   75   4.458   4.748   4.012
    7PRO      C   76   4.463   4.346   4.166
    7PRO      O   77   4.455   4.288   4.057
    8GLY      N   78   4.402   4.307   4.276
    8GLY     HN   79   4.413   4.356   4.362
    8GLY     CA   80   4.315   4.190   4.272
    8GLY    HA1   81   4.292   4.164   4.374
    8GLY    HA2   82   4.364   4.110   4.219
    8GLY      C   83   4.182   4.217   4.203
    8GLY      O   84   4.150   4.332   4.172
    9ASP      N   85   4.111   4.110   4.182
    9ASP     HN   86   4.146   4.019   4.202
    9ASP     CA   87   3.976   4.116   4.127
    9ASP     HA   88   3.990   4.174   4.038
    9ASP     CB   89   3.926   3.976   4.092
    9ASP    HB1   90   3.817   3.972   4.069
    9ASP    HB2   91   3.943   3.909   4.178
    9ASP     CG   92   3.997   3.917   3.972
    9ASP    OD1   93   4.050   3.993   3.888
    9ASP    OD2   94   3.999   3.792   3.960
    9ASP      C   95   3.880   4.183   4.226
    9ASP      O   96   3.897   4.172   4.347
   10PRO      N   97   3.786   4.239   4.170
   10PRO     CD   98   3.761   4.251   4.040
   10PRO    HD1   99   3.733   4.152   3.996
   10PRO    HD2  100   3.847   4.296   3.984
   10PRO     CA  101   3.685   4.293   4.261
   10PRO     HA  102   3.732   4.363   4.329
   10PRO     CB  103   3.585   4.360   4.167
   10PRO    HB1  104   3.571   4.467   4.193
   10PRO    HB2  105   3.485   4.310   4.168
   10PRO     CG  106   3.645   4.346   4.031
   10PRO    HG1  107   3.570   4.311   3.957
   10PRO    HG2  108   3.683   4.445   3.997
   10PRO      C  109   3.617   4.185   4.345
   10PRO      O  110   3.618   4.068   4.308
   11GLY      N  111   3.575   4.226   4.471
   11GLY     HN  112   3.590   4.319   4.502
   11GLY     CA  113   3.504   4.132   4.556
   11GLY    HA1  114   3.482   4.185   4.647
   11GLY    HA2  115   3.570   4.048   4.568
   11GLY      C  116   3.373   4.085   4.496
   11GLY      O  117   3.329   4.136   4.392
   12PRO      N  118   3.304   3.998   4.552
   12PRO     CD  119   3.352   3.941   4.665
   12PRO    HD1  120   3.354   4.014   4.749
   12PRO    HD2  121   3.451   3.894   4.649
   12PRO     CA  122   3.171   3.953   4.511
   12PRO     HA  123   3.171   3.934   4.404
   12PRO     CB  124   3.149   3.826   4.594
   12PRO    HB1  125   3.167   3.738   4.527
   12PRO    HB2  126   3.047   3.816   4.637
   12PRO     CG  127   3.256   3.831   4.699
   12PRO    HG1  128   3.209   3.852   4.798
   12PRO    HG2  129   3.309   3.733   4.706
   12PRO      C  130   3.062   4.056   4.540
   12PRO      O  131   3.079   4.142   4.626
   13GLY      N  132   2.957   4.057   4.469
   13GLY     HN  133   2.946   3.985   4.401
   13GLY     CA  134   2.841   4.141   4.494
   13GLY    HA1  135   2.770   4.123   4.415
   13GLY    HA2  136   2.874   4.244   4.500
   13GLY      C  137   2.770   4.107   4.624
   13GLY      O  138   2.795   4.002   4.683
   14ASP      N  139   2.695   4.173   4.675
   14ASP     HN  140   2.676   4.261   4.634
   14ASP     CA  141   2.611   4.154   4.793
   14ASP     HA  142   2.679   4.123   4.871
   14ASP     CB  143   2.548   4.286   4.836
   14ASP    HB1  144   2.474   4.268   4.917
   14ASP    HB2  145   2.496   4.334   4.750
   14ASP     CG  146   2.649   4.384   4.893
   14ASP    OD1  147   2.754   4.341   4.944
   14ASP    OD2  148   2.623   4.506   4.886
   14ASP      C  149   2.503   4.049   4.767
   14ASP      O  150   2.453   4.038   4.655
   15PRO      N  151   2.499   3.939   4.857
   15PRO     CD  152   2.575   3.930   4.972
   15PRO    HD1  153   2.543   4.011   5.041
   15PRO    HD2  154   2.683   3.937   4.950
   15PRO     CA  155   2.397   3.834   4.840
   15PRO     HA  156   2.418   3.782   4.747
   15PRO     CB  157   2.412   3.749   4.966
   15PRO    HB1  158   2.412   3.641   4.942
   15PRO    HB2  159   2.329   3.770   5.037
   15PRO     CG  160   2.541   3.795   5.028
   15PRO    HG1  161   2.534   3.797   5.138
   15PRO    HG2  162   2.622   3.724   4.999
   15PRO      C  163   2.256   3.891   4.829
   15PRO    OT1  164   2.241   4.016   4.836
   15PRO    OT2  165   2.161   3.809   4.813
   16LIT    LIT  166   6.558   2.058   0.862
   17LIT    LIT  167   7.495   7.318   3.589
   18LIT    LIT  168   3.009   0.005   6.422
   19LIT    LIT  169   5.057   5.550   1.056
   20LIT    LIT  170   7.011   5.510   5.605
   21LIT    LIT  171   2.484   6.539   1.855
   22LIT    LIT  172   2.959   1.911   4.869
   23LIT    LIT  173   8.367   1.831   5.538
   24LIT    LIT  174   7.653   6.229   4.820
   25LIT    LIT  175   7.757   5.426   5.795
   26LIT    LIT  176   6.540   0.250   6.805
   27LIT    LIT  177   7.082   6.325   2.302
   28LIT    LIT  178   8.420   3.372   3.729
   29LIT    LIT  179   2.076   2.722   1.177
   30LIT    LIT  180   1.288   2.205   4.266
   31LIT    LIT  181   5.632   6.650   1.646
   32LIT    LIT  182   4.536   1.878   6.262
   33LIT    LIT  183   0.796   7.797   3.041
   34LIT    LIT  184   1.498   7.251   4.865
   35LIT    LIT  185   3.093   2.924   5.560
   36LIT    LIT  186   7.969   0.230   6.430
   37LIT    LIT  187   5.634   7.008   5.957
   38LIT    LIT  188   2.069   1.878   3.797
   39LIT    LIT  189   7.306   7.937   0.553
   40LIT    LIT  190   6.775   6.045   3.384
   41LIT    LIT  191   0.412   2.473   2.956
   42LIT    LIT  192   1.468   4.921   5.556
   43LIT    LIT  193   7.565   4.456   4.630
   44LIT    LIT  194   0.087   4.119   4.616
   45LIT    LIT  195   3.951   4.956   6.357
   46LIT    LIT  196   2.108   2.321   3.527
   47LIT    LIT  197   6.081   1.030   2.372
   48LIT    LIT  198   0.088   5.442   3.877
   49LIT    LIT  199   5.786   0.924   5.711
   50LIT    LIT  200   0.122   6.377   3.906
   51LIT    LIT  201   3.739   0.196   1.390
   52LIT    LIT  202   3.350   2.183   3.622
   53LIT    LIT  203   7.628   6.792   1.096
   54LIT    LIT  204   5.839   6.927   2.095
   55LIT    LIT  205   0.815   5.662   2.145
   56LIT    LIT  206   2.686   1.489   5.725
   57LIT    LIT  207   2.452   1.220   2.625
   58LIT    LIT  208   1.081   7.651   0.505
   59LIT    LIT  209   3.216   7.322   2.861
   60LIT    LIT  210   1.164   3.345   5.853
   61CLA    CLA  211   6.242   3.084   6.593
   62CLA    CLA  212   4.257   6.602   0.580
   63CLA    CLA  213   7.478   5.150   5.637
   64CLA    CLA  214   2.592   0.978   2.899
   65CLA    CLA  215   3.111   1.957   1.981
   66CLA    CLA  216   8.329   6.810   2.722
   67CLA    CLA  217   1.801   6.280   5.671
   68CLA    CLA  218   0.322   5.456   3.502
   69CLA    CLA  219   4.086   5.078   4.363
   70CLA    CLA  220   7.324   7.453   3.558
   71CLA    CLA  221   1.510   1.735   4.039
   72CLA    CLA  222   0.756   4.550   2.898
   73CLA    CLA  223   1.628   2.405   3.905
   74CLA    CLA  224   6.473   2.070   1.435
   75CLA    CLA  225   3.687   0.976   1.083
   76CLA    CLA  226   8.479   5.583   4.693
   77CLA    CLA  227   5.454   5.244   5.944
   78CLA    CLA  228   1.935   0.237   0.929
   79CLA    CLA  229   6.879   6.320   2.246
   80CLA    CLA  230   2.653   0.464   5.328
   81CLA    CLA  231   8.239   3.273   5.704
   82CLA    CLA  232   2.532   1.694   6.356
   83CLA    CLA  233   1.342   1.687   2.888
   84CLA    CLA  234   7.355   6.350   5.696
   85CLA    CLA  235   1.007   2.899   2.115
   86CLA    CLA  236   2.263   1.819   5.232
   87CLA    CLA  237   8.195   5.341   3.906
   88CLA    CLA  238   0.288   6.239   3.926
   89CLA    CLA  239   4.069   4.373   6.342
   90CLA    CLA  240   6.125   6.675   1.066
   91CLA    CLA  241   7.698   6.226   4.605
   92CLA    CLA  242   4.664   1.842   6.093
   93CLA    CLA  243   7.594   6.488   3.687
   94CLA    CLA  244   6.486   4.911   5.008
   95CLA    CLA  245   7.343   1.129   3.094
   96CLA    CLA  246   2.901   2.264   3.405
   97CLA    CLA  247   3.182   6.335   2.478
   98CLA    CLA  248   3.243   0.841   1.950
   99CLA    CLA  249   1.089   1.453   6.829
  100CLA    CLA  250   2.991   4.240   6.647
  101CLA    CLA  251   1.080   3.654   1.854
  102CLA    CLA  252   6.500   4.790   3.312
  103TIP3   OH2  253   3.288   0.369   2.254
  103TIP3    H1  254   3.274   0.275   2.264
  103TIP3    H2  255   3.205   0.408   2.283
  104TIP3   OH2  256   2.973   0.710   2.355
  104TIP3    H1  257   2.949   0.727   2.264
  104TIP3    H2  258   3.052   0.762   2.369
  105TIP3   OH2  259   3.275   0.053   2.258
  105TIP3    H1  260   3.183   0.081   2.262
  105TIP3    H2  261   3.286   0.023   2.167
  106TIP3   OH2  262   2.735   0.263   2.512
  106TIP3    H1  263   2.718   0.209   2.589
  106TIP3    H2  264   2.796   0.330   2.543
  107TIP3   OH2  265   3.090   0.487   2.039
  107TIP3    H1  266   3.074   0.434   1.961
  107TIP3    H2  267   3.184   0.479   2.055
  108TIP3   OH2  268   3.156   0.169   2.577
  108TIP3    H1  269   3.082   0.175   2.638
  108TIP3    H2  270   3.195   0.256   2.577
  109TIP3   OH2  271   0.359   7.850   2.420
  109TIP3    H1  272   0.423   7.781   2.406
  109TIP3    H2  273   0.379   7.916   2.353
  110TIP3   OH2  274   0.534   7.645   2.423
  110TIP3    H1  275   0.495   7.568   2.464
  110TIP3    H2  276   0.628   7.635   2.438
  111TIP3   OH2  277   2.554   0.643   2.293
  111TIP3    H1  278   2.589   0.555   2.277
  111TIP3    H2  279   2.613   0.680   2.358
  112TIP3   OH2  280   3.034   0.445   2.346
  112TIP3    H1  281   2.968   0.417   2.283
  112TIP3    H2  282   3.024   0.540   2.350
  113TIP3   OH2  283   1.396   7.829   1.486
  113TIP3    H1  284   1.444   7.813   1.567
  113TIP3    H2  285   1.371   7.741   1.456
  114TIP3   OH2  286   4.503   0.129   1.198
  114TIP3    H1  287   4.527   0.070   1.269
  114TIP3    H2  288   4.530   0.216   1.228
  115TIP3   OH2  289   4.176   0.587   1.176
  115TIP3    H1  290   4.228   0.519   1.134
  115TIP3    H2  291   4.178   0.565   1.269
  116TIP3   OH2  292   4.093   0.044   1.542
  116TIP3    H1  293   4.132  -0.036   1.507
  116TIP3    H2  294   4.166   0.103   1.557
  117TIP3   OH2  295   3.947  -0.028   1.758
  117TIP3    H1  296   3.887   0.036   1.797
  117TIP3    H2  297   3.999   0.022   1.696
  118TIP3   OH2  298   3.758   0.163   1.826
  118TIP3    H1  299   3.753   0.257   1.808
  118TIP3    H2  300   3.693   0.147   1.894
  119TIP3   OH2  301   4.605   0.366   1.323
  119TIP3    H1  302   4.522   0.360   1.370
  119TIP3    H2  303   4.602   0.452   1.280
  120TIP3   OH2  304   4.311   0.400   1.027
  120TIP3    H1  305   4.371   0.328   1.007
  120TIP3    H2  306   4.341   0.473   0.973
  121TIP3   OH2  307   4.831   0.311   1.704
  121TIP3    H1  308   4.827   0.232   1.649
  121TIP3    H2  309   4.811   0.383   1.644
  122TIP3   OH2  310   1.891   7.802   1.845
  122TIP3    H1  311   1.869   7.885   1.888
  122TIP3    H2  312   1.838   7.803   1.765
  123TIP3   OH2  313   4.376   0.362   1.457
  123TIP3    H1  314   4.353   0.446   1.498
  123TIP3    H2  315   4.345   0.296   1.519
  124TIP3   OH2  316   3.974   0.275   2.000
  124TIP3    H1  317   3.921   0.340   2.045
  124TIP3    H2  318   3.913   0.227   1.945
  125TIP3   OH2  319   0.887   7.865   2.087
  125TIP3    H1  320   0.902   7.943   2.141
  125TIP3    H2  321   0.791   7.857   2.083
  126TIP3   OH2  322   4.078   0.264   1.136
  126TIP3    H1  323   4.160   0.311   1.120
  126TIP3    H2  324   4.014   0.305   1.078
  127TIP3   OH2  325   3.774   0.441   2.089
  127TIP3    H1  326   3.741   0.454   2.000
  127TIP3    H2  327   3.697   0.417   2.140
  128TIP3   OH2  328   5.064   0.624   1.722
  128TIP3    H1  329   5.070   0.531   1.740
  128TIP3    H2  330   4.985   0.653   1.767
  129TIP3   OH2  331   4.177   0.408   1.863
  129TIP3    H1  332   4.175   0.500   1.889
  129TIP3    H2  333   4.104   0.368   1.909
  130TIP3   OH2  334   4.222   0.478   0.764
  130TIP3    H1  335   4.142   0.471   0.712
  130TIP3    H2  336   4.270   0.397   0.746
  131TIP3   OH2  337   2.126   7.751   1.989
  131TIP3    H1  338   2.047   7.778   1.943
  131TIP3    H2  339   2.135   7.658   1.969
  132TIP3   OH2  340   3.577   0.154   2.024
  132TIP3    H1  341   3.614   0.154   2.113
  132TIP3    H2  342   3.486   0.126   2.036
  133TIP3   OH2  343   1.873   7.541   1.931
  133TIP3    H1  344   1.870   7.569   2.023
  133TIP3    H2  345   1.876   7.623   1.881
  134TIP3   OH2  346   1.613   7.793   2.139
  134TIP3    H1  347   1.585   7.712   2.182
  134TIP3    H2  348   1.706   7.801   2.160
  135TIP3   OH2  349   1.567   7.759   1.705
  135TIP3    H1  350   1.641   7.718   1.661
  135TIP3    H2  351   1.559   7.712   1.788
  136TIP3   OH2  352   4.766   0.974   1.821
  136TIP3    H1  353   4.759   0.999   1.729
  136TIP3    H2  354   4.841   1.023   1.854
  137TIP3   OH2  355   3.724   0.073   2.256
  137TIP3    H1  356   3.803   0.108   2.296
  137TIP3    H2  357   3.655   0.086   2.322
  138TIP3   OH2  358   1.312   7.429   1.857
  138TIP3    H1  359   1.268   7.448   1.774
  138TIP3    H2  360   1.381   7.495   1.863
  139TIP3   OH2  361   4.805   0.107   1.534
  139TIP3    H1  362   4.846   0.156   1.463
  139TIP3    H2  363   4.714   0.095   1.506
  140TIP3   OH2  364   4.288   0.147   1.880
  140TIP3    H1  365   4.320   0.126   1.968
  140TIP3    H2  366   4.257   0.237   1.886
  141TIP3   OH2  367   1.364   7.896   2.192
  141TIP3    H1  368   1.307   7.854   2.127
  141TIP3    H2  369   1.452   7.872   2.166
  142TIP3   OH2  370   4.451   0.395   1.784
  142TIP3    H1  371   4.356   0.401   1.791
  142TIP3    H2  372   4.484   0.451   1.854
  143TIP3   OH2  373   5.088   0.341   1.775
  143TIP3    H1  374   4.992   0.338   1.770
  143TIP3    H2  375   5.117   0.313   1.688
  144TIP3   OH2  376   1.738   8.009   1.444
  144TIP3    H1  377   1.655   7.985   1.485
  144TIP3    H2  378   1.782   7.925   1.429
  145TIP3   OH2  379   3.974   0.487   1.650
  145TIP3    H1  380   3.996   0.559   1.591
  145TIP3    H2  381   4.057   0.466   1.694
  146TIP3   OH2  382   4.348   0.124   1.618
  146TIP3    H1  383   4.322   0.123   1.710
  146TIP3    H2  384   4.444   0.125   1.621
  147TIP3   OH2  385   4.591   0.661   1.653
  147TIP3    H1  386   4.511   0.609   1.646
  147TIP3    H2  387   4.582   0.728   1.585
  148TIP3   OH2  388   3.453   0.363   1.774
  148TIP3    H1  389   3.440   0.302   1.846
  148TIP3    H2  390   3.457   0.449   1.815
  149TIP3   OH2  391   1.547   7.600   1.930
  149TIP3    H1  392   1.527   7.668   1.994
  149TIP3    H2  393   1.592   7.532   1.982
  150TIP3   OH2  394   4.619   0.632   1.249
  150TIP3    H1  395   4.574   0.681   1.180
  150TIP3    H2  396   4.712   0.651   1.234
  151TIP3   OH2  397   3.385   0.654   2.251
  151TIP3    H1  398   3.473   0.665   2.286
  151TIP3    H2  399   3.373   0.559   2.245
  152TIP3   OH2  400   3.869   0.621   2.282
  152TIP3    H1  401   3.964   0.614   2.282
  152TIP3    H2  402   3.841   0.563   2.210
  153TIP3   OH2  403   4.510   0.535   2.012
  153TIP3    H1  404   4.501   0.469   2.080
  153TIP3    H2  405   4.583   0.590   2.040
  154TIP3   OH2  406   3.509   0.065   2.431
  154TIP3    H1  407   3.526  -0.029   2.435
  154TIP3    H2  408   3.425   0.072   2.386
  155TIP3   OH2  409   4.124   0.159   2.206
  155TIP3    H1  410   4.083   0.181   2.122
  155TIP3    H2  411   4.153   0.068   2.195
  156TIP3   OH2  412   4.613   0.174   1.805
  156TIP3    H1  413   4.691   0.224   1.780
  156TIP3    H2  414   4.542   0.238   1.802
  157TIP3   OH2  415   0.805   7.810   2.431
  157TIP3    H1  416   0.884   7.789   2.381
  157TIP3    H2  417   0.836   7.856   2.509
  158TIP3   OH2  418   1.127   7.734   2.070
  158TIP3    H1  419   1.045   7.782   2.065
  158TIP3    H2  420   1.178   7.764   1.994
  159TIP3   OH2  421   4.493   0.094   2.211
  159TIP3    H1  422   4.564   0.063   2.156
  159TIP3    H2  423   4.481   0.025   2.276
  160TIP3   OH2  424   1.221   7.523   2.194
  160TIP3    H1  425   1.171   7.472   2.131
  160TIP3    H2  426   1.205   7.614   2.168
  161TIP3   OH2  427   1.301   7.835   1.892
  161TIP3    H1  428   1.367   7.812   1.826
  161TIP3    H2  429   1.239   7.891   1.845
  162TIP3   OH2  430   1.865   7.787   2.245
  162TIP3    H1  431   1.897   7.731   2.315
  162TIP3    H2  432   1.941   7.837   2.217
  163TIP3   OH2  433   4.748   0.036   1.996
  163TIP3    H1  434   4.690   0.084   1.938
  163TIP3    H2  435   4.835   0.049   1.959
  164TIP3   OH2  436   1.107   7.628   2.439
  164TIP3    H1  437   1.059   7.546   2.445
  164TIP3    H2  438   1.171   7.613   2.369
  165TIP3   OH2  439   1.506   7.565   2.232
  165TIP3    H1  440   1.540   7.530   2.314
  165TIP3    H2  441   1.412   7.552   2.237
  166TIP3   OH2  442   4.878   0.720   1.228
  166TIP3    H1  443   4.893   0.759   1.315
  166TIP3    H2  444   4.916   0.783   1.167
  167TIP3   OH2  445   4.899   0.747   1.506
  167TIP3    H1  446   4.854   0.664   1.494
  167TIP3    H2  447   4.973   0.727   1.564
  168TIP3   OH2  448   4.946   0.424   2.072
  168TIP3    H1  449   4.874   0.433   2.134
  168TIP3    H2  450   4.988   0.510   2.071
  169TIP3   OH2  451   4.959   0.228   1.348
  169TIP3    H1  452   5.022   0.184   1.291
  169TIP3    H2  453   4.940   0.310   1.303
  170TIP3   OH2  454   4.768   0.500   1.514
  170TIP3    H1  455   4.700   0.548   1.561
  170TIP3    H2  456   4.721   0.456   1.443
  171TIP3   OH2  457   5.004   0.080   1.891
  171TIP3    H1  458   5.075   0.016   1.883
  171TIP3    H2  459   5.027   0.150   1.830
  172TIP3   OH2  460   2.357   7.885   1.928
  172TIP3    H1  461   2.281   7.834   1.956
  172TIP3    H2  462   2.430   7.823   1.930
  173TIP3   OH2  463   0.734   7.429   2.478
  173TIP3    H1  464   0.782   7.404   2.399
  173TIP3    H2  465   0.768   7.371   2.546
  174TIP3   OH2  466   4.472   0.583   0.903
  174TIP3    H1  467   4.543   0.540   0.856
  174TIP3    H2  468   4.506   0.670   0.922
  175TIP3   OH2  469   3.561   0.377   2.256
  175TIP3    H1  470   3.467   0.371   2.239
  175TIP3    H2  471   3.567   0.408   2.347
  176TIP3   OH2  472   3.752   0.432   1.793
  176TIP3    H1  473   3.697   0.503   1.763
  176TIP3    H2  474   3.835   0.445   1.746
  177TIP3   OH2  475   4.176   0.673   1.937
  177TIP3    H1  476   4.214   0.675   2.025
  177TIP3    H2  477   4.237   0.725   1.884
  178TIP3   OH2  478   4.356   0.828   1.803
  178TIP3    H1  479   4.425   0.781   1.755
  178TIP3    H2  480   4.403   0.886   1.862
  179TIP3   OH2  481   3.432   0.640   1.833
  179TIP3    H1  482   3.366   0.675   1.774
  179TIP3    H2  483   3.416   0.684   1.917
  180TIP3   OH2  484   3.661   0.659   1.673
  180TIP3    H1  485   3.579   0.665   1.723
  180TIP3    H2  486   3.641   0.699   1.589
  181TIP3   OH2  487   4.079   0.695   1.482
  181TIP3    H1  488   4.008   0.706   1.419
  181TIP3    H2  489   4.090   0.782   1.521
  182TIP3   OH2  490   4.341   0.631   1.530
  182TIP3    H1  491   4.247   0.647   1.517
  182TIP3    H2  492   4.383   0.705   1.486
  183TIP3   OH2  493   4.548   0.825   1.441
  183TIP3    H1  494   4.529   0.909   1.400
  183TIP3    H2  495   4.569   0.767   1.367
  184TIP3   OH2  496   3.344   0.490   1.562
  184TIP3    H1  497   3.371   0.449   1.644
  184TIP3    H2  498   3.320   0.416   1.505
  185TIP3   OH2  499   4.818   0.704   1.822
  185TIP3    H1  500   4.743   0.673   1.772
  185TIP3    H2  501   4.804   0.799   1.828
  186TIP3   OH2  502   5.546   0.426   1.313
  186TIP3    H1  503   5.534   0.520   1.300
  186TIP3    H2  504   5.482   0.402   1.380
  187TIP3   OH2  505   5.755   0.527   1.497
  187TIP3    H1  506   5.695   0.596   1.525
  187TIP3    H2  507   5.698   0.465   1.451
  188TIP3   OH2  508   5.558   0.715   1.574
  188TIP3    H1  509   5.526   0.717   1.484
  188TIP3    H2  510   5.481   0.691   1.626
  189TIP3   OH2  511   5.157   0.247   1.535
  189TIP3    H1  512   5.084   0.229   1.476
  189TIP3    H2  513   5.183   0.161   1.568
  190TIP3   OH2  514   4.994   0.440   1.180
  190TIP3    H1  515   5.089   0.448   1.176
  190TIP3    H2  516   4.964   0.522   1.218
  191TIP3   OH2  517   5.932   0.724   1.308
  191TIP3    H1  518   5.953   0.811   1.342
  191TIP3    H2  519   5.953   0.664   1.379
  192TIP3   OH2  520   5.354   0.430   1.504
  192TIP3    H1  521   5.408   0.420   1.582
  192TIP3    H2  522   5.285   0.364   1.514
  193TIP3   OH2  523   6.543   1.239   1.330
  193TIP3    H1  524   6.523   1.249   1.237
  193TIP3    H2  525   6.630   1.277   1.340
  194TIP3   OH2  526   5.498   0.378   1.733
  194TIP3    H1  527   5.587   0.375   1.766
  194TIP3    H2  528   5.443   0.360   1.809
  195TIP3   OH2  529   5.229   0.033   1.682
  195TIP3    H1  530   5.294   0.050   1.750
  195TIP3    H2  531   5.219  -0.062   1.683
  196TIP3   OH2  532   5.725   0.793   1.149
  196TIP3    H1  533   5.758   0.848   1.078
  196TIP3    H2  534   5.801   0.778   1.205
  197TIP3   OH2  535   5.210   0.601   1.306
  197TIP3    H1  536   5.257   0.542   1.365
  197TIP3    H2  537   5.221   0.688   1.345
  198TIP3   OH2  538   5.187   0.926   1.721
  198TIP3    H1  539   5.272   0.930   1.765
  198TIP3    H2  540   5.167   0.833   1.715
  199TIP3   OH2  541   5.666   0.876   1.770
  199TIP3    H1  542   5.760   0.865   1.762
  199TIP3    H2  543   5.629   0.825   1.698
  200TIP3   OH2  544   6.263   0.826   1.516
  200TIP3    H1  545   6.262   0.741   1.560
  200TIP3    H2  546   6.355   0.846   1.504
  201TIP3   OH2  547   5.307   0.340   1.934
  201TIP3    H1  548   5.332   0.248   1.930
  201TIP3    H2  549   5.225   0.345   1.886
  202TIP3   OH2  550   5.912   0.419   1.708
  202TIP3    H1  551   5.892   0.461   1.624
  202TIP3    H2  552   5.917   0.326   1.687
  203TIP3   OH2  553   5.405   0.088   1.911
  203TIP3    H1  554   5.419  -0.006   1.903
  203TIP3    H2  555   5.451   0.113   1.991
  204TIP3   OH2  556   4.765   0.724   0.778
  204TIP3    H1  557   4.736   0.668   0.705
  204TIP3    H2  558   4.791   0.662   0.846
  205TIP3   OH2  559   4.897   0.582   0.963
  205TIP3    H1  560   4.899   0.493   0.999
  205TIP3    H2  561   4.943   0.635   1.028
  206TIP3   OH2  562   5.342   0.667   1.741
  206TIP3    H1  563   5.255   0.634   1.720
  206TIP3    H2  564   5.360   0.634   1.829
  207TIP3   OH2  565   5.518   0.700   1.289
  207TIP3    H1  566   5.463   0.769   1.253
  207TIP3    H2  567   5.604   0.715   1.249
  208TIP3   OH2  568   5.971   0.959   1.443
  208TIP3    H1  569   6.015   0.947   1.527
  208TIP3    H2  570   6.032   1.010   1.391
  209TIP3   OH2  571   6.132   1.110   1.284
  209TIP3    H1  572   6.199   1.063   1.235
  209TIP3    H2  573   6.181   1.162   1.348
  210TIP3   OH2  574   5.196   0.940   1.319
  210TIP3    H1  575   5.108   0.968   1.293
  210TIP3    H2  576   5.216   0.992   1.396
  211TIP3   OH2  577   5.431   0.929   1.170
  211TIP3    H1  578   5.345   0.941   1.211
  211TIP3    H2  579   5.420   0.963   1.081
  212TIP3   OH2  580   5.832   0.952   0.950
  212TIP3    H1  581   5.770   1.002   0.899
  212TIP3    H2  582   5.873   1.016   1.008
  213TIP3   OH2  583   5.115   0.741   1.073
  213TIP3    H1  584   5.152   0.709   1.155
  213TIP3    H2  585   5.172   0.704   1.005
  214TIP3   OH2  586   0.816   2.265   2.478
  214TIP3    H1  587   0.800   2.305   2.393
  214TIP3    H2  588   0.892   2.312   2.513
  215TIP3   OH2  589   1.004   1.735   2.753
  215TIP3    H1  590   0.984   1.708   2.842
  215TIP3    H2  591   1.062   1.811   2.762
  216TIP3   OH2  592   2.332   1.688   1.392
  216TIP3    H1  593   2.349   1.656   1.481
  216TIP3    H2  594   2.365   1.778   1.393
  217TIP3   OH2  595   2.047   2.128   1.327
  217TIP3    H1  596   2.100   2.068   1.275
  217TIP3    H2  597   2.057   2.096   1.417
  218TIP3   OH2  598   2.990   0.968   1.690
  218TIP3    H1  599   3.005   1.036   1.756
  218TIP3    H2  600   3.039   0.999   1.614
  219TIP3   OH2  601   3.038   1.177   1.867
  219TIP3    H1  602   2.952   1.216   1.853
  219TIP3    H2  603   3.062   1.203   1.956
  220TIP3   OH2  604   2.434   1.932   1.484
  220TIP3    H1  605   2.347   1.926   1.522
  220TIP3    H2  606   2.438   2.020   1.445
  221TIP3   OH2  607   2.663   1.842   1.835
  221TIP3    H1  608   2.676   1.766   1.777
  221TIP3    H2  609   2.684   1.918   1.780
  222TIP3   OH2  610   2.871   1.462   1.665
  222TIP3    H1  611   2.793   1.515   1.681
  222TIP3    H2  612   2.906   1.495   1.583
  223TIP3   OH2  613   2.566   1.357   1.982
  223TIP3    H1  614   2.566   1.442   2.027
  223TIP3    H2  615   2.480   1.353   1.941
  224TIP3   OH2  616   2.193   1.923   1.603
  224TIP3    H1  617   2.193   2.007   1.650
  224TIP3    H2  618   2.202   1.857   1.672
  225TIP3   OH2  619   1.808   1.836   2.156
  225TIP3    H1  620   1.772   1.906   2.211
  225TIP3    H2  621   1.731   1.794   2.117
  226TIP3   OH2  622   1.613   2.012   2.246
  226TIP3    H1  623   1.596   2.002   2.153
  226TIP3    H2  624   1.530   1.992   2.288
  227TIP3   OH2  625   2.901   2.183   1.856
  227TIP3    H1  626   2.936   2.099   1.884
  227TIP3    H2  627   2.824   2.197   1.911
  228TIP3   OH2  628   2.012   1.968   2.011
  228TIP3    H1  629   2.014   2.058   2.044
  228TIP3    H2  630   1.942   1.925   2.059
  229TIP3   OH2  631   2.794   1.302   2.152
  229TIP3    H1  632   2.724   1.320   2.089
  229TIP3    H2  633   2.817   1.210   2.137
  230TIP3   OH2  634   2.575   1.087   2.065
  230TIP3    H1  635   2.523   1.081   2.144
  230TIP3    H2  636   2.559   1.176   2.032
  231TIP3   OH2  637   2.286   1.312   2.318
  231TIP3    H1  638   2.263   1.235   2.370
  231TIP3    H2  639   2.381   1.310   2.314
  232TIP3   OH2  640   2.317   1.303   1.894
  232TIP3    H1  641   2.330   1.238   1.826
  232TIP3    H2  642   2.257   1.262   1.956
  233TIP3   OH2  643   2.606   2.536   1.972
  233TIP3    H1  644   2.605   2.556   1.878
  233TIP3    H2  645   2.686   2.577   2.005
  234TIP3   OH2  646   1.597   1.636   2.382
  234TIP3    H1  647   1.655   1.671   2.450
  234TIP3    H2  648   1.510   1.640   2.420
  235TIP3   OH2  649   2.662   1.633   1.664
  235TIP3    H1  650   2.676   1.678   1.580
  235TIP3    H2  651   2.569   1.608   1.661
  236TIP3   OH2  652   2.117   1.700   2.037
  236TIP3    H1  653   2.175   1.693   2.113
  236TIP3    H2  654   2.094   1.793   2.032
  237TIP3   OH2  655   2.038   1.438   2.340
  237TIP3    H1  656   1.982   1.400   2.272
  237TIP3    H2  657   2.126   1.409   2.317
  238TIP3   OH2  658   2.288   1.967   1.926
  238TIP3    H1  659   2.193   1.967   1.940
  238TIP3    H2  660   2.323   2.015   2.001
  239TIP3   OH2  661   2.405   1.535   1.645
  239TIP3    H1  662   2.319   1.512   1.610
  239TIP3    H2  663   2.453   1.452   1.648
  240TIP3   OH2  664   1.830   2.053   1.796
  240TIP3    H1  665   1.863   2.127   1.744
  240TIP3    H2  666   1.902   2.030   1.854
  241TIP3   OH2  667   2.206   1.698   1.767
  241TIP3    H1  668   2.185   1.681   1.859
  241TIP3    H2  669   2.288   1.650   1.752
  242TIP3   OH2  670   2.429   2.224   1.818
  242TIP3    H1  671   2.357   2.162   1.810
  242TIP3    H2  672   2.420   2.282   1.743
  243TIP3   OH2  673   2.200   1.165   2.101
  243TIP3    H1  674   2.234   1.222   2.170
  243TIP3    H2  675   2.260   1.090   2.100
  244TIP3   OH2  676   2.842   1.043   2.057
  244TIP3    H1  677   2.747   1.036   2.068
  244TIP3    H2  678   2.856   1.038   1.962
  245TIP3   OH2  679   2.462   2.194   1.407
  245TIP3    H1  680   2.420   2.241   1.335
  245TIP3    H2  681   2.555   2.209   1.395
  246TIP3   OH2  682   1.242   2.239   2.384
  246TIP3    H1  683   1.323   2.249   2.434
  246TIP3    H2  684   1.234   2.144   2.370
  247TIP3   OH2  685   1.712   2.186   2.431
  247TIP3    H1  686   1.805   2.167   2.434
  247TIP3    H2  687   1.678   2.129   2.362
  248TIP3   OH2  688   2.347   2.097   2.162
  248TIP3    H1  689   2.339   2.029   2.229
  248TIP3    H2  690   2.425   2.147   2.187
  249TIP3   OH2  691   1.366   1.629   2.544
  249TIP3    H1  692   1.395   1.538   2.547
  249TIP3    H2  693   1.300   1.635   2.613
  250TIP3   OH2  694   1.965   1.720   2.356
  250TIP3    H1  695   1.919   1.740   2.274
  250TIP3    H2  696   1.994   1.630   2.346
  251TIP3   OH2  697   2.453   1.737   1.968
  251TIP3    H1  698   2.534   1.769   1.929
  251TIP3    H2  699   2.387   1.803   1.945
  252TIP3   OH2  700   1.479   1.372   2.584
  252TIP3    H1  701   1.553   1.324   2.547
  252TIP3    H2  702   1.512   1.406   2.667
  253TIP3   OH2  703   2.327   1.661   2.339
  253TIP3    H1  704   2.407   1.641   2.290
  253TIP3    H2  705   2.332   1.604   2.416
  254TIP3   OH2  706   2.564   1.316   2.407
  254TIP3    H1  707   2.615   1.236   2.393
  254TIP3    H2  708   2.618   1.385   2.367
  255TIP3   OH2  709   2.589   1.587   2.145
  255TIP3    H1  710   2.530   1.639   2.090
  255TIP3    H2  711   2.676   1.607   2.112
  256TIP3   OH2  712   1.827   1.130   2.595
  256TIP3    H1  713   1.753   1.123   2.655
  256TIP3    H2  714   1.812   1.059   2.532
  257TIP3   OH2  715   2.195   1.091   2.458
  257TIP3    H1  716   2.181   1.076   2.552
  257TIP3    H2  717   2.111   1.067   2.418
  258TIP3   OH2  718   2.440   1.059   2.303
  258TIP3    H1  719   2.368   1.025   2.356
  258TIP3    H2  720   2.519   1.022   2.343
  259TIP3   OH2  721   2.649   0.980   2.457
  259TIP3    H1  722   2.673   0.888   2.466
  259TIP3    H2  723   2.660   1.017   2.544
  260TIP3   OH2  724   2.243   0.815   2.643
  260TIP3    H1  725   2.226   0.737   2.590
  260TIP3    H2  726   2.158   0.857   2.652
  261TIP3   OH2  727   2.712   2.289   1.369
  261TIP3    H1  728   2.742   2.316   1.456
  261TIP3    H2  729   2.779   2.322   1.309
  262TIP3   OH2  730   2.744   2.303   1.651
  262TIP3    H1  731   2.694   2.222   1.639
  262TIP3    H2  732   2.814   2.280   1.711
  263TIP3   OH2  733   2.781   1.982   2.224
  263TIP3    H1  734   2.711   1.996   2.288
  263TIP3    H2  735   2.827   2.066   2.220
  264TIP3   OH2  736   2.763   1.752   1.443
  264TIP3    H1  737   2.834   1.691   1.421
  264TIP3    H2  738   2.782   1.830   1.391
  265TIP3   OH2  739   2.616   2.062   1.659
  265TIP3    H1  740   2.550   2.083   1.725
  265TIP3    H2  741   2.570   2.007   1.596
  266TIP3   OH2  742   2.830   1.653   2.038
  266TIP3    H1  743   2.903   1.591   2.029
  266TIP3    H2  744   2.853   1.726   1.980
  267TIP3   OH2  745   3.008   1.448   2.064
  267TIP3    H1  746   2.938   1.396   2.103
  267TIP3    H2  747   3.087   1.397   2.080
  268TIP3   OH2  748   2.737   1.081   1.574
  268TIP3    H1  749   2.814   1.120   1.532
  268TIP3    H2  750   2.727   1.131   1.655
  269TIP3   OH2  751   2.774   1.254   1.814
  269TIP3    H1  752   2.694   1.288   1.854
  269TIP3    H2  753   2.804   1.325   1.757
  270TIP3   OH2  754   3.225   0.844   2.360
  270TIP3    H1  755   3.286   0.784   2.315
  270TIP3    H2  756   3.189   0.898   2.290
  271TIP3   OH2  757   3.090   0.989   2.173
  271TIP3    H1  758   2.999   0.999   2.146
  271TIP3    H2  759   3.131   0.942   2.101
  272TIP3   OH2  760   2.269   2.207   0.976
  272TIP3    H1  761   2.321   2.159   0.912
  272TIP3    H2  762   2.324   2.211   1.054
  273TIP3   OH2  763   1.365   1.962   2.393
  273TIP3    H1  764   1.381   1.874   2.358
  273TIP3    H2  765   1.371   1.951   2.488
  274TIP3   OH2  766   1.606   1.974   1.964
  274TIP3    H1  767   1.516   1.995   1.941
  274TIP3    H2  768   1.659   2.036   1.914
  275TIP3   OH2  769   2.018   2.234   2.087
  275TIP3    H1  770   2.056   2.233   2.175
  275TIP3    H2  771   2.081   2.285   2.035
  276TIP3   OH2  772   2.200   2.387   1.948
  276TIP3    H1  773   2.269   2.334   1.908
  276TIP3    H2  774   2.245   2.444   2.009
  277TIP3   OH2  775   2.942   0.726   2.087
  277TIP3    H1  776   2.941   0.778   2.006
  277TIP3    H2  777   3.008   0.658   2.071
  278TIP3   OH2  778   1.286   2.270   1.983
  278TIP3    H1  779   1.207   2.266   1.928
  278TIP3    H2  780   1.253   2.292   2.070
  279TIP3   OH2  781   1.483   2.246   1.806
  279TIP3    H1  782   1.435   2.255   1.888
  279TIP3    H2  783   1.417   2.218   1.743
  280TIP3   OH2  784   1.919   2.260   1.630
  280TIP3    H1  785   1.848   2.275   1.568
  280TIP3    H2  786   1.929   2.343   1.676
  281TIP3   OH2  787   2.184   2.189   1.678
  281TIP3    H1  788   2.092   2.211   1.662
  281TIP3    H2  789   2.233   2.263   1.643
  282TIP3   OH2  790   2.382   2.379   1.594
  282TIP3    H1  791   2.374   2.462   1.547
  282TIP3    H2  792   2.415   2.318   1.528
  283TIP3   OH2  793   2.734   0.722   2.491
  283TIP3    H1  794   2.746   0.690   2.581
  283TIP3    H2  795   2.820   0.711   2.450
  284TIP3   OH2  796   2.656   2.264   1.978
  284TIP3    H1  797   2.582   2.232   1.927
  284TIP3    H2  798   2.643   2.359   1.982
  285TIP3   OH2  799   3.931   1.639   0.735
  285TIP3    H1  800   3.900   1.727   0.714
  285TIP3    H2  801   3.862   1.581   0.702
  286TIP3   OH2  802   3.933   1.634   1.126
  286TIP3    H1  803   3.969   1.609   1.211
  286TIP3    H2  804   3.895   1.553   1.091
  287TIP3   OH2  805   3.230   1.527   1.483
  287TIP3    H1  806   3.257   1.457   1.543
  287TIP3    H2  807   3.297   1.594   1.493
  288TIP3   OH2  808   4.180   1.938   0.804
  288TIP3    H1  809   4.157   1.869   0.867
  288TIP3    H2  810   4.206   2.012   0.858
  289TIP3   OH2  811   3.204   1.940   1.207
  289TIP3    H1  812   3.194   1.845   1.208
  289TIP3    H2  813   3.298   1.954   1.205
  290TIP3   OH2  814   2.996   1.456   1.177
  290TIP3    H1  815   3.062   1.393   1.206
  290TIP3    H2  816   3.043   1.514   1.117
  291TIP3   OH2  817   3.832   2.401   0.822
  291TIP3    H1  818   3.870   2.332   0.768
  291TIP3    H2  819   3.814   2.359   0.906
  292TIP3   OH2  820   3.732   1.861   1.168
  292TIP3    H1  821   3.766   1.783   1.125
  292TIP3    H2  822   3.810   1.911   1.193
  293TIP3   OH2  823   4.749   1.182   1.168
  293TIP3    H1  824   4.776   1.264   1.209
  293TIP3    H2  825   4.757   1.198   1.074
  294TIP3   OH2  826   4.151   1.359   1.195
  294TIP3    H1  827   4.188   1.273   1.216
  294TIP3    H2  828   4.109   1.346   1.110
  295TIP3   OH2  829   4.181   1.116   0.787
  295TIP3    H1  830   4.249   1.101   0.852
  295TIP3    H2  831   4.228   1.152   0.712
  296TIP3   OH2  832   3.129   1.229   1.263
  296TIP3    H1  833   3.217   1.206   1.293
  296TIP3    H2  834   3.101   1.154   1.210
  297TIP3   OH2  835   3.569   1.439   1.070
  297TIP3    H1  836   3.659   1.413   1.089
  297TIP3    H2  837   3.529   1.360   1.033
  298TIP3   OH2  838   4.819   1.394   1.336
  298TIP3    H1  839   4.736   1.435   1.312
  298TIP3    H2  840   4.832   1.419   1.428
  299TIP3   OH2  841   3.475   1.022   1.606
  299TIP3    H1  842   3.423   1.056   1.533
  299TIP3    H2  843   3.424   1.041   1.684
  300TIP3   OH2  844   3.815   1.855   0.607
  300TIP3    H1  845   3.787   1.847   0.516
  300TIP3    H2  846   3.774   1.936   0.638
  301TIP3   OH2  847   3.583   1.785   1.391
  301TIP3    H1  848   3.522   1.849   1.429
  301TIP3    H2  849   3.624   1.831   1.318
  302TIP3   OH2  850   4.381   1.124   0.964
  302TIP3    H1  851   4.360   1.073   1.043
  302TIP3    H2  852   4.430   1.199   0.997
  303TIP3   OH2  853   3.375   1.121   1.358
  303TIP3    H1  854   3.424   1.197   1.391
  303TIP3    H2  855   3.435   1.080   1.296
  304TIP3   OH2  856   3.407   1.976   1.500
  304TIP3    H1  857   3.381   2.061   1.462
  304TIP3    H2  858   3.338   1.957   1.563
  305TIP3   OH2  859   4.243   2.186   0.968
  305TIP3    H1  860   4.157   2.173   1.008
  305TIP3    H2  861   4.236   2.269   0.922
  306TIP3   OH2  862   4.535   1.081   1.333
  306TIP3    H1  863   4.447   1.100   1.302
  306TIP3    H2  864   4.592   1.111   1.262
  307TIP3   OH2  865   3.849   0.738   1.345
  307TIP3    H1  866   3.815   0.666   1.292
  307TIP3    H2  867   3.772   0.788   1.369
  308TIP3   OH2  868   3.946   2.228   0.637
  308TIP3    H1  869   3.990   2.144   0.622
  308TIP3    H2  870   4.005   2.293   0.601
  309TIP3   OH2  871   4.086   2.010   0.554
  309TIP3    H1  872   4.059   1.932   0.507
  309TIP3    H2  873   4.125   1.978   0.636
  310TIP3   OH2  874   4.470   2.092   1.309
  310TIP3    H1  875   4.456   2.015   1.254
  310TIP3    H2  876   4.451   2.167   1.252
  311TIP3   OH2  877   3.770   1.482   0.566
  311TIP3    H1  878   3.692   1.534   0.546
  311TIP3    H2  879   3.811   1.467   0.481
  312TIP3   OH2  880   4.665   1.737   1.158
  312TIP3    H1  881   4.581   1.782   1.165
  312TIP3    H2  882   4.696   1.757   1.070
  313TIP3   OH2  883   4.119   1.578   0.548
  313TIP3    H1  884   4.060   1.598   0.621
  313TIP3    H2  885   4.200   1.549   0.590
  314TIP3   OH2  886   4.342   1.609   1.454
  314TIP3    H1  887   4.340   1.691   1.502
  314TIP3    H2  888   4.258   1.606   1.409
  315TIP3   OH2  889   3.348   1.565   0.959
  315TIP3    H1  890   3.321   1.508   0.887
  315TIP3    H2  891   3.426   1.523   0.995
  316TIP3   OH2  892   3.474   1.981   1.104
  316TIP3    H1  893   3.451   1.947   1.017
  316TIP3    H2  894   3.561   1.945   1.122
  317TIP3   OH2  895   3.483   1.541   1.311
  317TIP3    H1  896   3.519   1.518   1.225
  317TIP3    H2  897   3.523   1.625   1.332
  318TIP3   OH2  898   4.006   2.176   1.092
  318TIP3    H1  899   3.992   2.255   1.145
  318TIP3    H2  900   3.988   2.104   1.152
  319TIP3   OH2  901   3.613   2.095   1.636
  319TIP3    H1  902   3.557   2.156   1.684
  319TIP3    H2  903   3.552   2.041   1.585
  320TIP3   OH2  904   3.972   1.423   0.373
  320TIP3    H1  905   4.022   1.487   0.423
  320TIP3    H2  906   3.989   1.445   0.281
  321TIP3   OH2  907   3.364   1.648   1.734
  321TIP3    H1  908   3.373   1.729   1.785
  321TIP3    H2  909   3.272   1.623   1.745
  322TIP3   OH2  910   3.697   2.103   0.650
  322TIP3    H1  911   3.776   2.158   0.654
  322TIP3    H2  912   3.638   2.150   0.592
  323TIP3   OH2  913   3.410   2.263   1.722
  323TIP3    H1  914   3.376   2.263   1.633
  323TIP3    H2  915   3.334   2.249   1.777
  324TIP3   OH2  916   7.097   6.049   6.895
  324TIP3    H1  917   7.109   6.143   6.881
  324TIP3    H2  918   7.186   6.013   6.893
  325TIP3   OH2  919   3.004   1.789   1.642
  325TIP3    H1  920   2.924   1.750   1.606
  325TIP3    H2  921   3.035   1.724   1.705
  326TIP3   OH2  922   2.849   1.983   1.301
  326TIP3    H1  923   2.944   1.977   1.294
  326TIP3    H2  924   2.834   2.058   1.359
  327TIP3   OH2  925   4.706   2.440   1.362
  327TIP3    H1  926   4.708   2.346   1.373
  327TIP3    H2  927   4.625   2.468   1.405
  328TIP3   OH2  928   3.810   2.223   1.496
  328TIP3    H1  929   3.810   2.314   1.525
  328TIP3    H2  930   3.741   2.181   1.546
  329TIP3   OH2  931   3.578   2.355   0.443
  329TIP3    H1  932   3.535   2.336   0.360
  329TIP3    H2  933   3.543   2.440   0.470
  330TIP3   OH2  934   3.022   2.215   0.830
  330TIP3    H1  935   3.062   2.200   0.916
  330TIP3    H2  936   2.967   2.138   0.816
  331TIP3   OH2  937   3.770   2.254   0.095
  331TIP3    H1  938   3.825   2.196   0.043
  331TIP3    H2  939   3.810   2.255   0.182
  332TIP3   OH2  940   3.832   2.304   0.365
  332TIP3    H1  941   3.742   2.314   0.396
  332TIP3    H2  942   3.877   2.259   0.436
  333TIP3   OH2  943   4.595   1.567   1.632
  333TIP3    H1  944   4.512   1.581   1.587
  333TIP3    H2  945   4.612   1.473   1.623
  334TIP3   OH2  946   3.197   1.967   1.681
  334TIP3    H1  947   3.190   1.972   1.777
  334TIP3    H2  948   3.127   1.908   1.655
  335TIP3   OH2  949   3.598   0.805   1.448
  335TIP3    H1  950   3.503   0.787   1.444
  335TIP3    H2  951   3.604   0.896   1.474
  336TIP3   OH2  952   4.129   0.917   1.640
  336TIP3    H1  953   4.194   0.888   1.704
  336TIP3    H2  954   4.045   0.897   1.681
  337TIP3   OH2  955   4.369   1.349   1.564
  337TIP3    H1  956   4.315   1.344   1.643
  337TIP3    H2  957   4.342   1.430   1.521
  338TIP3   OH2  958   4.047   1.486   0.117
  338TIP3    H1  959   4.013   1.456   0.032
  338TIP3    H2  960   4.123   1.539   0.095
  339TIP3   OH2  961   3.521   1.323   1.465
  339TIP3    H1  962   3.472   1.341   1.545
  339TIP3    H2  963   3.508   1.402   1.411
  340TIP3   OH2  964   3.415   1.237   0.957
  340TIP3    H1  965   3.399   1.164   1.017
  340TIP3    H2  966   3.461   1.198   0.883
  341TIP3   OH2  967   3.903   1.286   0.705
  341TIP3    H1  968   3.855   1.357   0.661
  341TIP3    H2  969   3.954   1.245   0.635
  342TIP3   OH2  970   4.076   1.561   1.792
  342TIP3    H1  971   4.050   1.492   1.852
  342TIP3    H2  972   4.169   1.577   1.812
  343TIP3   OH2  973   4.060   1.316   0.935
  343TIP3    H1  974   3.995   1.343   0.869
  343TIP3    H2  975   4.097   1.235   0.900
  344TIP3   OH2  976   3.345   1.355   1.672
  344TIP3    H1  977   3.353   1.424   1.738
  344TIP3    H2  978   3.339   1.274   1.723
  345TIP3   OH2  979   4.074   1.557   1.361
  345TIP3    H1  980   4.106   1.489   1.301
  345TIP3    H2  981   4.040   1.508   1.436
  346TIP3   OH2  982   4.234   1.095   1.246
  346TIP3    H1  983   4.198   1.115   1.333
  346TIP3    H2  984   4.173   1.030   1.210
  347TIP3   OH2  985   4.404   2.789   1.459
  347TIP3    H1  986   4.398   2.812   1.366
  347TIP3    H2  987   4.481   2.836   1.491
  348TIP3   OH2  988   3.818   1.346   1.144
  348TIP3    H1  989   3.873   1.293   1.087
  348TIP3    H2  990   3.810   1.295   1.224
  349TIP3   OH2  991   3.790   1.255   1.441
  349TIP3    H1  992   3.703   1.293   1.447
  349TIP3    H2  993   3.848   1.321   1.480
  350TIP3   OH2  994   3.527   1.627   0.538
  350TIP3    H1  995   3.433   1.610   0.529
  350TIP3    H2  996   3.535   1.671   0.622
  351TIP3   OH2  997   4.429   1.875   1.144
  351TIP3    H1  998   4.452   1.925   1.066
  351TIP3    H2  999   4.346   1.832   1.121
  352TIP3   OH2 1000   3.937   1.964   1.516
  352TIP3    H1 1001   3.954   1.938   1.606
  352TIP3    H2 1002   3.892   2.048   1.524
  353TIP3   OH2 1003   4.052   1.188   0.492
  353TIP3    H1 1004   4.147   1.200   0.500
  353TIP3    H2 1005   4.023   1.264   0.441
  354TIP3   OH2 1006   3.229   1.663   1.192
  354TIP3    H1 1007   3.272   1.635   1.112
  354TIP3    H2 1008   3.270   1.610   1.261
  355TIP3   OH2 1009   3.661   1.789   0.356
  355TIP3    H1 1010   3.627   1.877   0.367
  355TIP3    H2 1011   3.613   1.736   0.419
  356TIP3   OH2 1012   3.110   1.583   1.807
  356TIP3    H1 1013   3.140   1.579   1.897
  356TIP3    H2 1014   3.042   1.515   1.801
  357TIP3   OH2 1015   3.832   1.696   1.826
  357TIP3    H1 1016   3.766   1.638   1.788
  357TIP3    H2 1017   3.916   1.661   1.797
  358TIP3   OH2 1018   4.090   2.225   1.412
  358TIP3    H1 1019   3.995   2.216   1.424
  358TIP3    H2 1020   4.119   2.273   1.489
  359TIP3   OH2 1021   4.492   1.294   0.317
  359TIP3    H1 1022   4.448   1.236   0.256
  359TIP3    H2 1023   4.480   1.381   0.281
  360TIP3   OH2 1024   4.719   2.151   1.397
  360TIP3    H1 1025   4.624   2.146   1.393
  360TIP3    H2 1026   4.748   2.120   1.311
  361TIP3   OH2 1027   4.213   2.105   0.227
  361TIP3    H1 1028   4.168   2.044   0.286
  361TIP3    H2 1029   4.207   2.063   0.141
  362TIP3   OH2 1030   4.196   1.736   1.062
  362TIP3    H1 1031   4.104   1.714   1.078
  362TIP3    H2 1032   4.232   1.658   1.019
  363TIP3   OH2 1033   3.324   1.970   0.816
  363TIP3    H1 1034   3.324   2.051   0.765
  363TIP3    H2 1035   3.231   1.947   0.824
  364TIP3   OH2 1036   3.463   1.738   0.771
  364TIP3    H1 1037   3.429   1.826   0.784
  364TIP3    H2 1038   3.427   1.688   0.844
  365TIP3   OH2 1039   3.598   2.310   1.287
  365TIP3    H1 1040   3.638   2.381   1.237
  365TIP3    H2 1041   3.671   2.271   1.336
  366TIP3   OH2 1042   3.246   2.208   0.669
  366TIP3    H1 1043   3.163   2.217   0.717
  366TIP3    H2 1044   3.282   2.297   0.668
  367TIP3   OH2 1045   3.982   1.943   1.249
  367TIP3    H1 1046   3.970   1.945   1.344
  367TIP3    H2 1047   4.057   1.886   1.235
  368TIP3   OH2 1048   3.970   1.854   0.124
  368TIP3    H1 1049   4.008   1.825   0.207
  368TIP3    H2 1050   3.895   1.797   0.111
  369TIP3   OH2 1051   4.230   2.474   1.296
  369TIP3    H1 1052   4.154   2.417   1.296
  369TIP3    H2 1053   4.213   2.537   1.226
  370TIP3   OH2 1054   7.132   6.328   6.883
  370TIP3    H1 1055   7.181   6.405   6.854
  370TIP3    H2 1056   7.051   6.363   6.920
  371TIP3   OH2 1057   3.302   1.112   1.808
  371TIP3    H1 1058   3.213   1.144   1.823
  371TIP3    H2 1059   3.307   1.032   1.859
  372TIP3   OH2 1060   4.122   1.773   0.354
  372TIP3    H1 1061   4.109   1.708   0.423
  372TIP3    H2 1062   4.216   1.770   0.335
  373TIP3   OH2 1063   3.033   2.169   1.447
  373TIP3    H1 1064   3.082   2.093   1.478
  373TIP3    H2 1065   3.052   2.238   1.510
  374TIP3   OH2 1066   3.303   1.828   0.394
  374TIP3    H1 1067   3.304   1.806   0.487
  374TIP3    H2 1068   3.284   1.922   0.391
  375TIP3   OH2 1069   4.156   1.156   1.505
  375TIP3    H1 1070   4.238   1.188   1.544
  375TIP3    H2 1071   4.139   1.074   1.551
  376TIP3   OH2 1072   4.035   0.927   0.656
  376TIP3    H1 1073   4.015   0.967   0.572
  376TIP3    H2 1074   4.073   0.998   0.708
  377TIP3   OH2 1075   3.541   2.030   0.375
  377TIP3    H1 1076   3.455   2.058   0.404
  377TIP3    H2 1077   3.539   2.041   0.279
  378TIP3   OH2 1078   3.721   1.083   0.754
  378TIP3    H1 1079   3.786   1.152   0.750
  378TIP3    H2 1080   3.712   1.064   0.847
  379TIP3   OH2 1081   3.996   1.404   1.570
  379TIP3    H1 1082   4.021   1.453   1.649
  379TIP3    H2 1083   4.043   1.321   1.578
  380TIP3   OH2 1084   3.943   0.851   0.913
  380TIP3    H1 1085   3.866   0.900   0.939
  380TIP3    H2 1086   3.954   0.871   0.820
  381TIP3   OH2 1087   3.274   2.096   0.419
  381TIP3    H1 1088   3.251   2.167   0.359
  381TIP3    H2 1089   3.261   2.134   0.506
  382TIP3   OH2 1090   4.631   1.298   1.552
  382TIP3    H1 1091   4.537   1.302   1.567
  382TIP3    H2 1092   4.640   1.255   1.467
  383TIP3   OH2 1093   4.284   1.492   0.943
  383TIP3    H1 1094   4.206   1.438   0.953
  383TIP3    H2 1095   4.352   1.445   0.991
  384TIP3   OH2 1096   4.254   2.457   0.887
  384TIP3    H1 1097   4.208   2.502   0.816
  384TIP3    H2 1098   4.347   2.472   0.868
  385TIP3   OH2 1099   3.332   0.745   1.481
  385TIP3    H1 1100   3.290   0.720   1.398
  385TIP3    H2 1101   3.330   0.665   1.534
  386TIP3   OH2 1102   2.883   1.980   0.776
  386TIP3    H1 1103   2.812   1.922   0.801
  386TIP3    H2 1104   2.927   1.935   0.703
  387TIP3   OH2 1105   3.027   2.481   1.870
  387TIP3    H1 1106   3.112   2.480   1.914
  387TIP3    H2 1107   3.001   2.389   1.864
  388TIP3   OH2 1108   3.506   2.441   1.911
  388TIP3    H1 1109   3.598   2.419   1.921
  388TIP3    H2 1110   3.475   2.383   1.841
  389TIP3   OH2 1111   3.487   2.022   0.102
  389TIP3    H1 1112   3.432   1.944   0.111
  389TIP3    H2 1113   3.519   2.017   0.012
  390TIP3   OH2 1114   4.145   2.351   1.649
  390TIP3    H1 1115   4.137   2.283   1.716
  390TIP3    H2 1116   4.220   2.404   1.678
  391TIP3   OH2 1117   6.772   6.078   6.906
  391TIP3    H1 1118   6.773   6.002   6.964
  391TIP3    H2 1119   6.858   6.075   6.863
  392TIP3   OH2 1120   3.762   1.974   1.840
  392TIP3    H1 1121   3.715   1.993   1.759
  392TIP3    H2 1122   3.788   1.882   1.832
  393TIP3   OH2 1123   3.745   1.695   0.101
  393TIP3    H1 1124   3.712   1.726   0.186
  393TIP3    H2 1125   3.666   1.676   0.050
  394TIP3   OH2 1126   4.256   1.985   1.453
  394TIP3    H1 1127   4.329   2.029   1.409
  394TIP3    H2 1128   4.181   2.044   1.440
  395TIP3   OH2 1129   3.295   1.568   2.038
  395TIP3    H1 1130   3.387   1.550   2.060
  395TIP3    H2 1131   3.274   1.648   2.087
  396TIP3   OH2 1132   3.613   1.514   1.718
  396TIP3    H1 1133   3.531   1.562   1.717
  396TIP3    H2 1134   3.661   1.545   1.641
  397TIP3   OH2 1135   4.129   1.908   1.849
  397TIP3    H1 1136   4.202   1.874   1.796
  397TIP3    H2 1137   4.119   1.844   1.919
  398TIP3   OH2 1138   7.104   5.584   6.906
  398TIP3    H1 1139   7.110   5.541   6.821
  398TIP3    H2 1140   7.093   5.677   6.886
  399TIP3   OH2 1141   3.738   1.298   1.832
  399TIP3    H1 1142   3.733   1.218   1.780
  399TIP3    H2 1143   3.692   1.363   1.781
  400TIP3   OH2 1144   3.737   1.076   1.647
  400TIP3    H1 1145   3.765   1.124   1.569
  400TIP3    H2 1146   3.644   1.060   1.633
  401TIP3   OH2 1147   3.758   1.617   1.519
  401TIP3    H1 1148   3.843   1.627   1.475
  401TIP3    H2 1149   3.701   1.681   1.475
  402TIP3   OH2 1150   4.343   1.582   1.899
  402TIP3    H1 1151   4.390   1.499   1.905
  402TIP3    H2 1152   4.407   1.643   1.862
  403TIP3   OH2 1153   4.385   1.839   1.637
  403TIP3    H1 1154   4.325   1.890   1.582
  403TIP3    H2 1155   4.471   1.857   1.601
  404TIP3   OH2 1156   3.619   1.404   2.071
  404TIP3    H1 1157   3.549   1.341   2.088
  404TIP3    H2 1158   3.647   1.385   1.981
  405TIP3   OH2 1159   3.871   0.845   1.721
  405TIP3    H1 1160   3.823   0.924   1.696
  405TIP3    H2 1161   3.811   0.773   1.700
  406TIP3   OH2 1162   3.991   1.343   1.933
  406TIP3    H1 1163   3.973   1.331   2.026
  406TIP3    H2 1164   3.907   1.324   1.890
  407TIP3   OH2 1165   4.232   1.298   1.790
  407TIP3    H1 1166   4.156   1.300   1.848
  407TIP3    H2 1167   4.303   1.267   1.846
  408TIP3   OH2 1168   4.469   1.241   1.939
  408TIP3    H1 1169   4.476   1.146   1.953
  408TIP3    H2 1170   4.460   1.277   2.027
  409TIP3   OH2 1171   3.447   1.203   2.135
  409TIP3    H1 1172   3.450   1.111   2.110
  409TIP3    H2 1173   3.474   1.203   2.227
  410TIP3   OH2 1174   3.958   0.845   1.980
  410TIP3    H1 1175   4.025   0.777   1.970
  410TIP3    H2 1176   3.917   0.851   1.894
  411TIP3   OH2 1177   4.026   1.068   2.132
  411TIP3    H1 1178   4.005   0.997   2.071
  411TIP3    H2 1179   3.950   1.126   2.129
  412TIP3   OH2 1180   3.241   2.290   0.228
  412TIP3    H1 1181   3.334   2.299   0.206
  412TIP3    H2 1182   3.196   2.337   0.158
  413TIP3   OH2 1183   2.626   2.281   0.867
  413TIP3    H1 1184   2.594   2.210   0.811
  413TIP3    H2 1185   2.681   2.237   0.932
  414TIP3   OH2 1186   2.765   2.157   1.063
  414TIP3    H1 1187   2.769   2.074   1.111
  414TIP3    H2 1188   2.825   2.215   1.111
  415TIP3   OH2 1189   4.510   2.540   0.851
  415TIP3    H1 1190   4.532   2.569   0.939
  415TIP3    H2 1191   4.573   2.586   0.794
  416TIP3   OH2 1192   4.536   2.558   1.133
  416TIP3    H1 1193   4.487   2.476   1.126
  416TIP3    H2 1194   4.609   2.538   1.191
  417TIP3   OH2 1195   4.583   2.240   1.707
  417TIP3    H1 1196   4.510   2.247   1.769
  417TIP3    H2 1197   4.624   2.326   1.708
  418TIP3   OH2 1198   4.402   1.748   0.321
  418TIP3    H1 1199   4.463   1.816   0.293
  418TIP3    H2 1200   4.442   1.713   0.401
  419TIP3   OH2 1201   4.524   1.623   0.533
  419TIP3    H1 1202   4.458   1.580   0.587
  419TIP3    H2 1203   4.585   1.661   0.595
  420TIP3   OH2 1204   4.586   2.015   0.959
  420TIP3    H1 1205   4.635   1.946   0.914
  420TIP3    H2 1206   4.576   2.085   0.895
  421TIP3   OH2 1207   4.408   2.313   1.153
  421TIP3    H1 1208   4.339   2.354   1.205
  421TIP3    H2 1209   4.361   2.267   1.083
  422TIP3   OH2 1210   4.448   1.524   0.171
  422TIP3    H1 1211   4.387   1.536   0.098
  422TIP3    H2 1212   4.431   1.599   0.229
  423TIP3   OH2 1213   4.325   1.179   0.113
  423TIP3    H1 1214   4.286   1.262   0.085
  423TIP3    H2 1215   4.250   1.124   0.136
  424TIP3   OH2 1216   4.343   1.476   0.676
  424TIP3    H1 1217   4.340   1.381   0.664
  424TIP3    H2 1218   4.326   1.488   0.769
  425TIP3   OH2 1219   2.966   1.562   1.429
  425TIP3    H1 1220   2.964   1.531   1.338
  425TIP3    H2 1221   3.059   1.565   1.451
  426TIP3   OH2 1222   4.631   1.902   1.531
  426TIP3    H1 1223   4.699   1.836   1.519
  426TIP3    H2 1224   4.651   1.969   1.466
  427TIP3   OH2 1225   4.812   1.699   1.539
  427TIP3    H1 1226   4.736   1.655   1.577
  427TIP3    H2 1227   4.885   1.639   1.556
  428TIP3   OH2 1228   4.335   1.200   0.565
  428TIP3    H1 1229   4.371   1.113   0.583
  428TIP3    H2 1230   4.390   1.235   0.495
  429TIP3   OH2 1231   4.500   1.362   1.066
  429TIP3    H1 1232   4.581   1.385   1.022
  429TIP3    H2 1233   4.508   1.399   1.153
  430TIP3   OH2 1234   4.568   1.513   1.293
  430TIP3    H1 1235   4.491   1.542   1.342
  430TIP3    H2 1236   4.600   1.592   1.249
  431TIP3   OH2 1237   3.179   1.239   2.109
  431TIP3    H1 1238   3.274   1.237   2.104
  431TIP3    H2 1239   3.155   1.156   2.151
  432TIP3   OH2 1240   5.021   1.105   1.848
  432TIP3    H1 1241   5.080   1.040   1.807
  432TIP3    H2 1242   4.987   1.156   1.774
  433TIP3   OH2 1243   4.441   0.951   0.610
  433TIP3    H1 1244   4.477   0.943   0.699
  433TIP3    H2 1245   4.381   0.877   0.603
  434TIP3   OH2 1246   3.167   0.962   1.458
  434TIP3    H1 1247   3.219   0.891   1.497
  434TIP3    H2 1248   3.230   1.032   1.442
  435TIP3   OH2 1249   2.964   1.213   1.493
  435TIP3    H1 1250   3.015   1.226   1.413
  435TIP3    H2 1251   2.974   1.294   1.542
  436TIP3   OH2 1252   4.883   1.237   1.654
  436TIP3    H1 1253   4.803   1.285   1.676
  436TIP3    H2 1254   4.854   1.166   1.597
  437TIP3   OH2 1255   4.097   2.410   0.507
  437TIP3    H1 1256   4.142   2.397   0.424
  437TIP3    H2 1257   4.149   2.477   0.552
  438TIP3   OH2 1258   2.999   0.724   1.807
  438TIP3    H1 1259   3.086   0.741   1.844
  438TIP3    H2 1260   2.981   0.800   1.752
  439TIP3   OH2 1261   3.193   2.233   1.884
  439TIP3    H1 1262   3.111   2.192   1.857
  439TIP3    H2 1263   3.227   2.175   1.952
  440TIP3   OH2 1264   3.370   2.250   1.435
  440TIP3    H1 1265   3.319   2.322   1.400
  440TIP3    H2 1266   3.456   2.259   1.394
  441TIP3   OH2 1267   3.813   2.490   1.576
  441TIP3    H1 1268   3.851   2.488   1.663
  441TIP3    H2 1269   3.875   2.541   1.524
  442TIP3   OH2 1270   3.992   2.645   1.437
  442TIP3    H1 1271   4.058   2.592   1.394
  442TIP3    H2 1272   4.042   2.701   1.497
  443TIP3   OH2 1273   4.785   1.004   1.533
  443TIP3    H1 1274   4.697   1.000   1.495
  443TIP3    H2 1275   4.818   0.914   1.526
  444TIP3   OH2 1276   3.042   2.508   1.459
  444TIP3    H1 1277   2.955   2.540   1.437
  444TIP3    H2 1278   3.057   2.538   1.549
  445TIP3   OH2 1279   3.280   2.485   1.320
  445TIP3    H1 1280   3.195   2.495   1.364
  445TIP3    H2 1281   3.264   2.513   1.230
  446TIP3   OH2 1282   3.706   2.510   1.119
  446TIP3    H1 1283   3.636   2.524   1.054
  446TIP3    H2 1284   3.718   2.595   1.160
  447TIP3   OH2 1285   3.974   2.450   1.170
  447TIP3    H1 1286   3.882   2.464   1.152
  447TIP3    H2 1287   4.019   2.522   1.125
  448TIP3   OH2 1288   4.184   2.641   1.081
  448TIP3    H1 1289   4.169   2.724   1.035
  448TIP3    H2 1290   4.209   2.579   1.012
  449TIP3   OH2 1291   2.958   2.294   1.210
  449TIP3    H1 1292   2.982   2.268   1.299
  449TIP3    H2 1293   3.025   2.254   1.154
  450TIP3   OH2 1294   3.153   2.170   1.069
  450TIP3    H1 1295   3.164   2.087   1.115
  450TIP3    H2 1296   3.242   2.205   1.063
  451TIP3   OH2 1297   3.423   2.260   1.071
  451TIP3    H1 1298   3.448   2.169   1.057
  451TIP3    H2 1299   3.467   2.285   1.152
  452TIP3   OH2 1300   4.032   0.921   1.171
  452TIP3    H1 1301   3.949   0.906   1.217
  452TIP3    H2 1302   4.017   0.887   1.083
  453TIP3   OH2 1303   4.526   0.811   1.070
  453TIP3    H1 1304   4.553   0.866   0.996
  453TIP3    H2 1305   4.431   0.804   1.060
  454TIP3   OH2 1306   4.594   0.921   0.834
  454TIP3    H1 1307   4.666   0.862   0.811
  454TIP3    H2 1308   4.630   1.009   0.821
  455TIP3   OH2 1309   3.685   0.667   1.100
  455TIP3    H1 1310   3.692   0.716   1.018
  455TIP3    H2 1311   3.667   0.734   1.166
  456TIP3   OH2 1312   4.263   0.792   1.018
  456TIP3    H1 1313   4.202   0.794   0.944
  456TIP3    H2 1314   4.220   0.736   1.082
  457TIP3   OH2 1315   4.264   0.742   0.636
  457TIP3    H1 1316   4.182   0.792   0.635
  457TIP3    H2 1317   4.255   0.682   0.709
  458TIP3   OH2 1318   3.511   2.287   0.170
  458TIP3    H1 1319   3.600   2.307   0.141
  458TIP3    H2 1320   3.497   2.196   0.146
  459TIP3   OH2 1321   4.239   2.373   0.271
  459TIP3    H1 1322   4.236   2.278   0.263
  459TIP3    H2 1323   4.191   2.406   0.195
  460TIP3   OH2 1324   3.469   0.943   2.139
  460TIP3    H1 1325   3.410   0.886   2.090
  460TIP3    H2 1326   3.554   0.899   2.136
  461TIP3   OH2 1327   3.742   0.898   2.193
  461TIP3    H1 1328   3.818   0.870   2.142
  461TIP3    H2 1329   3.724   0.824   2.251
  462TIP3   OH2 1330   4.527   0.967   1.967
  462TIP3    H1 1331   4.542   0.938   2.057
  462TIP3    H2 1332   4.613   0.963   1.926
  463TIP3   OH2 1333   4.458   2.520   1.457
  463TIP3    H1 1334   4.382   2.486   1.409
  463TIP3    H2 1335   4.441   2.613   1.466
  464TIP3   OH2 1336   5.685   1.914   0.262
  464TIP3    H1 1337   5.670   1.995   0.214
  464TIP3    H2 1338   5.626   1.850   0.221
  465TIP3   OH2 1339   5.736   1.900   0.607
  465TIP3    H1 1340   5.753   1.861   0.693
  465TIP3    H2 1341   5.688   1.832   0.559
  466TIP3   OH2 1342   5.027   1.783   0.972
  466TIP3    H1 1343   5.054   1.715   1.033
  466TIP3    H2 1344   5.104   1.840   0.964
  467TIP3   OH2 1345   5.976   2.202   0.290
  467TIP3    H1 1346   5.948   2.133   0.350
  467TIP3    H2 1347   6.008   2.272   0.347
  468TIP3   OH2 1348   5.002   2.196   0.694
  468TIP3    H1 1349   4.990   2.101   0.694
  468TIP3    H2 1350   5.097   2.208   0.688
  469TIP3   OH2 1351   4.701   1.419   0.484
  469TIP3    H1 1352   4.650   1.499   0.502
  469TIP3    H2 1353   4.636   1.358   0.449
  470TIP3   OH2 1354   4.764   1.688   0.659
  470TIP3    H1 1355   4.809   1.610   0.689
  470TIP3    H2 1356   4.819   1.723   0.589
  471TIP3   OH2 1357   5.626   2.657   0.310
  471TIP3    H1 1358   5.663   2.584   0.261
  471TIP3    H2 1359   5.609   2.621   0.397
  472TIP3   OH2 1360   5.527   2.121   0.654
  472TIP3    H1 1361   5.558   2.048   0.601
  472TIP3    H2 1362   5.607   2.166   0.683
  473TIP3   OH2 1363   5.941   1.624   0.685
  473TIP3    H1 1364   5.974   1.542   0.720
  473TIP3    H2 1365   5.886   1.598   0.610
  474TIP3   OH2 1366   5.254   1.307   0.671
  474TIP3    H1 1367   5.227   1.369   0.604
  474TIP3    H2 1368   5.243   1.221   0.630
  475TIP3   OH2 1369   4.908   1.476   0.755
  475TIP3    H1 1370   4.985   1.463   0.810
  475TIP3    H2 1371   4.922   1.417   0.681
  476TIP3   OH2 1372   5.351   1.689   0.559
  476TIP3    H1 1373   5.443   1.664   0.570
  476TIP3    H2 1374   5.307   1.608   0.533
  477TIP3   OH2 1375   6.596   1.628   0.844
  477TIP3    H1 1376   6.526   1.687   0.818
  477TIP3    H2 1377   6.646   1.678   0.910
  478TIP3   OH2 1378   5.268   1.266   1.093
  478TIP3    H1 1379   5.213   1.305   1.026
  478TIP3    H2 1380   5.220   1.280   1.175
  479TIP3   OH2 1381   5.627   2.127   0.085
  479TIP3    H1 1382   5.581   2.093   0.008
  479TIP3    H2 1383   5.572   2.200   0.116
  480TIP3   OH2 1384   5.380   2.040   0.878
  480TIP3    H1 1385   5.321   2.106   0.915
  480TIP3    H2 1386   5.423   2.085   0.805
  481TIP3   OH2 1387   5.134   1.393   0.892
  481TIP3    H1 1388   5.191   1.465   0.918
  481TIP3    H2 1389   5.176   1.356   0.815
  482TIP3   OH2 1390   5.207   2.236   0.979
  482TIP3    H1 1391   5.186   2.321   0.941
  482TIP3    H2 1392   5.131   2.214   1.033
  483TIP3   OH2 1393   4.600   1.925   0.218
  483TIP3    H1 1394   4.559   1.944   0.134
  483TIP3    H2 1395   4.630   2.010   0.250
  484TIP3   OH2 1396   6.038   2.445   0.456
  484TIP3    H1 1397   5.951   2.431   0.495
  484TIP3    H2 1398   6.029   2.527   0.407
  485TIP3   OH2 1399   5.738   2.471   0.138
  485TIP3    H1 1400   5.780   2.386   0.122
  485TIP3    H2 1401   5.798   2.535   0.102
  486TIP3   OH2 1402   5.873   2.253   0.042
  486TIP3    H1 1403   5.799   2.193   0.045
  486TIP3    H2 1404   5.927   2.230   0.117
  487TIP3   OH2 1405   6.266   2.348   0.790
  487TIP3    H1 1406   6.251   2.271   0.735
  487TIP3    H2 1407   6.244   2.423   0.734
  488TIP3   OH2 1408   6.481   2.039   0.687
  488TIP3    H1 1409   6.393   2.074   0.675
  488TIP3    H2 1410   6.518   2.038   0.598
  489TIP3   OH2 1411   6.131   1.861   0.943
  489TIP3    H1 1412   6.134   1.934   1.005
  489TIP3    H2 1413   6.046   1.869   0.900
  490TIP3   OH2 1414   5.135   1.818   0.443
  490TIP3    H1 1415   5.102   1.762   0.373
  490TIP3    H2 1416   5.213   1.774   0.475
  491TIP3   OH2 1417   5.270   2.238   0.589
  491TIP3    H1 1418   5.248   2.202   0.503
  491TIP3    H2 1419   5.356   2.202   0.608
  492TIP3   OH2 1420   5.277   1.795   0.803
  492TIP3    H1 1421   5.307   1.771   0.715
  492TIP3    H2 1422   5.317   1.881   0.819
  493TIP3   OH2 1423   5.800   2.433   0.579
  493TIP3    H1 1424   5.787   2.511   0.632
  493TIP3    H2 1425   5.783   2.360   0.638
  494TIP3   OH2 1426   5.411   2.351   1.124
  494TIP3    H1 1427   5.354   2.412   1.170
  494TIP3    H2 1428   5.351   2.298   1.072
  495TIP3   OH2 1429   5.167   1.905   1.231
  495TIP3    H1 1430   5.175   1.993   1.268
  495TIP3    H2 1431   5.074   1.883   1.241
  496TIP3   OH2 1432   5.487   2.359   0.135
  496TIP3    H1 1433   5.570   2.405   0.143
  496TIP3    H2 1434   5.431   2.418   0.084
  497TIP3   OH2 1435   5.205   2.516   1.211
  497TIP3    H1 1436   5.172   2.519   1.121
  497TIP3    H2 1437   5.128   2.495   1.264
  498TIP3   OH2 1438   5.004   1.663   0.230
  498TIP3    H1 1439   4.937   1.712   0.184
  498TIP3    H2 1440   4.958   1.589   0.270
  499TIP3   OH2 1441   4.785   2.049   1.156
  499TIP3    H1 1442   4.717   2.032   1.091
  499TIP3    H2 1443   4.822   1.963   1.176
  500TIP3   OH2 1444   4.640   2.246   0.786
  500TIP3    H1 1445   4.736   2.239   0.780
  500TIP3    H2 1446   4.625   2.322   0.842
  501TIP3   OH2 1447   6.503   2.701   0.856
  501TIP3    H1 1448   6.503   2.606   0.869
  501TIP3    H2 1449   6.420   2.730   0.894
  502TIP3   OH2 1450   5.607   2.481   0.982
  502TIP3    H1 1451   5.607   2.572   1.012
  502TIP3    H2 1452   5.538   2.439   1.034
  503TIP3   OH2 1453   8.211   6.627   6.871
  503TIP3    H1 1454   8.142   6.594   6.814
  503TIP3    H2 1455   8.178   6.711   6.903
  504TIP3   OH2 1456   4.811   2.454   0.320
  504TIP3    H1 1457   4.855   2.448   0.404
  504TIP3    H2 1458   4.760   2.374   0.313
  505TIP3   OH2 1459   8.442   6.511   6.781
  505TIP3    H1 1460   8.361   6.553   6.810
  505TIP3    H2 1461   8.501   6.516   6.856
  506TIP3   OH2 1462   6.398   1.830   1.105
  506TIP3    H1 1463   6.305   1.830   1.085
  506TIP3    H2 1464   6.419   1.738   1.122
  507TIP3   OH2 1465   4.989   2.231   1.143
  507TIP3    H1 1466   5.038   2.218   1.224
  507TIP3    H2 1467   4.916   2.171   1.148
  508TIP3   OH2 1468   5.374   1.061   0.939
  508TIP3    H1 1469   5.291   1.028   0.905
  508TIP3    H2 1470   5.350   1.139   0.989
  509TIP3   OH2 1471   5.918   1.158   1.114
  509TIP3    H1 1472   5.986   1.143   1.180
  509TIP3    H2 1473   5.836   1.146   1.162
  510TIP3   OH2 1474   6.159   1.601   1.039
  510TIP3    H1 1475   6.114   1.598   1.123
  510TIP3    H2 1476   6.137   1.687   1.003
  511TIP3   OH2 1477   5.327   1.577   0.954
  511TIP3    H1 1478   5.280   1.597   1.034
  511TIP3    H2 1479   5.313   1.654   0.898
  512TIP3   OH2 1480   5.190   1.480   0.473
  512TIP3    H1 1481   5.104   1.439   0.470
  512TIP3    H2 1482   5.231   1.455   0.390
  513TIP3   OH2 1483   5.873   1.818   1.275
  513TIP3    H1 1484   5.850   1.748   1.336
  513TIP3    H2 1485   5.964   1.838   1.293
  514TIP3   OH2 1486   5.817   1.547   0.458
  514TIP3    H1 1487   5.829   1.603   0.381
  514TIP3    H2 1488   5.828   1.458   0.425
  515TIP3   OH2 1489   5.144   1.601   1.157
  515TIP3    H1 1490   5.163   1.667   1.223
  515TIP3    H2 1491   5.128   1.521   1.207
  516TIP3   OH2 1492   4.725   1.143   0.758
  516TIP3    H1 1493   4.805   1.164   0.806
  516TIP3    H2 1494   4.756   1.104   0.676
  517TIP3   OH2 1495   4.751   1.190   0.316
  517TIP3    H1 1496   4.798   1.256   0.264
  517TIP3    H2 1497   4.659   1.216   0.311
  518TIP3   OH2 1498   5.857   1.816   0.857
  518TIP3    H1 1499   5.895   1.754   0.795
  518TIP3    H2 1500   5.828   1.762   0.930
  519TIP3   OH2 1501   5.524   1.283   0.628
  519TIP3    H1 1502   5.432   1.300   0.645
  519TIP3    H2 1503   5.570   1.325   0.701
  520TIP3   OH2 1504   4.955   1.330   0.516
  520TIP3    H1 1505   4.864   1.358   0.506
  520TIP3    H2 1506   4.959   1.245   0.472
  521TIP3   OH2 1507   5.962   1.356   0.730
  521TIP3    H1 1508   5.958   1.381   0.822
  521TIP3    H2 1509   5.938   1.263   0.730
  522TIP3   OH2 1510   6.199   3.048   0.947
  522TIP3    H1 1511   6.195   3.070   0.854
  522TIP3    H2 1512   6.277   3.092   0.980
  523TIP3   OH2 1513   5.153   2.156   1.367
  523TIP3    H1 1514   5.232   2.185   1.412
  523TIP3    H2 1515   5.086   2.153   1.435
  524TIP3   OH2 1516   5.606   1.611   0.630
  524TIP3    H1 1517   5.675   1.578   0.573
  524TIP3    H2 1518   5.622   1.568   0.714
  525TIP3   OH2 1519   5.593   1.507   0.903
  525TIP3    H1 1520   5.505   1.539   0.919
  525TIP3    H2 1521   5.649   1.564   0.956
  526TIP3   OH2 1522   5.288   1.928  -0.005
  526TIP3    H1 1523   5.259   1.836  -0.010
  526TIP3    H2 1524   5.296   1.945   0.089
  527TIP3   OH2 1525   6.232   2.126   0.632
  527TIP3    H1 1526   6.252   2.177   0.553
  527TIP3    H2 1527   6.145   2.090   0.615
  528TIP3   OH2 1528   5.729   2.217   1.003
  528TIP3    H1 1529   5.758   2.198   1.092
  528TIP3    H2 1530   5.688   2.303   1.009
  529TIP3   OH2 1531   5.025   1.921   0.679
  529TIP3    H1 1532   5.058   1.891   0.594
  529TIP3    H2 1533   5.063   1.860   0.743
  530TIP3   OH2 1534   8.310   6.074   6.792
  530TIP3    H1 1535   8.261   6.155   6.780
  530TIP3    H2 1536   8.246   6.014   6.831
  531TIP3   OH2 1537   4.904   1.833   1.294
  531TIP3    H1 1538   4.917   1.821   1.388
  531TIP3    H2 1539   4.832   1.774   1.272
  532TIP3   OH2 1540   5.631   1.953   1.313
  532TIP3    H1 1541   5.567   1.896   1.271
  532TIP3    H2 1542   5.716   1.919   1.285
  533TIP3   OH2 1543   5.885   2.481   0.899
  533TIP3    H1 1544   5.790   2.474   0.911
  533TIP3    H2 1545   5.915   2.529   0.976
  534TIP3   OH2 1546   6.526   2.421   0.851
  534TIP3    H1 1547   6.451   2.403   0.909
  534TIP3    H2 1548   6.493   2.404   0.763
  535TIP3   OH2 1549   5.985   2.012   0.561
  535TIP3    H1 1550   5.892   1.990   0.574
  535TIP3    H2 1551   6.022   1.933   0.521
  536TIP3   OH2 1552   5.121   2.225   0.308
  536TIP3    H1 1553   5.120   2.303   0.252
  536TIP3    H2 1554   5.029   2.201   0.318
  537TIP3   OH2 1555   4.707   1.516   0.046
  537TIP3    H1 1556   4.736   1.607   0.044
  537TIP3    H2 1557   4.618   1.521   0.083
  538TIP3   OH2 1558   5.263   1.990   0.259
  538TIP3    H1 1559   5.226   2.077   0.272
  538TIP3    H2 1560   5.224   1.936   0.329
  539TIP3   OH2 1561   5.395   2.567   0.775
  539TIP3    H1 1562   5.436   2.638   0.725
  539TIP3    H2 1563   5.467   2.527   0.823
  540TIP3   OH2 1564   5.036   2.465   0.157
  540TIP3    H1 1565   4.952   2.467   0.204
  540TIP3    H2 1566   5.068   2.555   0.161
  541TIP3   OH2 1567   5.778   2.200   0.736
  541TIP3    H1 1568   5.767   2.198   0.831
  541TIP3    H2 1569   5.855   2.145   0.719
  542TIP3   OH2 1570   6.026   2.730   0.783
  542TIP3    H1 1571   5.950   2.673   0.782
  542TIP3    H2 1572   6.009   2.793   0.713
  543TIP3   OH2 1573   5.107   1.343   1.303
  543TIP3    H1 1574   5.012   1.350   1.312
  543TIP3    H2 1575   5.134   1.288   1.377
  544TIP3   OH2 1576   4.832   2.427   0.934
  544TIP3    H1 1577   4.884   2.353   0.967
  544TIP3    H2 1578   4.853   2.499   0.992
  545TIP3   OH2 1579   8.003   6.013   6.608
  545TIP3    H1 1580   7.937   5.995   6.541
  545TIP3    H2 1581   7.953   6.031   6.687
  546TIP3   OH2 1582   7.891   6.090   6.854
  546TIP3    H1 1583   7.971   6.051   6.888
  546TIP3    H2 1584   7.906   6.184   6.859
  547TIP3   OH2 1585   4.801   1.784   0.095
  547TIP3    H1 1586   4.734   1.826   0.150
  547TIP3    H2 1587   4.818   1.847   0.025
  548TIP3   OH2 1588   5.954   1.406   0.993
  548TIP3    H1 1589   6.030   1.449   1.032
  548TIP3    H2 1590   5.941   1.327   1.045
  549TIP3   OH2 1591   8.163   6.302   6.760
  549TIP3    H1 1592   8.080   6.319   6.805
  549TIP3    H2 1593   8.155   6.347   6.676
  550TIP3   OH2 1594   5.790   1.652   1.061
  550TIP3    H1 1595   5.809   1.710   1.135
  550TIP3    H2 1596   5.844   1.574   1.077
  551TIP3   OH2 1597   7.915   6.365   6.849
  551TIP3    H1 1598   7.885   6.431   6.786
  551TIP3    H2 1599   7.892   6.401   6.935
  552TIP3   OH2 1600   6.428   1.552   1.056
  552TIP3    H1 1601   6.333   1.547   1.045
  552TIP3    H2 1602   6.463   1.548   0.967
  553TIP3   OH2 1603   6.072   1.766   0.476
  553TIP3    H1 1604   5.998   1.718   0.513
  553TIP3    H2 1605   6.148   1.732   0.523
  554TIP3   OH2 1606   7.629   6.005   6.847
  554TIP3    H1 1607   7.706   6.059   6.866
  554TIP3    H2 1608   7.661   5.939   6.785
  555TIP3   OH2 1609   6.046   2.718   0.369
  555TIP3    H1 1610   6.002   2.765   0.299
  555TIP3    H2 1611   6.139   2.736   0.354
  556TIP3   OH2 1612   5.116   0.967   0.903
  556TIP3    H1 1613   5.092   0.924   0.821
  556TIP3    H2 1614   5.107   0.899   0.970
  557TIP3   OH2 1615   4.660   2.200   0.281
  557TIP3    H1 1616   4.596   2.224   0.348
  557TIP3    H2 1617   4.626   2.239   0.200
  558TIP3   OH2 1618   4.824   2.741   1.356
  558TIP3    H1 1619   4.908   2.744   1.402
  558TIP3    H2 1620   4.800   2.649   1.355
  559TIP3   OH2 1621   5.300   2.696   1.400
  559TIP3    H1 1622   5.394   2.680   1.408
  559TIP3    H2 1623   5.271   2.637   1.331
  560TIP3   OH2 1624   5.942   2.606   1.136
  560TIP3    H1 1625   5.932   2.539   1.203
  560TIP3    H2 1626   6.017   2.658   1.164
  561TIP3   OH2 1627   4.949   2.143   1.555
  561TIP3    H1 1628   4.966   2.049   1.563
  561TIP3    H2 1629   4.864   2.149   1.512
  562TIP3   OH2 1630   7.761   5.818   6.710
  562TIP3    H1 1631   7.790   5.728   6.722
  562TIP3    H2 1632   7.781   5.838   6.619
  563TIP3   OH2 1633   5.557   2.230   1.330
  563TIP3    H1 1634   5.516   2.251   1.246
  563TIP3    H2 1635   5.587   2.139   1.319
  564TIP3   OH2 1636   6.055   2.251   0.938
  564TIP3    H1 1637   6.128   2.293   0.892
  564TIP3    H2 1638   5.980   2.309   0.923
  565TIP3   OH2 1639   5.073   1.883   1.543
  565TIP3    H1 1640   5.147   1.830   1.514
  565TIP3    H2 1641   5.099   1.915   1.630
  566TIP3   OH2 1642   5.163   1.672  -0.000
  566TIP3    H1 1643   5.113   1.678   0.082
  566TIP3    H2 1644   5.109   1.616  -0.056
  567TIP3   OH2 1645   5.408   1.766   1.201
  567TIP3    H1 1646   5.329   1.820   1.202
  567TIP3    H2 1647   5.457   1.797   1.125
  568TIP3   OH2 1648   5.931   2.163   1.329
  568TIP3    H1 1649   6.000   2.126   1.274
  568TIP3    H2 1650   5.922   2.101   1.402
  569TIP3   OH2 1651   5.529   1.553   1.323
  569TIP3    H1 1652   5.529   1.475   1.268
  569TIP3    H2 1653   5.487   1.620   1.270
  570TIP3   OH2 1654   5.529   1.340   1.133
  570TIP3    H1 1655   5.556   1.380   1.051
  570TIP3    H2 1656   5.437   1.316   1.119
  571TIP3   OH2 1657   5.557   1.873   1.005
  571TIP3    H1 1658   5.642   1.888   0.964
  571TIP3    H2 1659   5.499   1.936   0.962
  572TIP3   OH2 1660   6.150   1.846   1.383
  572TIP3    H1 1661   6.197   1.763   1.393
  572TIP3    H2 1662   6.218   1.910   1.362
  573TIP3   OH2 1663   6.159   2.069   1.111
  573TIP3    H1 1664   6.119   2.135   1.055
  573TIP3    H2 1665   6.241   2.108   1.140
  574TIP3   OH2 1666   5.409   1.655   1.560
  574TIP3    H1 1667   5.341   1.590   1.576
  574TIP3    H2 1668   5.441   1.635   1.472
  575TIP3   OH2 1669   5.660   1.102   1.204
  575TIP3    H1 1670   5.609   1.180   1.182
  575TIP3    H2 1671   5.599   1.029   1.192
  576TIP3   OH2 1672   5.788   1.601   1.419
  576TIP3    H1 1673   5.777   1.589   1.514
  576TIP3    H2 1674   5.702   1.580   1.382
  577TIP3   OH2 1675   6.026   1.551   1.270
  577TIP3    H1 1676   5.953   1.555   1.332
  577TIP3    H2 1677   6.102   1.526   1.325
  578TIP3   OH2 1678   6.247   1.496   1.427
  578TIP3    H1 1679   6.262   1.402   1.440
  578TIP3    H2 1680   6.247   1.532   1.516
  579TIP3   OH2 1681   5.247   1.436   1.614
  579TIP3    H1 1682   5.249   1.347   1.579
  579TIP3    H2 1683   5.282   1.427   1.703
  580TIP3   OH2 1684   5.743   1.111   1.467
  580TIP3    H1 1685   5.815   1.048   1.466
  580TIP3    H2 1686   5.708   1.109   1.378
  581TIP3   OH2 1687   5.820   1.324   1.623
  581TIP3    H1 1688   5.799   1.254   1.560
  581TIP3    H2 1689   5.746   1.384   1.618
  582TIP3   OH2 1690   7.894   6.551   6.644
  582TIP3    H1 1691   7.977   6.541   6.597
  582TIP3    H2 1692   7.846   6.617   6.595
  583TIP3   OH2 1693   7.362   5.945   6.887
  583TIP3    H1 1694   7.449   5.983   6.870
  583TIP3    H2 1695   7.360   5.866   6.832
  584TIP3   OH2 1696   4.441   2.546   0.351
  584TIP3    H1 1697   4.375   2.489   0.311
  584TIP3    H2 1698   4.486   2.490   0.415
  585TIP3   OH2 1699   4.576   2.395   0.539
  585TIP3    H1 1700   4.560   2.323   0.601
  585TIP3    H2 1701   4.626   2.459   0.590
  586TIP3   OH2 1702   6.299   2.808   0.340
  586TIP3    H1 1703   6.329   2.833   0.427
  586TIP3    H2 1704   6.377   2.816   0.285
  587TIP3   OH2 1705   6.331   2.817   0.619
  587TIP3    H1 1706   6.284   2.734   0.615
  587TIP3    H2 1707   6.408   2.799   0.673
  588TIP3   OH2 1708   6.373   2.499   1.157
  588TIP3    H1 1709   6.315   2.486   1.231
  588TIP3    H2 1710   6.420   2.580   1.177
  589TIP3   OH2 1711   6.357   2.270   0.438
  589TIP3    H1 1712   6.429   2.213   0.411
  589TIP3    H2 1713   6.363   2.345   0.379
  590TIP3   OH2 1714   6.204   2.571   0.638
  590TIP3    H1 1715   6.136   2.612   0.691
  590TIP3    H2 1716   6.156   2.526   0.568
  591TIP3   OH2 1717   4.762   1.803   0.908
  591TIP3    H1 1718   4.755   1.772   0.818
  591TIP3    H2 1719   4.856   1.806   0.925
  592TIP3   OH2 1720   6.445   2.158   0.982
  592TIP3    H1 1721   6.459   2.100   1.056
  592TIP3    H2 1722   6.406   2.237   1.021
  593TIP3   OH2 1723   6.617   1.945   1.005
  593TIP3    H1 1724   6.547   1.908   1.060
  593TIP3    H2 1725   6.695   1.894   1.028
  594TIP3   OH2 1726   6.285   1.644   0.604
  594TIP3    H1 1727   6.377   1.628   0.580
  594TIP3    H2 1728   6.290   1.688   0.688
  595TIP3   OH2 1729   6.372   1.802   0.808
  595TIP3    H1 1730   6.293   1.822   0.858
  595TIP3    H2 1731   6.394   1.884   0.764
  596TIP3   OH2 1732   4.981   1.489   1.585
  596TIP3    H1 1733   5.077   1.486   1.587
  596TIP3    H2 1734   4.954   1.405   1.622
  597TIP3   OH2 1735   6.822   1.360   1.333
  597TIP3    H1 1736   6.874   1.297   1.283
  597TIP3    H2 1737   6.785   1.417   1.266
  598TIP3   OH2 1738   4.946   1.185   0.914
  598TIP3    H1 1739   5.007   1.111   0.920
  598TIP3    H2 1740   5.003   1.262   0.917
  599TIP3   OH2 1741   4.745   1.457   0.986
  599TIP3    H1 1742   4.787   1.452   0.900
  599TIP3    H2 1743   4.768   1.543   1.020
  600TIP3   OH2 1744   6.691   1.514   1.154
  600TIP3    H1 1745   6.611   1.547   1.196
  600TIP3    H2 1746   6.660   1.442   1.099
  601TIP3   OH2 1747   4.698   0.995   0.515
  601TIP3    H1 1748   4.609   0.978   0.546
  601TIP3    H2 1749   4.687   1.063   0.448
  602TIP3   OH2 1750   0.213   6.651   6.929
  602TIP3    H1 1751   0.236   6.606   6.847
  602TIP3    H2 1752   0.266   6.730   6.928
  603TIP3   OH2 1753   4.941   1.035   1.298
  603TIP3    H1 1754   4.895   1.038   1.382
  603TIP3    H2 1755   4.883   1.079   1.236
  604TIP3   OH2 1756   4.985   2.470   1.376
  604TIP3    H1 1757   4.893   2.447   1.359
  604TIP3    H2 1758   4.997   2.452   1.469
  605TIP3   OH2 1759   5.168   2.508   0.922
  605TIP3    H1 1760   5.116   2.580   0.888
  605TIP3    H2 1761   5.253   2.518   0.880
  606TIP3   OH2 1762   5.609   2.748   1.061
  606TIP3    H1 1763   5.647   2.745   1.149
  606TIP3    H2 1764   5.672   2.798   1.010
  607TIP3   OH2 1765   5.789   2.902   0.924
  607TIP3    H1 1766   5.856   2.848   0.882
  607TIP3    H2 1767   5.837   2.958   0.984
  608TIP3   OH2 1768   4.839   2.764   0.948
  608TIP3    H1 1769   4.751   2.792   0.925
  608TIP3    H2 1770   4.854   2.802   1.035
  609TIP3   OH2 1771   5.075   2.741   0.807
  609TIP3    H1 1772   4.991   2.751   0.852
  609TIP3    H2 1773   5.058   2.769   0.717
  610TIP3   OH2 1774   5.502   2.767   0.604
  610TIP3    H1 1775   5.430   2.783   0.542
  610TIP3    H2 1776   5.514   2.851   0.648
  611TIP3   OH2 1777   5.771   2.706   0.657
  611TIP3    H1 1778   5.678   2.721   0.638
  611TIP3    H2 1779   5.817   2.779   0.614
  612TIP3   OH2 1780   5.979   2.896   0.568
  612TIP3    H1 1781   5.964   2.979   0.522
  612TIP3    H2 1782   6.005   2.835   0.498
  613TIP3   OH2 1783   4.757   2.552   0.694
  613TIP3    H1 1784   4.778   2.526   0.783
  613TIP3    H2 1785   4.824   2.510   0.640
  614TIP3   OH2 1786   4.950   2.424   0.553
  614TIP3    H1 1787   4.961   2.342   0.601
  614TIP3    H2 1788   5.039   2.460   0.547
  615TIP3   OH2 1789   5.220   2.517   0.557
  615TIP3    H1 1790   5.244   2.426   0.542
  615TIP3    H2 1791   5.263   2.541   0.639
  616TIP3   OH2 1792   4.538   2.327   0.079
  616TIP3    H1 1793   4.455   2.288   0.051
  616TIP3    H2 1794   4.530   2.420   0.057
  617TIP3   OH2 1795   5.245   1.162   1.548
  617TIP3    H1 1796   5.206   1.094   1.603
  617TIP3    H2 1797   5.337   1.164   1.574
  618TIP3   OH2 1798   5.496   1.162   1.666
  618TIP3    H1 1799   5.577   1.139   1.620
  618TIP3    H2 1800   5.483   1.092   1.730
  619TIP3   OH2 1801   7.506   6.375   6.700
  619TIP3    H1 1802   7.442   6.413   6.761
  619TIP3    H2 1803   7.515   6.284   6.729
  620TIP3   OH2 1804   6.305   1.225   1.461
  620TIP3    H1 1805   6.325   1.197   1.550
  620TIP3    H2 1806   6.391   1.226   1.417
  621TIP3   OH2 1807   6.255   2.780   0.940
  621TIP3    H1 1808   6.178   2.746   0.894
  621TIP3    H2 1809   6.236   2.873   0.953
  622TIP3   OH2 1810   6.841   2.066   0.488
  622TIP3    H1 1811   6.882   2.043   0.571
  622TIP3    H2 1812   6.884   2.147   0.462
  623TIP3   OH2 1813   6.777   2.450   0.195
  623TIP3    H1 1814   6.753   2.391   0.124
  623TIP3    H2 1815   6.873   2.445   0.197
  624TIP3   OH2 1816   7.074   2.275   0.334
  624TIP3    H1 1817   7.046   2.351   0.385
  624TIP3    H2 1818   7.166   2.293   0.312
  625TIP3   OH2 1819   6.993   2.499   0.472
  625TIP3    H1 1820   6.977   2.589   0.441
  625TIP3    H2 1821   6.917   2.480   0.528
  626TIP3   OH2 1822   7.208   2.609   0.620
  626TIP3    H1 1823   7.151   2.672   0.663
  626TIP3    H2 1824   7.149   2.555   0.567
  627TIP3   OH2 1825   7.000   2.773   0.697
  627TIP3    H1 1826   6.968   2.784   0.607
  627TIP3    H2 1827   6.922   2.751   0.748
  628TIP3   OH2 1828   6.441   2.497   0.284
  628TIP3    H1 1829   6.535   2.500   0.269
  628TIP3    H2 1830   6.422   2.575   0.336
  629TIP3   OH2 1831   7.401   2.725   0.462
  629TIP3    H1 1832   7.406   2.817   0.490
  629TIP3    H2 1833   7.335   2.686   0.519
  630TIP3   OH2 1834   6.781   2.472   0.646
  630TIP3    H1 1835   6.847   2.457   0.714
  630TIP3    H2 1836   6.700   2.489   0.694
  631TIP3   OH2 1837   6.938   1.880   0.703
  631TIP3    H1 1838   6.945   1.895   0.797
  631TIP3    H2 1839   6.915   1.787   0.694
  632TIP3   OH2 1840   6.945   2.427   0.861
  632TIP3    H1 1841   7.029   2.448   0.903
  632TIP3    H2 1842   6.883   2.419   0.933
  633TIP3   OH2 1843   7.489   2.447   0.563
  633TIP3    H1 1844   7.541   2.470   0.639
  633TIP3    H2 1845   7.485   2.528   0.511
  634TIP3   OH2 1846   7.422   2.206   0.802
  634TIP3    H1 1847   7.346   2.160   0.768
  634TIP3    H2 1848   7.492   2.186   0.739
  635TIP3   OH2 1849   7.183   2.829   0.307
  635TIP3    H1 1850   7.194   2.850   0.214
  635TIP3    H2 1851   7.269   2.797   0.335
  636TIP3   OH2 1852   6.628   2.685   0.431
  636TIP3    H1 1853   6.693   2.618   0.450
  636TIP3    H2 1854   6.659   2.762   0.479
  637TIP3   OH2 1855   6.621   3.002   0.844
  637TIP3    H1 1856   6.704   3.006   0.892
  637TIP3    H2 1857   6.599   2.908   0.843
  638TIP3   OH2 1858   7.092   2.952   0.890
  638TIP3    H1 1859   7.187   2.943   0.899
  638TIP3    H2 1860   7.069   2.894   0.817
  639TIP3   OH2 1861   6.743   2.401   1.052
  639TIP3    H1 1862   6.758   2.307   1.059
  639TIP3    H2 1863   6.663   2.408   1.001
  640TIP3   OH2 1864   7.365   2.489   0.819
  640TIP3    H1 1865   7.326   2.512   0.735
  640TIP3    H2 1866   7.386   2.396   0.812
  641TIP3   OH2 1867   6.873   2.132   1.025
  641TIP3    H1 1868   6.949   2.076   1.009
  641TIP3    H2 1869   6.890   2.172   1.110
  642TIP3   OH2 1870   7.221   2.072   0.679
  642TIP3    H1 1871   7.135   2.071   0.722
  642TIP3    H2 1872   7.212   2.006   0.609
  643TIP3   OH2 1873   7.155   1.946   1.042
  643TIP3    H1 1874   7.107   1.879   1.091
  643TIP3    H2 1875   7.195   1.898   0.969
  644TIP3   OH2 1876   7.038   1.713   1.122
  644TIP3    H1 1877   7.067   1.654   1.052
  644TIP3    H2 1878   7.078   1.676   1.201
  645TIP3   OH2 1879   6.370   2.647   0.030
  645TIP3    H1 1880   6.348   2.574   0.088
  645TIP3    H2 1881   6.428   2.703   0.082
  646TIP3   OH2 1882   6.567   2.067   0.420
  646TIP3    H1 1883   6.566   2.008   0.344
  646TIP3    H2 1884   6.659   2.088   0.433
  647TIP3   OH2 1885   6.780   1.750   1.063
  647TIP3    H1 1886   6.873   1.745   1.086
  647TIP3    H2 1887   6.741   1.672   1.102
  648TIP3   OH2 1888   6.778   2.721   0.857
  648TIP3    H1 1889   6.683   2.707   0.853
  648TIP3    H2 1890   6.799   2.710   0.950
  649TIP3   OH2 1891   6.948   2.768   0.415
  649TIP3    H1 1892   6.899   2.836   0.368
  649TIP3    H2 1893   7.038   2.779   0.386
  650TIP3   OH2 1894   7.406   3.002   0.542
  650TIP3    H1 1895   7.448   3.005   0.627
  650TIP3    H2 1896   7.464   3.051   0.484
  651TIP3   OH2 1897   7.575   3.140   0.331
  651TIP3    H1 1898   7.610   3.117   0.245
  651TIP3    H2 1899   7.587   3.234   0.339
  652TIP3   OH2 1900   6.630   3.010   0.456
  652TIP3    H1 1901   6.545   3.040   0.423
  652TIP3    H2 1902   6.648   3.065   0.531
  653TIP3   OH2 1903   6.845   2.998   0.285
  653TIP3    H1 1904   6.776   2.995   0.351
  653TIP3    H2 1905   6.816   3.064   0.222
  654TIP3   OH2 1906   6.538   2.797   0.198
  654TIP3    H1 1907   6.570   2.771   0.284
  654TIP3    H2 1908   6.611   2.782   0.139
  655TIP3   OH2 1909   6.757   2.700   0.071
  655TIP3    H1 1910   6.763   2.612   0.108
  655TIP3    H2 1911   6.832   2.706   0.012
  656TIP3   OH2 1912   0.840   2.653   2.064
  656TIP3    H1 1913   0.770   2.690   2.011
  656TIP3    H2 1914   0.897   2.727   2.085
  657TIP3   OH2 1915   0.504   3.406   1.980
  657TIP3    H1 1916   0.516   3.329   1.924
  657TIP3    H2 1917   0.505   3.480   1.920
  658TIP3   OH2 1918   0.701   3.011   1.785
  658TIP3    H1 1919   0.684   3.080   1.849
  658TIP3    H2 1920   0.764   3.050   1.724
  659TIP3   OH2 1921   0.441   2.911   2.138
  659TIP3    H1 1922   0.417   2.985   2.194
  659TIP3    H2 1923   0.360   2.888   2.093
  660TIP3   OH2 1924   0.736   3.770   1.997
  660TIP3    H1 1925   0.796   3.697   2.009
  660TIP3    H2 1926   0.670   3.758   2.065
  661TIP3   OH2 1927   8.370   3.536   2.182
  661TIP3    H1 1928   8.370   3.631   2.198
  661TIP3    H2 1929   8.280   3.508   2.198
  662TIP3   OH2 1930   0.631   2.881   2.335
  662TIP3    H1 1931   0.573   2.892   2.260
  662TIP3    H2 1932   0.673   2.796   2.321
  663TIP3   OH2 1933   0.113   2.853   2.503
  663TIP3    H1 1934   0.126   2.760   2.520
  663TIP3    H2 1935   0.201   2.889   2.497
  664TIP3   OH2 1936   0.444   4.092   2.121
  664TIP3    H1 1937   0.445   4.115   2.028
  664TIP3    H2 1938   0.524   4.131   2.157
  665TIP3   OH2 1939   0.485   3.180   1.806
  665TIP3    H1 1940   0.553   3.178   1.739
  665TIP3    H2 1941   0.458   3.089   1.816
  666TIP3   OH2 1942   8.492   3.287   2.204
  666TIP3    H1 1943   8.542   3.292   2.286
  666TIP3    H2 1944   8.454   3.374   2.193
  667TIP3   OH2 1945   0.124   3.539   2.074
  667TIP3    H1 1946   0.035   3.547   2.108
  667TIP3    H2 1947   0.180   3.578   2.142
  668TIP3   OH2 1948   0.763   3.431   2.087
  668TIP3    H1 1949   0.669   3.447   2.081
  668TIP3    H2 1950   0.792   3.420   1.996
  669TIP3   OH2 1951   0.273   3.777   1.960
  669TIP3    H1 1952   0.198   3.717   1.954
  669TIP3    H2 1953   0.254   3.845   1.896
  670TIP3   OH2 1954   0.649   2.604   2.245
  670TIP3    H1 1955   0.570   2.576   2.198
  670TIP3    H2 1956   0.718   2.605   2.178
  671TIP3   OH2 1957   0.293   3.781   1.573
  671TIP3    H1 1958   0.247   3.811   1.494
  671TIP3    H2 1959   0.385   3.798   1.555
  672TIP3   OH2 1960   8.045   3.736   2.585
  672TIP3    H1 1961   8.131   3.753   2.622
  672TIP3    H2 1962   8.062   3.723   2.492
  673TIP3   OH2 1963   0.197   3.647   2.312
  673TIP3    H1 1964   0.187   3.581   2.381
  673TIP3    H2 1965   0.271   3.701   2.341
  674TIP3   OH2 1966   8.314   3.283   2.519
  674TIP3    H1 1967   8.281   3.269   2.431
  674TIP3    H2 1968   8.386   3.220   2.529
  675TIP3   OH2 1969   0.295   3.275   2.096
  675TIP3    H1 1970   0.369   3.327   2.064
  675TIP3    H2 1971   0.222   3.336   2.100
  676TIP3   OH2 1972   0.164   3.202   2.505
  676TIP3    H1 1973   0.249   3.192   2.460
  676TIP3    H2 1974   0.170   3.143   2.580
  677TIP3   OH2 1975   0.400   2.876   2.564
  677TIP3    H1 1976   0.444   2.792   2.557
  677TIP3    H2 1977   0.458   2.938   2.520
  678TIP3   OH2 1978   0.430   3.149   2.297
  678TIP3    H1 1979   0.379   3.193   2.229
  678TIP3    H2 1980   0.521   3.156   2.267
  679TIP3   OH2 1981   0.493   2.547   2.595
  679TIP3    H1 1982   0.519   2.455   2.604
  679TIP3    H2 1983   0.525   2.588   2.675
  680TIP3   OH2 1984   0.550   3.849   1.521
  680TIP3    H1 1985   0.579   3.875   1.608
  680TIP3    H2 1986   0.612   3.890   1.461
  681TIP3   OH2 1987   0.581   3.861   1.797
  681TIP3    H1 1988   0.544   3.774   1.785
  681TIP3    H2 1989   0.651   3.850   1.861
  682TIP3   OH2 1990   0.618   3.544   2.366
  682TIP3    H1 1991   0.552   3.552   2.436
  682TIP3    H2 1992   0.666   3.626   2.368
  683TIP3   OH2 1993   0.676   3.330   1.582
  683TIP3    H1 1994   0.743   3.265   1.561
  683TIP3    H2 1995   0.703   3.409   1.535
  684TIP3   OH2 1996   0.444   3.620   1.811
  684TIP3    H1 1997   0.396   3.668   1.879
  684TIP3    H2 1998   0.389   3.627   1.733
  685TIP3   OH2 1999   0.690   3.184   2.194
  685TIP3    H1 2000   0.754   3.115   2.173
  685TIP3    H2 2001   0.723   3.261   2.149
  686TIP3   OH2 2002   0.635   2.801   1.952
  686TIP3    H1 2003   0.566   2.828   2.013
  686TIP3    H2 2004   0.647   2.876   1.894
  687TIP3   OH2 2005   1.068   2.408   2.515
  687TIP3    H1 2006   1.130   2.346   2.475
  687TIP3    H2 2007   1.024   2.449   2.440
  688TIP3   OH2 2008   0.910   2.513   2.321
  688TIP3    H1 2009   0.835   2.570   2.340
  688TIP3    H2 2010   0.930   2.531   2.229
  689TIP3   OH2 2011   8.361   3.801   2.238
  689TIP3    H1 2012   8.398   3.798   2.326
  689TIP3    H2 2013   8.426   3.849   2.187
  690TIP3   OH2 2014   0.049   3.939   2.098
  690TIP3    H1 2015   0.125   3.893   2.063
  690TIP3    H2 2016   0.085   4.002   2.159
  691TIP3   OH2 2017   0.012   3.758   1.808
  691TIP3    H1 2018  -0.070   3.790   1.847
  691TIP3    H2 2019   0.062   3.836   1.789
  692TIP3   OH2 2020   0.211   3.960   1.764
  692TIP3    H1 2021   0.201   4.045   1.723
  692TIP3    H2 2022   0.243   3.903   1.693
  693TIP3   OH2 2023   0.601   2.300   2.659
  693TIP3    H1 2024   0.609   2.240   2.733
  693TIP3    H2 2025   0.668   2.272   2.597
  694TIP3   OH2 2026   0.490   3.822   2.134
  694TIP3    H1 2027   0.416   3.796   2.078
  694TIP3    H2 2028   0.485   3.917   2.137
  695TIP3   OH2 2029   1.780   3.209   0.892
  695TIP3    H1 2030   1.751   3.294   0.858
  695TIP3    H2 2031   1.702   3.171   0.933
  696TIP3   OH2 2032   1.788   3.182   1.265
  696TIP3    H1 2033   1.808   3.172   1.358
  696TIP3    H2 2034   1.740   3.102   1.243
  697TIP3   OH2 2035   1.080   3.088   1.645
  697TIP3    H1 2036   1.104   3.013   1.699
  697TIP3    H2 2037   1.151   3.151   1.658
  698TIP3   OH2 2038   2.020   3.498   0.958
  698TIP3    H1 2039   1.988   3.440   1.027
  698TIP3    H2 2040   2.053   3.575   1.005
  699TIP3   OH2 2041   1.036   3.485   1.345
  699TIP3    H1 2042   1.037   3.391   1.359
  699TIP3    H2 2043   1.128   3.511   1.354
  700TIP3   OH2 2044   1.668   3.958   0.971
  700TIP3    H1 2045   1.710   3.890   0.919
  700TIP3    H2 2046   1.658   3.920   1.058
  701TIP3   OH2 2047   1.569   3.426   1.320
  701TIP3    H1 2048   1.593   3.359   1.255
  701TIP3    H2 2049   1.652   3.463   1.349
  702TIP3   OH2 2050   2.578   2.745   1.308
  702TIP3    H1 2051   2.603   2.823   1.357
  702TIP3    H2 2052   2.606   2.762   1.219
  703TIP3   OH2 2053   2.038   2.698   0.991
  703TIP3    H1 2054   2.093   2.625   0.962
  703TIP3    H2 2055   2.014   2.743   0.910
  704TIP3   OH2 2056   1.413   2.974   1.231
  704TIP3    H1 2057   1.506   2.958   1.247
  704TIP3    H2 2058   1.396   2.934   1.145
  705TIP3   OH2 2059   2.654   2.944   1.489
  705TIP3    H1 2060   2.573   2.990   1.468
  705TIP3    H2 2061   2.679   2.977   1.575
  706TIP3   OH2 2062   1.306   2.561   1.749
  706TIP3    H1 2063   1.237   2.611   1.706
  706TIP3    H2 2064   1.279   2.557   1.841
  707TIP3   OH2 2065   1.647   3.415   0.770
  707TIP3    H1 2066   1.609   3.406   0.683
  707TIP3    H2 2067   1.618   3.501   0.801
  708TIP3   OH2 2068   1.421   3.342   1.542
  708TIP3    H1 2069   1.358   3.403   1.580
  708TIP3    H2 2070   1.464   3.392   1.473
  709TIP3   OH2 2071   2.266   2.682   1.163
  709TIP3    H1 2072   2.279   2.591   1.190
  709TIP3    H2 2073   2.346   2.705   1.117
  710TIP3   OH2 2074   1.150   2.701   1.573
  710TIP3    H1 2075   1.219   2.767   1.581
  710TIP3    H2 2076   1.190   2.631   1.520
  711TIP3   OH2 2077   1.240   3.528   1.636
  711TIP3    H1 2078   1.222   3.609   1.589
  711TIP3    H2 2079   1.187   3.533   1.716
  712TIP3   OH2 2080   2.082   3.742   1.116
  712TIP3    H1 2081   1.996   3.731   1.157
  712TIP3    H2 2082   2.077   3.826   1.072
  713TIP3   OH2 2083   2.385   2.633   1.478
  713TIP3    H1 2084   2.304   2.680   1.459
  713TIP3    H2 2085   2.448   2.667   1.414
  714TIP3   OH2 2086   6.600   7.204   6.361
  714TIP3    H1 2087   6.567   7.114   6.368
  714TIP3    H2 2088   6.522   7.259   6.372
  715TIP3   OH2 2089   1.787   3.785   0.790
  715TIP3    H1 2090   1.831   3.701   0.773
  715TIP3    H2 2091   1.846   3.851   0.753
  716TIP3   OH2 2092   1.926   3.568   0.706
  716TIP3    H1 2093   1.931   3.495   0.644
  716TIP3    H2 2094   1.962   3.533   0.787
  717TIP3   OH2 2095   2.310   3.652   1.461
  717TIP3    H1 2096   2.301   3.575   1.405
  717TIP3    H2 2097   2.293   3.726   1.403
  718TIP3   OH2 2098   2.505   3.289   1.304
  718TIP3    H1 2099   2.424   3.339   1.313
  718TIP3    H2 2100   2.539   3.312   1.218
  719TIP3   OH2 2101   1.945   3.129   0.687
  719TIP3    H1 2102   1.892   3.155   0.763
  719TIP3    H2 2103   2.029   3.103   0.724
  720TIP3   OH2 2104   2.181   3.170   1.613
  720TIP3    H1 2105   2.188   3.248   1.668
  720TIP3    H2 2106   2.098   3.180   1.568
  721TIP3   OH2 2107   1.313   3.535   1.250
  721TIP3    H1 2108   1.303   3.505   1.160
  721TIP3    H2 2109   1.398   3.500   1.278
  722TIP3   OH2 2110   1.312   3.101   1.459
  722TIP3    H1 2111   1.350   3.070   1.377
  722TIP3    H2 2112   1.358   3.183   1.477
  723TIP3   OH2 2113   1.845   3.733   1.242
  723TIP3    H1 2114   1.832   3.813   1.293
  723TIP3    H2 2115   1.826   3.663   1.304
  724TIP3   OH2 2116   1.435   3.654   1.785
  724TIP3    H1 2117   1.374   3.690   1.848
  724TIP3    H2 2118   1.381   3.603   1.725
  725TIP3   OH2 2119   1.209   3.215   1.877
  725TIP3    H1 2120   1.219   3.299   1.922
  725TIP3    H2 2121   1.118   3.191   1.892
  726TIP3   OH2 2122   1.535   3.670   0.781
  726TIP3    H1 2123   1.619   3.715   0.796
  726TIP3    H2 2124   1.473   3.740   0.762
  727TIP3   OH2 2125   2.098   3.600   0.109
  727TIP3    H1 2126   2.115   3.693   0.093
  727TIP3    H2 2127   2.184   3.559   0.105
  728TIP3   OH2 2128   0.795   3.345   1.839
  728TIP3    H1 2129   0.785   3.341   1.744
  728TIP3    H2 2130   0.865   3.282   1.858
  729TIP3   OH2 2131   0.727   3.571   1.443
  729TIP3    H1 2132   0.822   3.577   1.446
  729TIP3    H2 2133   0.697   3.636   1.507
  730TIP3   OH2 2134   2.546   3.997   1.511
  730TIP3    H1 2135   2.549   3.902   1.525
  730TIP3    H2 2136   2.466   4.024   1.555
  731TIP3   OH2 2137   1.647   3.779   1.649
  731TIP3    H1 2138   1.649   3.870   1.678
  731TIP3    H2 2139   1.574   3.740   1.697
  732TIP3   OH2 2140   1.417   3.904   0.605
  732TIP3    H1 2141   1.382   3.889   0.517
  732TIP3    H2 2142   1.388   3.992   0.627
  733TIP3   OH2 2143   0.851   3.765   0.975
  733TIP3    H1 2144   0.892   3.745   1.059
  733TIP3    H2 2145   0.807   3.684   0.949
  734TIP3   OH2 2146   1.613   3.802   0.242
  734TIP3    H1 2147   1.670   3.747   0.189
  734TIP3    H2 2148   1.660   3.812   0.325
  735TIP3   OH2 2149   1.671   3.863   0.515
  735TIP3    H1 2150   1.583   3.870   0.551
  735TIP3    H2 2151   1.722   3.821   0.584
  736TIP3   OH2 2152   2.439   3.124   1.788
  736TIP3    H1 2153   2.361   3.136   1.734
  736TIP3    H2 2154   2.459   3.031   1.781
  737TIP3   OH2 2155   1.969   2.476   1.791
  737TIP3    H1 2156   2.039   2.450   1.851
  737TIP3    H2 2157   1.888   2.457   1.837
  738TIP3   OH2 2158   2.199   2.904   1.704
  738TIP3    H1 2159   2.155   2.899   1.789
  738TIP3    H2 2160   2.184   2.994   1.675
  739TIP3   OH2 2161   1.365   2.882   1.615
  739TIP3    H1 2162   1.324   2.900   1.700
  739TIP3    H2 2163   1.347   2.960   1.563
  740TIP3   OH2 2164   1.765   2.868   0.827
  740TIP3    H1 2165   1.676   2.900   0.813
  740TIP3    H2 2166   1.811   2.889   0.745
  741TIP3   OH2 2167   1.915   3.119   1.939
  741TIP3    H1 2168   1.891   3.050   2.001
  741TIP3    H2 2169   2.007   3.138   1.960
  742TIP3   OH2 2170   1.187   2.905   1.829
  742TIP3    H1 2171   1.189   2.964   1.904
  742TIP3    H2 2172   1.165   2.820   1.865
  743TIP3   OH2 2173   1.904   3.107   1.516
  743TIP3    H1 2174   1.931   3.025   1.475
  743TIP3    H2 2175   1.873   3.081   1.602
  744TIP3   OH2 2176   2.022   2.683   1.358
  744TIP3    H1 2177   2.024   2.705   1.451
  744TIP3    H2 2178   1.972   2.601   1.354
  745TIP3   OH2 2179   2.244   4.348   1.609
  745TIP3    H1 2180   2.240   4.370   1.516
  745TIP3    H2 2181   2.322   4.393   1.641
  746TIP3   OH2 2182   1.676   2.902   1.299
  746TIP3    H1 2183   1.702   2.822   1.253
  746TIP3    H2 2184   1.664   2.875   1.390
  747TIP3   OH2 2185   1.635   2.826   1.563
  747TIP3    H1 2186   1.546   2.852   1.586
  747TIP3    H2 2187   1.691   2.875   1.623
  748TIP3   OH2 2188   2.273   3.437   1.294
  748TIP3    H1 2189   2.300   3.487   1.217
  748TIP3    H2 2190   2.186   3.405   1.273
  749TIP3   OH2 2191   1.772   3.517   1.668
  749TIP3    H1 2192   1.799   3.497   1.758
  749TIP3    H2 2193   1.731   3.604   1.674
  750TIP3   OH2 2194   1.054   3.204   1.345
  750TIP3    H1 2195   1.108   3.179   1.270
  750TIP3    H2 2196   1.096   3.163   1.420
  751TIP3   OH2 2197   0.944   3.140   1.950
  751TIP3    H1 2198   0.986   3.166   2.032
  751TIP3    H2 2199   0.932   3.045   1.959
  752TIP3   OH2 2200   1.673   3.255   1.976
  752TIP3    H1 2201   1.609   3.191   1.944
  752TIP3    H2 2202   1.757   3.219   1.949
  753TIP3   OH2 2203   1.928   3.776   1.565
  753TIP3    H1 2204   1.833   3.773   1.578
  753TIP3    H2 2205   1.960   3.827   1.640
  754TIP3   OH2 2206   2.335   2.846   0.464
  754TIP3    H1 2207   2.292   2.781   0.407
  754TIP3    H2 2208   2.322   2.930   0.419
  755TIP3   OH2 2209   2.559   3.708   1.548
  755TIP3    H1 2210   2.464   3.703   1.545
  755TIP3    H2 2211   2.589   3.678   1.462
  756TIP3   OH2 2212   2.047   3.663   0.378
  756TIP3    H1 2213   2.012   3.594   0.434
  756TIP3    H2 2214   2.051   3.624   0.291
  757TIP3   OH2 2215   2.028   3.314   1.222
  757TIP3    H1 2216   1.937   3.289   1.236
  757TIP3    H2 2217   2.068   3.239   1.178
  758TIP3   OH2 2218   1.196   3.536   0.966
  758TIP3    H1 2219   1.175   3.625   0.936
  758TIP3    H2 2220   1.111   3.497   0.986
  759TIP3   OH2 2221   1.364   3.311   0.979
  759TIP3    H1 2222   1.327   3.398   0.961
  759TIP3    H2 2223   1.288   3.253   0.978
  760TIP3   OH2 2224   1.448   3.871   1.433
  760TIP3    H1 2225   1.489   3.942   1.383
  760TIP3    H2 2226   1.519   3.834   1.485
  761TIP3   OH2 2227   1.101   3.773   0.859
  761TIP3    H1 2228   1.009   3.781   0.883
  761TIP3    H2 2229   1.128   3.861   0.834
  762TIP3   OH2 2230   1.822   3.496   1.402
  762TIP3    H1 2231   1.809   3.500   1.496
  762TIP3    H2 2232   1.909   3.457   1.391
  763TIP3   OH2 2233   1.811   3.428   0.294
  763TIP3    H1 2234   1.865   3.400   0.368
  763TIP3    H2 2235   1.746   3.358   0.285
  764TIP3   OH2 2236   2.069   4.032   1.446
  764TIP3    H1 2237   1.992   3.976   1.443
  764TIP3    H2 2238   2.056   4.096   1.376
  765TIP3   OH2 2239   2.138   3.877   0.092
  765TIP3    H1 2240   2.194   3.948   0.059
  765TIP3    H2 2241   2.062   3.921   0.128
  766TIP3   OH2 2242   1.164   2.629   1.978
  766TIP3    H1 2243   1.096   2.685   2.016
  766TIP3    H2 2244   1.203   2.585   2.054
  767TIP3   OH2 2245   1.968   3.355   0.520
  767TIP3    H1 2246   1.942   3.276   0.567
  767TIP3    H2 2247   2.057   3.338   0.491
  768TIP3   OH2 2248   0.891   3.726   1.618
  768TIP3    H1 2249   0.949   3.660   1.656
  768TIP3    H2 2250   0.899   3.802   1.676
  769TIP3   OH2 2251   2.010   2.701   1.631
  769TIP3    H1 2252   2.078   2.749   1.677
  769TIP3    H2 2253   1.990   2.627   1.687
  770TIP3   OH2 2254   1.372   3.565   0.479
  770TIP3    H1 2255   1.355   3.583   0.572
  770TIP3    H2 2256   1.393   3.650   0.441
  771TIP3   OH2 2257   1.839   2.956   1.729
  771TIP3    H1 2258   1.853   3.014   1.804
  771TIP3    H2 2259   1.889   2.877   1.750
  772TIP3   OH2 2260   2.468   2.859   1.709
  772TIP3    H1 2261   2.373   2.859   1.712
  772TIP3    H2 2262   2.489   2.822   1.623
  773TIP3   OH2 2263   2.094   4.013   1.037
  773TIP3    H1 2264   2.049   4.058   0.966
  773TIP3    H2 2265   2.187   4.030   1.020
  774TIP3   OH2 2266   0.869   4.037   2.015
  774TIP3    H1 2267   0.950   4.037   2.066
  774TIP3    H2 2268   0.845   3.945   2.008
  775TIP3   OH2 2269   1.351   4.006   2.063
  775TIP3    H1 2270   1.442   3.983   2.083
  775TIP3    H2 2271   1.325   3.943   1.996
  776TIP3   OH2 2272   1.988   3.908   1.798
  776TIP3    H1 2273   1.978   3.840   1.865
  776TIP3    H2 2274   2.062   3.960   1.827
  777TIP3   OH2 2275   1.772   3.616   0.104
  777TIP3    H1 2276   1.789   3.557   0.178
  777TIP3    H2 2277   1.857   3.623   0.059
  778TIP3   OH2 2278   0.987   3.449   2.249
  778TIP3    H1 2279   1.037   3.374   2.219
  778TIP3    H2 2280   0.911   3.452   2.191
  779TIP3   OH2 2281   1.601   3.532   1.988
  779TIP3    H1 2282   1.553   3.546   1.907
  779TIP3    H2 2283   1.630   3.441   1.984
  780TIP3   OH2 2284   2.093   3.543   1.596
  780TIP3    H1 2285   2.170   3.584   1.556
  780TIP3    H2 2286   2.024   3.609   1.587
  781TIP3   OH2 2287   1.101   3.196   2.185
  781TIP3    H1 2288   1.095   3.101   2.183
  781TIP3    H2 2289   1.147   3.217   2.266
  782TIP3   OH2 2290   1.456   3.071   1.866
  782TIP3    H1 2291   1.374   3.119   1.867
  782TIP3    H2 2292   1.502   3.103   1.788
  783TIP3   OH2 2293   1.968   3.465   1.997
  783TIP3    H1 2294   2.050   3.439   1.954
  783TIP3    H2 2295   1.958   3.404   2.070
  784TIP3   OH2 2296   1.580   2.856   1.983
  784TIP3    H1 2297   1.570   2.775   1.932
  784TIP3    H2 2298   1.532   2.922   1.933
  785TIP3   OH2 2299   1.570   2.637   1.789
  785TIP3    H1 2300   1.597   2.678   1.707
  785TIP3    H2 2301   1.479   2.612   1.774
  786TIP3   OH2 2302   1.598   3.173   1.660
  786TIP3    H1 2303   1.683   3.197   1.622
  786TIP3    H2 2304   1.537   3.237   1.625
  787TIP3   OH2 2305   2.184   3.137   2.048
  787TIP3    H1 2306   2.229   3.055   2.067
  787TIP3    H2 2307   2.252   3.195   2.015
  788TIP3   OH2 2308   2.226   3.395   1.780
  788TIP3    H1 2309   2.167   3.448   1.726
  788TIP3    H2 2310   2.313   3.415   1.746
  789TIP3   OH2 2311   1.463   2.962   2.223
  789TIP3    H1 2312   1.395   2.896   2.240
  789TIP3    H2 2313   1.490   2.945   2.132
  790TIP3   OH2 2314   1.705   2.404   1.864
  790TIP3    H1 2315   1.660   2.487   1.845
  790TIP3    H2 2316   1.640   2.337   1.842
  791TIP3   OH2 2317   1.833   2.903   2.084
  791TIP3    H1 2318   1.821   2.890   2.178
  791TIP3    H2 2319   1.747   2.883   2.046
  792TIP3   OH2 2320   2.069   2.850   1.935
  792TIP3    H1 2321   1.997   2.855   1.998
  792TIP3    H2 2322   2.145   2.823   1.988
  793TIP3   OH2 2323   2.298   2.796   2.085
  793TIP3    H1 2324   2.314   2.702   2.099
  793TIP3    H2 2325   2.296   2.834   2.173
  794TIP3   OH2 2326   1.318   2.741   2.280
  794TIP3    H1 2327   1.289   2.655   2.248
  794TIP3    H2 2328   1.330   2.728   2.374
  795TIP3   OH2 2329   1.804   2.410   2.122
  795TIP3    H1 2330   1.869   2.340   2.118
  795TIP3    H2 2331   1.761   2.407   2.037
  796TIP3   OH2 2332   1.868   2.625   2.283
  796TIP3    H1 2333   1.848   2.556   2.220
  796TIP3    H2 2334   1.792   2.684   2.278
  797TIP3   OH2 2335   0.624   3.726   1.223
  797TIP3    H1 2336   0.659   3.663   1.286
  797TIP3    H2 2337   0.666   3.809   1.246
  798TIP3   OH2 2338   2.349   4.102   1.001
  798TIP3    H1 2339   2.375   4.131   1.089
  798TIP3    H2 2340   2.415   4.139   0.943
  799TIP3   OH2 2341   2.377   4.117   1.284
  799TIP3    H1 2342   2.330   4.034   1.277
  799TIP3    H2 2343   2.452   4.097   1.341
  800TIP3   OH2 2344   2.421   3.799   1.855
  800TIP3    H1 2345   2.350   3.806   1.920
  800TIP3    H2 2346   2.465   3.884   1.858
  801TIP3   OH2 2347   2.243   3.304   0.466
  801TIP3    H1 2348   2.303   3.371   0.435
  801TIP3    H2 2349   2.285   3.268   0.545
  802TIP3   OH2 2350   2.369   3.178   0.675
  802TIP3    H1 2351   2.302   3.139   0.730
  802TIP3    H2 2352   2.433   3.214   0.736
  803TIP3   OH2 2353   2.423   3.572   1.105
  803TIP3    H1 2354   2.476   3.504   1.063
  803TIP3    H2 2355   2.420   3.643   1.042
  804TIP3   OH2 2356   2.248   3.871   1.302
  804TIP3    H1 2357   2.179   3.912   1.354
  804TIP3    H2 2358   2.201   3.825   1.232
  805TIP3   OH2 2359   2.279   3.077   0.312
  805TIP3    H1 2360   2.219   3.092   0.240
  805TIP3    H2 2361   2.264   3.150   0.372
  806TIP3   OH2 2362   2.175   3.034   0.816
  806TIP3    H1 2363   2.178   2.944   0.784
  806TIP3    H2 2364   2.179   3.026   0.911
  807TIP3   OH2 2365   0.830   3.111   1.560
  807TIP3    H1 2366   0.831   3.051   1.485
  807TIP3    H2 2367   0.921   3.111   1.591
  808TIP3   OH2 2368   2.473   3.460   1.679
  808TIP3    H1 2369   2.541   3.393   1.670
  808TIP3    H2 2370   2.499   3.528   1.618
  809TIP3   OH2 2371   2.653   3.258   1.692
  809TIP3    H1 2372   2.579   3.212   1.731
  809TIP3    H2 2373   2.727   3.199   1.706
  810TIP3   OH2 2374   2.184   2.775   0.736
  810TIP3    H1 2375   2.208   2.692   0.776
  810TIP3    H2 2376   2.231   2.777   0.652
  811TIP3   OH2 2377   2.415   3.074   1.459
  811TIP3    H1 2378   2.333   3.107   1.495
  811TIP3    H2 2379   2.444   3.143   1.398
  812TIP3   OH2 2380   2.859   2.660   1.996
  812TIP3    H1 2381   2.918   2.595   1.960
  812TIP3    H2 2382   2.831   2.712   1.921
  813TIP3   OH2 2383   2.245   2.532   0.839
  813TIP3    H1 2384   2.315   2.490   0.888
  813TIP3    H2 2385   2.239   2.482   0.758
  814TIP3   OH2 2386   2.725   2.796   1.800
  814TIP3    H1 2387   2.643   2.839   1.823
  814TIP3    H2 2388   2.699   2.723   1.745
  815TIP3   OH2 2389   1.934   3.970   0.656
  815TIP3    H1 2390   1.980   3.956   0.573
  815TIP3    H2 2391   1.987   4.033   0.703
  816TIP3   OH2 2392   1.210   3.779   1.531
  816TIP3    H1 2393   1.162   3.860   1.544
  816TIP3    H2 2394   1.299   3.807   1.508
  817TIP3   OH2 2395   1.654   4.048   1.725
  817TIP3    H1 2396   1.692   4.044   1.813
  817TIP3    H2 2397   1.717   4.099   1.674
  818TIP3   OH2 2398   1.834   4.203   1.587
  818TIP3    H1 2399   1.901   4.149   1.545
  818TIP3    H2 2400   1.882   4.259   1.648
  819TIP3   OH2 2401   2.629   2.555   1.684
  819TIP3    H1 2402   2.540   2.543   1.652
  819TIP3    H2 2403   2.669   2.469   1.677
  820TIP3   OH2 2404   0.883   4.062   1.606
  820TIP3    H1 2405   0.795   4.095   1.590
  820TIP3    H2 2406   0.901   4.086   1.697
  821TIP3   OH2 2407   1.125   4.050   1.473
  821TIP3    H1 2408   1.040   4.056   1.518
  821TIP3    H2 2409   1.106   4.075   1.383
  822TIP3   OH2 2410   1.550   4.071   1.265
  822TIP3    H1 2411   1.477   4.084   1.204
  822TIP3    H2 2412   1.560   4.155   1.309
  823TIP3   OH2 2413   1.816   4.006   1.319
  823TIP3    H1 2414   1.724   4.023   1.301
  823TIP3    H2 2415   1.863   4.078   1.278
  824TIP3   OH2 2416   2.022   4.197   1.230
  824TIP3    H1 2417   2.009   4.280   1.185
  824TIP3    H2 2418   2.050   4.136   1.162
  825TIP3   OH2 2419   0.814   3.865   1.368
  825TIP3    H1 2420   0.841   3.849   1.458
  825TIP3    H2 2421   0.879   3.818   1.315
  826TIP3   OH2 2422   0.991   3.723   1.213
  826TIP3    H1 2423   1.006   3.641   1.260
  826TIP3    H2 2424   1.078   3.763   1.207
  827TIP3   OH2 2425   1.259   3.819   1.220
  827TIP3    H1 2426   1.287   3.729   1.206
  827TIP3    H2 2427   1.297   3.843   1.304
  828TIP3   OH2 2428   1.840   2.481   1.307
  828TIP3    H1 2429   1.792   2.424   1.367
  828TIP3    H2 2430   1.887   2.421   1.250
  829TIP3   OH2 2431   2.369   2.354   1.217
  829TIP3    H1 2432   2.411   2.396   1.142
  829TIP3    H2 2433   2.276   2.371   1.204
  830TIP3   OH2 2434   2.471   2.467   0.992
  830TIP3    H1 2435   2.528   2.402   0.952
  830TIP3    H2 2436   2.508   2.551   0.964
  831TIP3   OH2 2437   2.096   2.384   1.215
  831TIP3    H1 2438   2.054   2.353   1.135
  831TIP3    H2 2439   2.090   2.309   1.276
  832TIP3   OH2 2440   1.363   3.827   0.343
  832TIP3    H1 2441   1.448   3.825   0.298
  832TIP3    H2 2442   1.302   3.791   0.279
  833TIP3   OH2 2443   2.076   3.931   0.422
  833TIP3    H1 2444   2.072   3.836   0.414
  833TIP3    H2 2445   2.032   3.963   0.343
  834TIP3   OH2 2446   1.281   2.469   2.219
  834TIP3    H1 2447   1.249   2.397   2.274
  834TIP3    H2 2448   1.375   2.474   2.238
  835TIP3   OH2 2449   1.537   2.463   2.331
  835TIP3    H1 2450   1.621   2.438   2.290
  835TIP3    H2 2451   1.522   2.397   2.398
  836TIP3   OH2 2452   2.367   2.526   2.117
  836TIP3    H1 2453   2.382   2.495   2.206
  836TIP3    H2 2454   2.453   2.522   2.076
  837TIP3   OH2 2455   2.298   4.078   1.608
  837TIP3    H1 2456   2.223   4.045   1.559
  837TIP3    H2 2457   2.281   4.172   1.618
  838TIP3   OH2 2458   3.569   3.453   0.370
  838TIP3    H1 2459   3.540   3.543   0.350
  838TIP3    H2 2460   3.496   3.398   0.342
  839TIP3   OH2 2461   3.570   3.449   0.762
  839TIP3    H1 2462   3.605   3.426   0.848
  839TIP3    H2 2463   3.528   3.368   0.731
  840TIP3   OH2 2464   2.866   3.342   1.126
  840TIP3    H1 2465   2.892   3.272   1.186
  840TIP3    H2 2466   2.945   3.395   1.115
  841TIP3   OH2 2467   3.816   3.754   0.441
  841TIP3    H1 2468   3.795   3.685   0.505
  841TIP3    H2 2469   3.844   3.828   0.494
  842TIP3   OH2 2470   2.842   3.753   0.844
  842TIP3    H1 2471   2.831   3.658   0.845
  842TIP3    H2 2472   2.937   3.766   0.838
  843TIP3   OH2 2473   2.542   2.962   0.629
  843TIP3    H1 2474   2.497   3.045   0.643
  843TIP3    H2 2475   2.473   2.904   0.597
  844TIP3   OH2 2476   2.604   3.243   0.809
  844TIP3    H1 2477   2.650   3.166   0.842
  844TIP3    H2 2478   2.662   3.279   0.743
  845TIP3   OH2 2479   3.466   4.212   0.456
  845TIP3    H1 2480   3.508   4.144   0.403
  845TIP3    H2 2481   3.455   4.172   0.542
  846TIP3   OH2 2482   3.369   3.677   0.805
  846TIP3    H1 2483   3.404   3.599   0.761
  846TIP3    H2 2484   3.447   3.726   0.832
  847TIP3   OH2 2485   4.384   2.998   0.803
  847TIP3    H1 2486   4.413   3.078   0.846
  847TIP3    H2 2487   4.400   3.013   0.710
  848TIP3   OH2 2488   3.782   3.174   0.832
  848TIP3    H1 2489   3.822   3.091   0.856
  848TIP3    H2 2490   3.747   3.160   0.745
  849TIP3   OH2 2491   3.119   2.834   0.798
  849TIP3    H1 2492   3.100   2.907   0.739
  849TIP3    H2 2493   3.075   2.759   0.758
  850TIP3   OH2 2494   3.817   2.929   0.422
  850TIP3    H1 2495   3.884   2.912   0.488
  850TIP3    H2 2496   3.866   2.963   0.347
  851TIP3   OH2 2497   2.753   3.035   0.906
  851TIP3    H1 2498   2.831   3.018   0.958
  851TIP3    H2 2499   2.764   2.982   0.828
  852TIP3   OH2 2500   3.191   3.234   0.707
  852TIP3    H1 2501   3.283   3.212   0.718
  852TIP3    H2 2502   3.151   3.153   0.674
  853TIP3   OH2 2503   4.455   3.208   0.971
  853TIP3    H1 2504   4.371   3.249   0.950
  853TIP3    H2 2505   4.468   3.227   1.064
  854TIP3   OH2 2506   3.112   2.821   1.237
  854TIP3    H1 2507   3.055   2.855   1.168
  854TIP3    H2 2508   3.063   2.835   1.318
  855TIP3   OH2 2509   3.456   3.674   0.242
  855TIP3    H1 2510   3.418   3.657   0.156
  855TIP3    H2 2511   3.413   3.753   0.273
  856TIP3   OH2 2512   3.221   3.598   1.026
  856TIP3    H1 2513   3.161   3.663   1.064
  856TIP3    H2 2514   3.263   3.643   0.954
  857TIP3   OH2 2515   4.020   2.933   0.601
  857TIP3    H1 2516   4.002   2.886   0.681
  857TIP3    H2 2517   4.069   3.011   0.629
  858TIP3   OH2 2518   2.988   2.935   1.017
  858TIP3    H1 2519   3.047   3.005   1.044
  858TIP3    H2 2520   3.033   2.892   0.944
  859TIP3   OH2 2521   3.047   3.794   1.130
  859TIP3    H1 2522   3.026   3.879   1.092
  859TIP3    H2 2523   2.972   3.772   1.185
  860TIP3   OH2 2524   2.441   3.482   0.368
  860TIP3    H1 2525   2.403   3.502   0.282
  860TIP3    H2 2526   2.473   3.566   0.400
  861TIP3   OH2 2527   3.880   3.998   0.604
  861TIP3    H1 2528   3.793   3.987   0.644
  861TIP3    H2 2529   3.874   4.083   0.559
  862TIP3   OH2 2530   4.174   2.898   0.969
  862TIP3    H1 2531   4.086   2.921   0.938
  862TIP3    H2 2532   4.233   2.928   0.899
  863TIP3   OH2 2533   3.465   2.534   0.955
  863TIP3    H1 2534   3.453   2.440   0.970
  863TIP3    H2 2535   3.391   2.575   0.999
  864TIP3   OH2 2536   3.587   4.042   0.271
  864TIP3    H1 2537   3.629   3.957   0.257
  864TIP3    H2 2538   3.650   4.106   0.241
  865TIP3   OH2 2539   3.726   3.823   0.189
  865TIP3    H1 2540   3.684   3.746   0.152
  865TIP3    H2 2541   3.765   3.792   0.271
  866TIP3   OH2 2542   4.107   3.906   0.947
  866TIP3    H1 2543   4.094   3.829   0.891
  866TIP3    H2 2544   4.088   3.981   0.889
  867TIP3   OH2 2545   3.400   3.303   0.207
  867TIP3    H1 2546   3.322   3.354   0.190
  867TIP3    H2 2547   3.444   3.297   0.122
  868TIP3   OH2 2548   6.185   7.083   6.880
  868TIP3    H1 2549   6.255   7.144   6.904
  868TIP3    H2 2550   6.231   7.003   6.853
  869TIP3   OH2 2551   4.301   3.550   0.794
  869TIP3    H1 2552   4.218   3.597   0.801
  869TIP3    H2 2553   4.333   3.571   0.706
  870TIP3   OH2 2554   3.748   3.381   0.178
  870TIP3    H1 2555   3.692   3.406   0.252
  870TIP3    H2 2556   3.831   3.357   0.219
  871TIP3   OH2 2557   3.979   3.424   1.093
  871TIP3    H1 2558   3.978   3.505   1.144
  871TIP3    H2 2559   3.895   3.424   1.048
  872TIP3   OH2 2560   2.980   3.378   0.594
  872TIP3    H1 2561   2.940   3.323   0.527
  872TIP3    H2 2562   3.055   3.328   0.626
  873TIP3   OH2 2563   3.109   3.793   0.741
  873TIP3    H1 2564   3.087   3.759   0.654
  873TIP3    H2 2565   3.196   3.758   0.759
  874TIP3   OH2 2566   3.113   3.354   0.949
  874TIP3    H1 2567   3.146   3.327   0.863
  874TIP3    H2 2568   3.156   3.437   0.967
  875TIP3   OH2 2569   3.642   3.991   0.729
  875TIP3    H1 2570   3.629   4.070   0.781
  875TIP3    H2 2571   3.625   3.919   0.789
  876TIP3   OH2 2572   3.252   3.909   1.274
  876TIP3    H1 2573   3.195   3.971   1.321
  876TIP3    H2 2574   3.192   3.855   1.222
  877TIP3   OH2 2575   6.420   7.251   6.937
  877TIP3    H1 2576   6.474   7.307   6.992
  877TIP3    H2 2577   6.449   7.270   6.848
  878TIP3   OH2 2578   3.008   3.466   1.379
  878TIP3    H1 2579   3.015   3.552   1.420
  878TIP3    H2 2580   2.916   3.442   1.389
  879TIP3   OH2 2581   3.333   3.918   0.285
  879TIP3    H1 2582   3.412   3.973   0.291
  879TIP3    H2 2583   3.271   3.971   0.234
  880TIP3   OH2 2584   3.045   4.075   1.361
  880TIP3    H1 2585   3.013   4.077   1.271
  880TIP3    H2 2586   2.968   4.054   1.414
  881TIP3   OH2 2587   4.108   2.486   0.054
  881TIP3    H1 2588   4.025   2.501   0.099
  881TIP3    H2 2589   4.120   2.563  -0.002
  882TIP3   OH2 2590   2.847   3.224   0.392
  882TIP3    H1 2591   2.778   3.269   0.343
  882TIP3    H2 2592   2.810   3.139   0.413
  883TIP3   OH2 2593   2.626   3.607   1.307
  883TIP3    H1 2594   2.562   3.585   1.240
  883TIP3    H2 2595   2.665   3.523   1.331
  884TIP3   OH2 2596   2.483   3.802   0.940
  884TIP3    H1 2597   2.578   3.792   0.928
  884TIP3    H2 2598   2.474   3.878   0.997
  885TIP3   OH2 2599   4.343   4.254   0.999
  885TIP3    H1 2600   4.345   4.160   1.011
  885TIP3    H2 2601   4.262   4.282   1.042
  886TIP3   OH2 2602   3.449   4.039   1.133
  886TIP3    H1 2603   3.448   4.130   1.162
  886TIP3    H2 2604   3.380   3.996   1.183
  887TIP3   OH2 2605   3.206   4.166   0.084
  887TIP3    H1 2606   3.164   4.146   0.001
  887TIP3    H2 2607   3.177   4.255   0.104
  888TIP3   OH2 2608   2.649   4.013   0.471
  888TIP3    H1 2609   2.697   4.007   0.554
  888TIP3    H2 2610   2.602   3.931   0.465
  889TIP3   OH2 2611   0.580   0.024   6.723
  889TIP3    H1 2612   0.667   0.011   6.686
  889TIP3    H2 2613   0.596   0.047   6.815
  890TIP3   OH2 2614   3.464   4.115   0.033
  890TIP3    H1 2615   3.374   4.129   0.061
  890TIP3    H2 2616   3.509   4.082   0.110
  891TIP3   OH2 2617   4.234   3.381   1.269
  891TIP3    H1 2618   4.150   3.393   1.224
  891TIP3    H2 2619   4.252   3.288   1.262
  892TIP3   OH2 2620   2.830   3.790   1.294
  892TIP3    H1 2621   2.880   3.776   1.374
  892TIP3    H2 2622   2.757   3.729   1.299
  893TIP3   OH2 2623   3.227   2.616   1.081
  893TIP3    H1 2624   3.143   2.581   1.052
  893TIP3    H2 2625   3.205   2.695   1.131
  894TIP3   OH2 2626   3.765   2.728   1.277
  894TIP3    H1 2627   3.833   2.700   1.338
  894TIP3    H2 2628   3.683   2.709   1.323
  895TIP3   OH2 2629   4.002   3.161   1.197
  895TIP3    H1 2630   3.952   3.156   1.278
  895TIP3    H2 2631   3.977   3.245   1.159
  896TIP3   OH2 2632   6.509   7.313   6.688
  896TIP3    H1 2633   6.490   7.275   6.602
  896TIP3    H2 2634   6.535   7.403   6.669
  897TIP3   OH2 2635   3.390   2.685   0.057
  897TIP3    H1 2636   3.354   2.674   0.146
  897TIP3    H2 2637   3.358   2.608   0.009
  898TIP3   OH2 2638   3.161   3.133   1.100
  898TIP3    H1 2639   3.113   3.149   1.181
  898TIP3    H2 2640   3.146   3.211   1.047
  899TIP3   OH2 2641   3.042   3.017   0.614
  899TIP3    H1 2642   2.953   2.990   0.635
  899TIP3    H2 2643   3.059   2.978   0.529
  900TIP3   OH2 2644   3.537   3.102   0.342
  900TIP3    H1 2645   3.487   3.172   0.300
  900TIP3    H2 2646   3.592   3.066   0.272
  901TIP3   OH2 2647   3.712   3.376   1.428
  901TIP3    H1 2648   3.687   3.305   1.487
  901TIP3    H2 2649   3.805   3.392   1.448
  902TIP3   OH2 2650   3.692   3.126   0.574
  902TIP3    H1 2651   3.628   3.156   0.510
  902TIP3    H2 2652   3.731   3.048   0.536
  903TIP3   OH2 2653   2.982   3.157   1.309
  903TIP3    H1 2654   3.013   3.219   1.374
  903TIP3    H2 2655   2.970   3.075   1.357
  904TIP3   OH2 2656   3.036   2.620   0.026
  904TIP3    H1 2657   3.041   2.628   0.121
  904TIP3    H2 2658   2.948   2.650   0.004
  905TIP3   OH2 2659   2.577   2.689   0.890
  905TIP3    H1 2660   2.649   2.721   0.945
  905TIP3    H2 2661   2.620   2.656   0.811
  906TIP3   OH2 2662   2.604   2.725   0.452
  906TIP3    H1 2663   2.645   2.736   0.366
  906TIP3    H2 2664   2.528   2.783   0.450
  907TIP3   OH2 2665   3.705   3.371   1.000
  907TIP3    H1 2666   3.738   3.305   0.940
  907TIP3    H2 2667   3.674   3.321   1.075
  908TIP3   OH2 2668   3.378   2.840   0.675
  908TIP3    H1 2669   3.297   2.837   0.726
  908TIP3    H2 2670   3.448   2.830   0.740
  909TIP3   OH2 2671   2.807   2.892   0.677
  909TIP3    H1 2672   2.715   2.899   0.649
  909TIP3    H2 2673   2.832   2.803   0.654
  910TIP3   OH2 2674   3.079   2.894   0.378
  910TIP3    H1 2675   3.172   2.906   0.357
  910TIP3    H2 2676   3.034   2.913   0.295
  911TIP3   OH2 2677   3.864   2.913   0.878
  911TIP3    H1 2678   3.835   2.928   0.968
  911TIP3    H2 2679   3.799   2.853   0.842
  912TIP3   OH2 2680   2.924   2.926   0.161
  912TIP3    H1 2681   2.832   2.902   0.145
  912TIP3    H2 2682   2.955   2.957   0.076
  913TIP3   OH2 2683   4.040   4.604   1.096
  913TIP3    H1 2684   4.035   4.626   1.003
  913TIP3    H2 2685   4.118   4.651   1.128
  914TIP3   OH2 2686   2.993   3.716   1.518
  914TIP3    H1 2687   3.073   3.743   1.563
  914TIP3    H2 2688   2.927   3.711   1.587
  915TIP3   OH2 2689   3.456   3.169   0.774
  915TIP3    H1 2690   3.526   3.126   0.725
  915TIP3    H2 2691   3.457   3.125   0.859
  916TIP3   OH2 2692   2.976   2.650   0.651
  916TIP3    H1 2693   2.935   2.578   0.700
  916TIP3    H2 2694   3.016   2.607   0.575
  917TIP3   OH2 2695   3.432   3.071   1.056
  917TIP3    H1 2696   3.342   3.101   1.073
  917TIP3    H2 2697   3.487   3.128   1.108
  918TIP3   OH2 2698   3.168   3.452   0.157
  918TIP3    H1 2699   3.097   3.389   0.143
  918TIP3    H2 2700   3.151   3.488   0.245
  919TIP3   OH2 2701   4.066   3.690   0.781
  919TIP3    H1 2702   4.090   3.741   0.703
  919TIP3    H2 2703   3.984   3.647   0.757
  920TIP3   OH2 2704   3.648   2.764   0.017
  920TIP3    H1 2705   3.556   2.738   0.018
  920TIP3    H2 2706   3.647   2.857   0.039
  921TIP3   OH2 2707   3.569   3.775   1.154
  921TIP3    H1 2708   3.597   3.753   1.243
  921TIP3    H2 2709   3.529   3.861   1.162
  922TIP3   OH2 2710   3.694   3.018   0.127
  922TIP3    H1 2711   3.789   3.019   0.140
  922TIP3    H2 2712   3.677   3.095   0.072
  923TIP3   OH2 2713   2.863   3.477   0.828
  923TIP3    H1 2714   2.900   3.450   0.744
  923TIP3    H2 2715   2.906   3.420   0.892
  924TIP3   OH2 2716   3.313   3.605  -0.021
  924TIP3    H1 2717   3.270   3.690  -0.016
  924TIP3    H2 2718   3.262   3.549   0.037
  925TIP3   OH2 2719   2.743   3.396   1.447
  925TIP3    H1 2720   2.763   3.384   1.540
  925TIP3    H2 2721   2.677   3.329   1.428
  926TIP3   OH2 2722   3.472   3.512   1.462
  926TIP3    H1 2723   3.408   3.454   1.421
  926TIP3    H2 2724   3.557   3.477   1.436
  927TIP3   OH2 2725   3.726   4.036   1.051
  927TIP3    H1 2726   3.631   4.030   1.062
  927TIP3    H2 2727   3.756   4.086   1.127
  928TIP3   OH2 2728   6.963   7.114   6.892
  928TIP3    H1 2729   6.905   7.068   6.832
  928TIP3    H2 2730   6.963   7.205   6.861
  929TIP3   OH2 2731   4.356   3.965   1.034
  929TIP3    H1 2732   4.261   3.959   1.031
  929TIP3    H2 2733   4.385   3.935   0.948
  930TIP3   OH2 2734   6.701   7.919   6.795
  930TIP3    H1 2735   6.662   7.871   6.868
  930TIP3    H2 2736   6.648   7.895   6.719
  931TIP3   OH2 2737   3.833   3.551   0.698
  931TIP3    H1 2738   3.741   3.530   0.714
  931TIP3    H2 2739   3.868   3.473   0.655
  932TIP3   OH2 2740   2.964   3.784   0.458
  932TIP3    H1 2741   2.964   3.862   0.403
  932TIP3    H2 2742   2.872   3.760   0.467
  933TIP3   OH2 2743   2.530   3.084   0.176
  933TIP3    H1 2744   2.572   3.169   0.187
  933TIP3    H2 2745   2.445   3.093   0.220
  934TIP3   OH2 2746   3.095   3.545   0.400
  934TIP3    H1 2747   3.064   3.634   0.417
  934TIP3    H2 2748   3.062   3.494   0.473
  935TIP3   OH2 2749   3.236   4.124   0.925
  935TIP3    H1 2750   3.275   4.195   0.874
  935TIP3    H2 2751   3.309   4.085   0.972
  936TIP3   OH2 2752   2.880   4.022   0.310
  936TIP3    H1 2753   2.796   4.029   0.356
  936TIP3    H2 2754   2.915   4.112   0.310
  937TIP3   OH2 2755   3.619   3.757   0.887
  937TIP3    H1 2756   3.606   3.758   0.982
  937TIP3    H2 2757   3.696   3.703   0.873
  938TIP3   OH2 2758   6.414   7.617   6.714
  938TIP3    H1 2759   6.475   7.615   6.788
  938TIP3    H2 2760   6.329   7.635   6.753
  939TIP3   OH2 2761   3.866   4.290   0.933
  939TIP3    H1 2762   3.790   4.233   0.930
  939TIP3    H2 2763   3.852   4.353   0.862
  940TIP3   OH2 2764   2.951   2.901   1.451
  940TIP3    H1 2765   2.856   2.900   1.460
  940TIP3    H2 2766   2.982   2.845   1.522
  941TIP3   OH2 2767   3.757   3.583  -0.012
  941TIP3    H1 2768   3.745   3.518   0.057
  941TIP3    H2 2769   3.851   3.584  -0.028
  942TIP3   OH2 2770   2.672   3.985   1.085
  942TIP3    H1 2771   2.724   3.911   1.116
  942TIP3    H2 2772   2.697   4.058   1.140
  943TIP3   OH2 2773   5.796   7.651   6.717
  943TIP3    H1 2774   5.799   7.568   6.670
  943TIP3    H2 2775   5.765   7.628   6.805
  944TIP3   OH2 2776   2.901   3.641   0.051
  944TIP3    H1 2777   2.980   3.615   0.100
  944TIP3    H2 2778   2.905   3.736   0.048
  945TIP3   OH2 2779   2.638   3.334   0.245
  945TIP3    H1 2780   2.574   3.377   0.302
  945TIP3    H2 2781   2.654   3.397   0.175
  946TIP3   OH2 2782   3.795   2.964   1.138
  946TIP3    H1 2783   3.873   3.002   1.177
  946TIP3    H2 2784   3.779   2.885   1.189
  947TIP3   OH2 2785   3.668   2.720   0.301
  947TIP3    H1 2786   3.660   2.736   0.206
  947TIP3    H2 2787   3.709   2.799   0.335
  948TIP3   OH2 2788   6.009   7.841   6.934
  948TIP3    H1 2789   5.924   7.873   6.965
  948TIP3    H2 2790   6.015   7.874   6.844
  949TIP3   OH2 2791   3.359   2.900   0.406
  949TIP3    H1 2792   3.421   2.970   0.386
  949TIP3    H2 2793   3.363   2.890   0.501
  950TIP3   OH2 2794   3.632   3.214   1.209
  950TIP3    H1 2795   3.655   3.265   1.286
  950TIP3    H2 2796   3.682   3.132   1.219
  951TIP3   OH2 2797   3.505   2.623   0.503
  951TIP3    H1 2798   3.497   2.698   0.562
  951TIP3    H2 2799   3.563   2.652   0.434
  952TIP3   OH2 2800   2.919   3.912   0.058
  952TIP3    H1 2801   2.892   3.980  -0.004
  952TIP3    H2 2802   2.904   3.952   0.144
  953TIP3   OH2 2803   3.029   2.637   0.305
  953TIP3    H1 2804   3.025   2.725   0.343
  953TIP3    H2 2805   3.122   2.613   0.310
  954TIP3   OH2 2806   4.266   3.114   1.187
  954TIP3    H1 2807   4.172   3.118   1.201
  954TIP3    H2 2808   4.276   3.062   1.107
  955TIP3   OH2 2809   3.920   3.307   0.579
  955TIP3    H1 2810   3.843   3.252   0.590
  955TIP3    H2 2811   3.990   3.261   0.626
  956TIP3   OH2 2812   2.638   3.541   0.053
  956TIP3    H1 2813   2.710   3.603   0.066
  956TIP3    H2 2814   2.671   3.478  -0.010
  957TIP3   OH2 2815   2.621   2.830   0.173
  957TIP3    H1 2816   2.590   2.921   0.171
  957TIP3    H2 2817   2.564   2.784   0.113
  958TIP3   OH2 2818   3.891   4.268   0.526
  958TIP3    H1 2819   3.843   4.315   0.458
  958TIP3    H2 2820   3.983   4.284   0.506
  959TIP3   OH2 2821   2.963   2.534   1.058
  959TIP3    H1 2822   2.933   2.503   0.973
  959TIP3    H2 2823   2.955   2.458   1.115
  960TIP3   OH2 2824   2.502   3.756   0.431
  960TIP3    H1 2825   2.437   3.781   0.497
  960TIP3    H2 2826   2.471   3.796   0.350
  961TIP3   OH2 2827   2.666   4.299   1.508
  961TIP3    H1 2828   2.750   4.302   1.554
  961TIP3    H2 2829   2.643   4.206   1.505
  962TIP3   OH2 2830   3.140   4.254   1.550
  962TIP3    H1 2831   3.234   4.238   1.559
  962TIP3    H2 2832   3.113   4.196   1.479
  963TIP3   OH2 2833   5.975   7.837   6.645
  963TIP3    H1 2834   5.896   7.787   6.666
  963TIP3    H2 2835   6.035   7.772   6.609
  964TIP3   OH2 2836   3.782   4.165   1.287
  964TIP3    H1 2837   3.773   4.097   1.353
  964TIP3    H2 2838   3.857   4.217   1.315
  965TIP3   OH2 2839   2.791   3.701   1.706
  965TIP3    H1 2840   2.808   3.608   1.715
  965TIP3    H2 2841   2.706   3.706   1.662
  966TIP3   OH2 2842   5.614   7.367   6.863
  966TIP3    H1 2843   5.684   7.335   6.920
  966TIP3    H2 2844   5.642   7.341   6.775
  967TIP3   OH2 2845   3.398   3.788   1.480
  967TIP3    H1 2846   3.357   3.808   1.396
  967TIP3    H2 2847   3.429   3.698   1.471
  968TIP3   OH2 2848   6.094   7.553   6.654
  968TIP3    H1 2849   6.110   7.580   6.744
  968TIP3    H2 2850   6.115   7.459   6.653
  969TIP3   OH2 2851   3.891   3.802   1.088
  969TIP3    H1 2852   3.967   3.842   1.046
  969TIP3    H2 2853   3.820   3.864   1.074
  970TIP3   OH2 2854   2.914   3.440   1.691
  970TIP3    H1 2855   2.987   3.385   1.664
  970TIP3    H2 2856   2.939   3.472   1.778
  971TIP3   OH2 2857   2.975   3.254   0.118
  971TIP3    H1 2858   2.948   3.224   0.204
  971TIP3    H2 2859   3.012   3.177   0.075
  972TIP3   OH2 2860   3.246   3.322   1.350
  972TIP3    H1 2861   3.169   3.379   1.353
  972TIP3    H2 2862   3.297   3.354   1.276
  973TIP3   OH2 2863   5.912   7.051   6.896
  973TIP3    H1 2864   5.909   7.016   6.807
  973TIP3    H2 2865   6.005   7.068   6.912
  974TIP3   OH2 2866   3.765   3.722   1.485
  974TIP3    H1 2867   3.841   3.691   1.435
  974TIP3    H2 2868   3.756   3.660   1.557
  975TIP3   OH2 2869   3.370   3.111   1.473
  975TIP3    H1 2870   3.370   3.032   1.419
  975TIP3    H2 2871   3.326   3.176   1.419
  976TIP3   OH2 2872   3.372   2.898   1.283
  976TIP3    H1 2873   3.401   2.936   1.200
  976TIP3    H2 2874   3.280   2.874   1.267
  977TIP3   OH2 2875   3.395   3.431   1.158
  977TIP3    H1 2876   3.481   3.441   1.116
  977TIP3    H2 2877   3.339   3.494   1.112
  978TIP3   OH2 2878   3.979   3.395   1.536
  978TIP3    H1 2879   4.023   3.312   1.551
  978TIP3    H2 2880   4.047   3.453   1.501
  979TIP3   OH2 2881   4.021   3.653   1.272
  979TIP3    H1 2882   3.962   3.705   1.217
  979TIP3    H2 2883   4.108   3.671   1.236
  980TIP3   OH2 2884   3.247   3.214   1.708
  980TIP3    H1 2885   3.181   3.148   1.726
  980TIP3    H2 2886   3.282   3.191   1.621
  981TIP3   OH2 2887   3.502   2.658   1.352
  981TIP3    H1 2888   3.454   2.738   1.331
  981TIP3    H2 2889   3.437   2.588   1.343
  982TIP3   OH2 2890   3.627   3.159   1.570
  982TIP3    H1 2891   3.617   3.145   1.664
  982TIP3    H2 2892   3.542   3.137   1.533
  983TIP3   OH2 2893   3.868   3.112   1.426
  983TIP3    H1 2894   3.793   3.112   1.486
  983TIP3    H2 2895   3.942   3.081   1.479
  984TIP3   OH2 2896   4.101   3.054   1.573
  984TIP3    H1 2897   4.113   2.960   1.587
  984TIP3    H2 2898   4.095   3.091   1.661
  985TIP3   OH2 2899   3.088   2.995   1.765
  985TIP3    H1 2900   3.088   2.906   1.731
  985TIP3    H2 2901   3.126   2.987   1.853
  986TIP3   OH2 2902   3.600   2.668   1.609
  986TIP3    H1 2903   3.663   2.597   1.606
  986TIP3    H2 2904   3.557   2.665   1.523
  987TIP3   OH2 2905   3.664   2.884   1.767
  987TIP3    H1 2906   3.646   2.813   1.706
  987TIP3    H2 2907   3.587   2.940   1.763
  988TIP3   OH2 2908   0.041   0.104   6.811
  988TIP3    H1 2909   0.133   0.106   6.786
  988TIP3    H2 2910  -0.006   0.129   6.732
  989TIP3   OH2 2911   2.365   3.499   0.100
  989TIP3    H1 2912   2.452   3.531   0.076
  989TIP3    H2 2913   2.356   3.416   0.052
  990TIP3   OH2 2914   2.280   4.103   0.502
  990TIP3    H1 2915   2.215   4.044   0.462
  990TIP3    H2 2916   2.326   4.048   0.565
  991TIP3   OH2 2917   2.415   3.954   0.690
  991TIP3    H1 2918   2.402   3.881   0.751
  991TIP3    H2 2919   2.468   4.017   0.739
  992TIP3   OH2 2920   4.147   4.353   0.487
  992TIP3    H1 2921   4.169   4.384   0.575
  992TIP3    H2 2922   4.207   4.401   0.429
  993TIP3   OH2 2923   4.172   4.373   0.770
  993TIP3    H1 2924   4.124   4.291   0.764
  993TIP3    H2 2925   4.247   4.353   0.827
  994TIP3   OH2 2926   4.218   4.055   1.343
  994TIP3    H1 2927   4.147   4.062   1.407
  994TIP3    H2 2928   4.261   4.140   1.345
  995TIP3   OH2 2929   6.870   7.567   6.909
  995TIP3    H1 2930   6.937   7.631   6.884
  995TIP3    H2 2931   6.906   7.523   6.986
  996TIP3   OH2 2932   4.164   3.429   0.170
  996TIP3    H1 2933   4.097   3.388   0.225
  996TIP3    H2 2934   4.226   3.468   0.232
  997TIP3   OH2 2935   4.223   3.830   0.596
  997TIP3    H1 2936   4.271   3.762   0.551
  997TIP3    H2 2937   4.214   3.900   0.532
  998TIP3   OH2 2938   4.044   4.127   0.789
  998TIP3    H1 2939   3.975   4.169   0.841
  998TIP3    H2 2940   3.998   4.082   0.719
  999TIP3   OH2 2941   6.925   7.354   6.744
  999TIP3    H1 2942   6.852   7.337   6.685
  999TIP3    H2 2943   6.897   7.428   6.797
 1000TIP3   OH2 2944   6.811   7.028   6.686
 1000TIP3    H1 2945   6.803   7.051   6.593
 1000TIP3    H2 2946   6.778   6.939   6.692
 1001TIP3   OH2 2947   3.976   3.289   0.311
 1001TIP3    H1 2948   3.980   3.194   0.300
 1001TIP3    H2 2949   3.960   3.302   0.405
 1002TIP3   OH2 2950   2.602   3.366   1.056
 1002TIP3    H1 2951   2.598   3.331   0.967
 1002TIP3    H2 2952   2.696   3.367   1.077
 1003TIP3   OH2 2953   4.268   3.716   1.167
 1003TIP3    H1 2954   4.336   3.650   1.157
 1003TIP3    H2 2955   4.291   3.784   1.104
 1004TIP3   OH2 2956   4.450   3.514   1.176
 1004TIP3    H1 2957   4.374   3.470   1.214
 1004TIP3    H2 2958   4.523   3.455   1.192
 1005TIP3   OH2 2959   6.747   6.765   6.715
 1005TIP3    H1 2960   6.830   6.727   6.744
 1005TIP3    H2 2961   6.680   6.717   6.765
 1006TIP3   OH2 2962   3.976   3.006   0.201
 1006TIP3    H1 2963   4.012   2.919   0.219
 1006TIP3    H2 2964   4.029   3.039   0.128
 1007TIP3   OH2 2965   4.135   3.178   0.702
 1007TIP3    H1 2966   4.217   3.201   0.658
 1007TIP3    H2 2967   4.144   3.214   0.790
 1008TIP3   OH2 2968   4.203   3.327   0.929
 1008TIP3    H1 2969   4.127   3.356   0.979
 1008TIP3    H2 2970   4.236   3.406   0.886
 1009TIP3   OH2 2971   2.823   3.048   1.732
 1009TIP3    H1 2972   2.919   3.045   1.735
 1009TIP3    H2 2973   2.796   2.964   1.769
 1010TIP3   OH2 2974   4.657   2.920   1.483
 1010TIP3    H1 2975   4.715   2.855   1.444
 1010TIP3    H2 2976   4.625   2.971   1.408
 1011TIP3   OH2 2977   4.081   2.756   0.244
 1011TIP3    H1 2978   4.127   2.742   0.326
 1011TIP3    H2 2979   4.020   2.682   0.238
 1012TIP3   OH2 2980   2.782   2.743   1.065
 1012TIP3    H1 2981   2.840   2.667   1.074
 1012TIP3    H2 2982   2.842   2.817   1.056
 1013TIP3   OH2 2983   2.582   3.008   1.132
 1013TIP3    H1 2984   2.630   3.010   1.049
 1013TIP3    H2 2985   2.602   3.091   1.174
 1014TIP3   OH2 2986   4.521   3.053   1.287
 1014TIP3    H1 2987   4.440   3.098   1.312
 1014TIP3    H2 2988   4.492   2.980   1.232
 1015TIP3   OH2 2989   7.008   6.694   6.798
 1015TIP3    H1 2990   7.049   6.648   6.725
 1015TIP3    H2 2991   7.060   6.773   6.810
 1016TIP3   OH2 2992   2.564   2.536   0.640
 1016TIP3    H1 2993   2.469   2.543   0.650
 1016TIP3    H2 2994   2.585   2.602   0.575
 1017TIP3   OH2 2995   3.748   4.222   0.149
 1017TIP3    H1 2996   3.776   4.206   0.058
 1017TIP3    H2 2997   3.785   4.307   0.171
 1018TIP3   OH2 2998   2.786   2.607   1.450
 1018TIP3    H1 2999   2.737   2.597   1.532
 1018TIP3    H2 3000   2.721   2.639   1.387
 1019TIP3   OH2 3001   2.825   4.031   1.526
 1019TIP3    H1 3002   2.734   4.005   1.509
 1019TIP3    H2 3003   2.840   4.008   1.618
 1020TIP3   OH2 3004   3.008   4.067   1.073
 1020TIP3    H1 3005   2.958   4.140   1.036
 1020TIP3    H2 3006   3.094   4.074   1.031
 1021TIP3   OH2 3007   3.449   4.306   1.213
 1021TIP3    H1 3008   3.488   4.302   1.300
 1021TIP3    H2 3009   3.512   4.356   1.161
 1022TIP3   OH2 3010   3.629   4.459   1.075
 1022TIP3    H1 3011   3.695   4.407   1.029
 1022TIP3    H2 3012   3.679   4.515   1.134
 1023TIP3   OH2 3013   4.423   2.813   1.170
 1023TIP3    H1 3014   4.334   2.805   1.138
 1023TIP3    H2 3015   4.460   2.725   1.163
 1024TIP3   OH2 3016   2.679   4.320   1.099
 1024TIP3    H1 3017   2.591   4.350   1.076
 1024TIP3    H2 3018   2.696   4.359   1.184
 1025TIP3   OH2 3019   2.916   4.299   0.958
 1025TIP3    H1 3020   2.831   4.309   1.001
 1025TIP3    H2 3021   2.901   4.328   0.868
 1026TIP3   OH2 3022   3.342   4.324   0.756
 1026TIP3    H1 3023   3.274   4.339   0.690
 1026TIP3    H2 3024   3.355   4.410   0.797
 1027TIP3   OH2 3025   3.612   4.264   0.808
 1027TIP3    H1 3026   3.519   4.278   0.789
 1027TIP3    H2 3027   3.657   4.334   0.761
 1028TIP3   OH2 3028   3.820   4.455   0.717
 1028TIP3    H1 3029   3.804   4.538   0.672
 1028TIP3    H2 3030   3.845   4.394   0.647
 1029TIP3   OH2 3031   2.595   4.108   0.845
 1029TIP3    H1 3032   2.618   4.083   0.934
 1029TIP3    H2 3033   2.663   4.068   0.791
 1030TIP3   OH2 3034   2.790   3.982   0.704
 1030TIP3    H1 3035   2.802   3.900   0.751
 1030TIP3    H2 3036   2.879   4.019   0.698
 1031TIP3   OH2 3037   3.058   4.074   0.709
 1031TIP3    H1 3038   3.084   3.983   0.693
 1031TIP3    H2 3039   3.103   4.099   0.789
 1032TIP3   OH2 3040   3.628   2.729   0.792
 1032TIP3    H1 3041   3.586   2.661   0.844
 1032TIP3    H2 3042   3.701   2.685   0.748
 1033TIP3   OH2 3043   4.149   2.619   0.694
 1033TIP3    H1 3044   4.185   2.667   0.620
 1033TIP3    H2 3045   4.054   2.630   0.688
 1034TIP3   OH2 3046   4.249   2.716   0.458
 1034TIP3    H1 3047   4.320   2.662   0.421
 1034TIP3    H2 3048   4.278   2.806   0.445
 1035TIP3   OH2 3049   2.872   2.445   0.815
 1035TIP3    H1 3050   2.785   2.412   0.797
 1035TIP3    H2 3051   2.930   2.369   0.804
 1036TIP3   OH2 3052   2.784   2.389   0.534
 1036TIP3    H1 3053   2.737   2.354   0.457
 1036TIP3    H2 3054   2.715   2.429   0.587
 1037TIP3   OH2 3055   3.327   2.473   0.685
 1037TIP3    H1 3056   3.384   2.520   0.624
 1037TIP3    H2 3057   3.347   2.510   0.771
 1038TIP3   OH2 3058   3.868   2.618   0.668
 1038TIP3    H1 3059   3.866   2.579   0.581
 1038TIP3    H2 3060   3.856   2.545   0.728
 1039TIP3   OH2 3061   3.900   2.543   0.237
 1039TIP3    H1 3062   3.812   2.581   0.238
 1039TIP3    H2 3063   3.889   2.458   0.281
 1040TIP3   OH2 3064   2.377   3.888   0.233
 1040TIP3    H1 3065   2.301   3.844   0.196
 1040TIP3    H2 3066   2.363   3.980   0.214
 1041TIP3   OH2 3067   2.783   2.510   0.251
 1041TIP3    H1 3068   2.831   2.429   0.234
 1041TIP3    H2 3069   2.848   2.568   0.291
 1042TIP3   OH2 3070   3.302   2.648   0.317
 1042TIP3    H1 3071   3.357   2.598   0.377
 1042TIP3    H2 3072   3.320   2.740   0.339
 1043TIP3   OH2 3073   0.311   0.075   6.751
 1043TIP3    H1 3074   0.405   0.083   6.738
 1043TIP3    H2 3075   0.286  -0.001   6.698
 1044TIP3   OH2 3076   1.038   0.177   6.840
 1044TIP3    H1 3077   1.033   0.083   6.824
 1044TIP3    H2 3078   1.022   0.216   6.754
 1045TIP3   OH2 3079   3.086   2.723   1.703
 1045TIP3    H1 3080   3.048   2.651   1.754
 1045TIP3    H2 3081   3.178   2.723   1.727
 1046TIP3   OH2 3082   3.337   2.720   1.817
 1046TIP3    H1 3083   3.420   2.692   1.777
 1046TIP3    H2 3084   3.320   2.655   1.886
 1047TIP3   OH2 3085   5.283   7.924   6.840
 1047TIP3    H1 3086   5.291   7.958   6.929
 1047TIP3    H2 3087   5.368   7.887   6.821
 1048TIP3   OH2 3088   4.164   2.782   1.604
 1048TIP3    H1 3089   4.177   2.752   1.694
 1048TIP3    H2 3090   4.250   2.777   1.564
 1049TIP3   OH2 3091   4.094   4.334   1.095
 1049TIP3    H1 3092   4.019   4.301   1.046
 1049TIP3    H2 3093   4.077   4.428   1.104
 1050TIP3   OH2 3094   5.360   3.700   0.249
 1050TIP3    H1 3095   5.399   3.689   0.336
 1050TIP3    H2 3096   5.315   3.617   0.232
 1051TIP3   OH2 3097   4.666   3.599   0.608
 1051TIP3    H1 3098   4.690   3.527   0.668
 1051TIP3    H2 3099   4.737   3.662   0.617
 1052TIP3   OH2 3100   4.639   4.007   0.335
 1052TIP3    H1 3101   4.626   3.912   0.337
 1052TIP3    H2 3102   4.734   4.018   0.330
 1053TIP3   OH2 3103   4.342   3.219   0.107
 1053TIP3    H1 3104   4.292   3.297   0.131
 1053TIP3    H2 3105   4.276   3.158   0.075
 1054TIP3   OH2 3106   4.401   3.500   0.297
 1054TIP3    H1 3107   4.446   3.423   0.330
 1054TIP3    H2 3108   4.464   3.541   0.238
 1055TIP3   OH2 3109   5.171   3.929   0.284
 1055TIP3    H1 3110   5.208   3.849   0.248
 1055TIP3    H2 3111   5.247   3.978   0.317
 1056TIP3   OH2 3112   6.183   3.258   0.288
 1056TIP3    H1 3113   6.201   3.329   0.348
 1056TIP3    H2 3114   6.261   3.253   0.232
 1057TIP3   OH2 3115   5.587   3.431   0.349
 1057TIP3    H1 3116   5.624   3.347   0.373
 1057TIP3    H2 3117   5.543   3.415   0.265
 1058TIP3   OH2 3118   4.920   3.088   0.289
 1058TIP3    H1 3119   4.890   3.167   0.244
 1058TIP3    H2 3120   4.871   3.017   0.247
 1059TIP3   OH2 3121   8.428   7.174   6.903
 1059TIP3    H1 3122   8.505   7.164   6.959
 1059TIP3    H2 3123   8.462   7.180   6.814
 1060TIP3   OH2 3124   4.549   3.293   0.395
 1060TIP3    H1 3125   4.629   3.275   0.445
 1060TIP3    H2 3126   4.554   3.234   0.320
 1061TIP3   OH2 3127   4.995   3.500   0.193
 1061TIP3    H1 3128   5.086   3.475   0.208
 1061TIP3    H2 3129   4.950   3.417   0.178
 1062TIP3   OH2 3130   6.245   3.461   0.461
 1062TIP3    H1 3131   6.160   3.503   0.447
 1062TIP3    H2 3132   6.270   3.486   0.550
 1063TIP3   OH2 3133   4.908   3.077   0.725
 1063TIP3    H1 3134   4.850   3.113   0.657
 1063TIP3    H2 3135   4.860   3.090   0.806
 1064TIP3   OH2 3136   5.017   3.857   0.514
 1064TIP3    H1 3137   4.955   3.919   0.554
 1064TIP3    H2 3138   5.054   3.905   0.440
 1065TIP3   OH2 3139   5.832   3.189   0.092
 1065TIP3    H1 3140   5.834   3.124   0.163
 1065TIP3    H2 3141   5.868   3.268   0.132
 1066TIP3   OH2 3142   4.786   3.192   0.505
 1066TIP3    H1 3143   4.843   3.264   0.532
 1066TIP3    H2 3144   4.835   3.146   0.437
 1067TIP3   OH2 3145   4.843   4.050   0.618
 1067TIP3    H1 3146   4.823   4.134   0.577
 1067TIP3    H2 3147   4.767   4.030   0.672
 1068TIP3   OH2 3148   7.064   7.747   6.811
 1068TIP3    H1 3149   6.993   7.767   6.750
 1068TIP3    H2 3150   7.068   7.825   6.867
 1069TIP3   OH2 3151   5.970   3.157   0.458
 1069TIP3    H1 3152   5.880   3.177   0.430
 1069TIP3    H2 3153   6.024   3.183   0.384
 1070TIP3   OH2 3154   5.260   2.791   0.441
 1070TIP3    H1 3155   5.249   2.698   0.459
 1070TIP3    H2 3156   5.186   2.833   0.486
 1071TIP3   OH2 3157   5.901   4.172   0.443
 1071TIP3    H1 3158   5.895   4.096   0.385
 1071TIP3    H2 3159   5.877   4.247   0.388
 1072TIP3   OH2 3160   6.096   3.803   0.320
 1072TIP3    H1 3161   6.019   3.858   0.303
 1072TIP3    H2 3162   6.128   3.780   0.233
 1073TIP3   OH2 3163   5.773   3.681   0.581
 1073TIP3    H1 3164   5.777   3.759   0.636
 1073TIP3    H2 3165   5.689   3.687   0.537
 1074TIP3   OH2 3166   4.772   3.617   0.087
 1074TIP3    H1 3167   4.732   3.549   0.033
 1074TIP3    H2 3168   4.851   3.577   0.123
 1075TIP3   OH2 3169   4.903   4.025   0.253
 1075TIP3    H1 3170   4.876   4.010   0.163
 1075TIP3    H2 3171   4.995   3.999   0.255
 1076TIP3   OH2 3172   4.917   3.611   0.436
 1076TIP3    H1 3173   4.951   3.591   0.349
 1076TIP3    H2 3174   4.955   3.697   0.457
 1077TIP3   OH2 3175   5.456   4.226   0.210
 1077TIP3    H1 3176   5.435   4.307   0.256
 1077TIP3    H2 3177   5.427   4.156   0.269
 1078TIP3   OH2 3178   5.048   4.165   0.761
 1078TIP3    H1 3179   4.991   4.227   0.807
 1078TIP3    H2 3180   4.988   4.111   0.710
 1079TIP3   OH2 3181   4.802   3.722   0.863
 1079TIP3    H1 3182   4.812   3.808   0.903
 1079TIP3    H2 3183   4.711   3.698   0.879
 1080TIP3   OH2 3184   4.842   4.332   0.848
 1080TIP3    H1 3185   4.810   4.335   0.758
 1080TIP3    H2 3186   4.765   4.310   0.900
 1081TIP3   OH2 3187   7.430   7.470   6.856
 1081TIP3    H1 3188   7.348   7.517   6.870
 1081TIP3    H2 3189   7.407   7.378   6.869
 1082TIP3   OH2 3190   4.423   3.863   0.793
 1082TIP3    H1 3191   4.355   3.845   0.729
 1082TIP3    H2 3192   4.459   3.777   0.815
 1083TIP3   OH2 3193   4.277   4.062   0.423
 1083TIP3    H1 3194   4.372   4.055   0.419
 1083TIP3    H2 3195   4.261   4.138   0.480
 1084TIP3   OH2 3196   6.143   4.498   0.510
 1084TIP3    H1 3197   6.145   4.403   0.523
 1084TIP3    H2 3198   6.064   4.527   0.555
 1085TIP3   OH2 3199   5.245   4.294   0.620
 1085TIP3    H1 3200   5.245   4.385   0.649
 1085TIP3    H2 3201   5.176   4.252   0.671
 1086TIP3   OH2 3202   4.430   4.252  -0.027
 1086TIP3    H1 3203   4.503   4.257   0.035
 1086TIP3    H2 3204   4.355   4.226   0.026
 1087TIP3   OH2 3205   6.028   3.636   0.759
 1087TIP3    H1 3206   5.943   3.647   0.717
 1087TIP3    H2 3207   6.046   3.542   0.751
 1088TIP3   OH2 3208   4.626   4.047   0.781
 1088TIP3    H1 3209   4.676   4.032   0.861
 1088TIP3    H2 3210   4.553   3.986   0.786
 1089TIP3   OH2 3211   5.023   2.873   0.569
 1089TIP3    H1 3212   4.939   2.839   0.538
 1089TIP3    H2 3213   5.000   2.950   0.620
 1090TIP3   OH2 3214   5.561   2.983   0.765
 1090TIP3    H1 3215   5.630   2.957   0.826
 1090TIP3    H2 3216   5.480   2.965   0.811
 1091TIP3   OH2 3217   5.795   3.418   0.683
 1091TIP3    H1 3218   5.747   3.412   0.765
 1091TIP3    H2 3219   5.769   3.503   0.646
 1092TIP3   OH2 3220   4.958   3.389   0.586
 1092TIP3    H1 3221   4.909   3.405   0.667
 1092TIP3    H2 3222   4.944   3.469   0.534
 1093TIP3   OH2 3223   4.825   3.288   0.135
 1093TIP3    H1 3224   4.734   3.265   0.157
 1093TIP3    H2 3225   4.846   3.231   0.061
 1094TIP3   OH2 3226   5.508   3.632   0.913
 1094TIP3    H1 3227   5.484   3.562   0.973
 1094TIP3    H2 3228   5.600   3.651   0.934
 1095TIP3   OH2 3229   5.493   3.386   0.097
 1095TIP3    H1 3230   5.458   3.423   0.017
 1095TIP3    H2 3231   5.529   3.301   0.071
 1096TIP3   OH2 3232   4.779   3.412   0.795
 1096TIP3    H1 3233   4.802   3.477   0.861
 1096TIP3    H2 3234   4.765   3.331   0.844
 1097TIP3   OH2 3235   4.370   2.941   0.373
 1097TIP3    H1 3236   4.446   2.966   0.424
 1097TIP3    H2 3237   4.406   2.898   0.295
 1098TIP3   OH2 3238   7.168   6.928   6.842
 1098TIP3    H1 3239   7.215   6.955   6.763
 1098TIP3    H2 3240   7.106   6.999   6.858
 1099TIP3   OH2 3241   5.490   3.635   0.492
 1099TIP3    H1 3242   5.532   3.569   0.437
 1099TIP3    H2 3243   5.461   3.588   0.569
 1100TIP3   OH2 3244   5.174   3.099   0.168
 1100TIP3    H1 3245   5.092   3.093   0.218
 1100TIP3    H2 3246   5.242   3.090   0.234
 1101TIP3   OH2 3247   4.598   3.147   0.169
 1101TIP3    H1 3248   4.508   3.156   0.140
 1101TIP3    H2 3249   4.622   3.057   0.146
 1102TIP3   OH2 3250   7.704   7.144   6.860
 1102TIP3    H1 3251   7.796   7.120   6.854
 1102TIP3    H2 3252   7.693   7.217   6.800
 1103TIP3   OH2 3253   5.661   3.165   0.363
 1103TIP3    H1 3254   5.635   3.176   0.454
 1103TIP3    H2 3255   5.596   3.106   0.326
 1104TIP3   OH2 3256   5.843   4.853   0.592
 1104TIP3    H1 3257   5.824   4.878   0.502
 1104TIP3    H2 3258   5.914   4.911   0.619
 1105TIP3   OH2 3259   4.790   3.970   1.004
 1105TIP3    H1 3260   4.870   3.999   1.049
 1105TIP3    H2 3261   4.724   3.965   1.073
 1106TIP3   OH2 3262   5.252   3.426   0.267
 1106TIP3    H1 3263   5.329   3.388   0.224
 1106TIP3    H2 3264   5.249   3.384   0.352
 1107TIP3   OH2 3265   4.774   2.904   0.145
 1107TIP3    H1 3266   4.732   2.834   0.194
 1107TIP3    H2 3267   4.832   2.860   0.083
 1108TIP3   OH2 3268   5.228   3.332   0.538
 1108TIP3    H1 3269   5.139   3.360   0.560
 1108TIP3    H2 3270   5.285   3.386   0.593
 1109TIP3   OH2 3271   5.861   3.955   0.278
 1109TIP3    H1 3272   5.826   3.998   0.200
 1109TIP3    H2 3273   5.788   3.900   0.309
 1110TIP3   OH2 3274   5.364   4.031   0.643
 1110TIP3    H1 3275   5.393   4.013   0.732
 1110TIP3    H2 3276   5.327   4.119   0.647
 1111TIP3   OH2 3277   4.656   3.729   0.319
 1111TIP3    H1 3278   4.696   3.698   0.238
 1111TIP3    H2 3279   4.697   3.676   0.388
 1112TIP3   OH2 3280   4.541   3.648   0.932
 1112TIP3    H1 3281   4.556   3.637   1.026
 1112TIP3    H2 3282   4.470   3.587   0.912
 1113TIP3   OH2 3283   5.267   3.768   0.949
 1113TIP3    H1 3284   5.204   3.708   0.910
 1113TIP3    H2 3285   5.352   3.734   0.922
 1114TIP3   OH2 3286   5.524   4.285   0.541
 1114TIP3    H1 3287   5.429   4.287   0.548
 1114TIP3    H2 3288   5.555   4.337   0.615
 1115TIP3   OH2 3289   6.150   4.218   0.535
 1115TIP3    H1 3290   6.055   4.218   0.532
 1115TIP3    H2 3291   6.176   4.190   0.447
 1116TIP3   OH2 3292   5.631   3.799   0.233
 1116TIP3    H1 3293   5.536   3.798   0.221
 1116TIP3    H2 3294   5.661   3.716   0.195
 1117TIP3   OH2 3295   4.746   4.023   0.001
 1117TIP3    H1 3296   4.793   4.103  -0.023
 1117TIP3    H2 3297   4.664   4.055   0.038
 1118TIP3   OH2 3298   7.175   7.337   6.634
 1118TIP3    H1 3299   7.175   7.418   6.583
 1118TIP3    H2 3300   7.091   7.338   6.680
 1119TIP3   OH2 3301   7.722   7.813   6.861
 1119TIP3    H1 3302   7.665   7.883   6.893
 1119TIP3    H2 3303   7.697   7.736   6.912
 1120TIP3   OH2 3304   5.036   4.372   0.414
 1120TIP3    H1 3305   5.070   4.448   0.366
 1120TIP3    H2 3306   5.111   4.340   0.464
 1121TIP3   OH2 3307   5.418   4.003   0.378
 1121TIP3    H1 3308   5.399   4.010   0.472
 1121TIP3    H2 3309   5.503   3.960   0.374
 1122TIP3   OH2 3310   5.658   4.552   0.422
 1122TIP3    H1 3311   5.582   4.494   0.424
 1122TIP3    H2 3312   5.640   4.612   0.349
 1123TIP3   OH2 3313   4.747   3.157   0.938
 1123TIP3    H1 3314   4.652   3.163   0.948
 1123TIP3    H2 3315   4.776   3.102   1.010
 1124TIP3   OH2 3316   4.470   4.240   0.571
 1124TIP3    H1 3317   4.522   4.169   0.609
 1124TIP3    H2 3318   4.492   4.317   0.624
 1125TIP3   OH2 3319   5.597   3.214   0.620
 1125TIP3    H1 3320   5.669   3.259   0.663
 1125TIP3    H2 3321   5.580   3.137   0.675
 1126TIP3   OH2 3322   7.979   7.147   6.842
 1126TIP3    H1 3323   8.015   7.231   6.813
 1126TIP3    H2 3324   7.996   7.144   6.936
 1127TIP3   OH2 3325   5.429   3.471   0.699
 1127TIP3    H1 3326   5.448   3.526   0.774
 1127TIP3    H2 3327   5.480   3.391   0.714
 1128TIP3   OH2 3328   5.312   2.886   0.007
 1128TIP3    H1 3329   5.297   2.949   0.078
 1128TIP3    H2 3330   5.379   2.928  -0.048
 1129TIP3   OH2 3331   7.642   6.895   6.715
 1129TIP3    H1 3332   7.617   6.959   6.781
 1129TIP3    H2 3333   7.730   6.867   6.741
 1130TIP3   OH2 3334   6.058   3.368   0.676
 1130TIP3    H1 3335   5.964   3.374   0.688
 1130TIP3    H2 3336   6.069   3.313   0.599
 1131TIP3   OH2 3337   5.713   3.566   0.108
 1131TIP3    H1 3338   5.636   3.510   0.120
 1131TIP3    H2 3339   5.785   3.516   0.148
 1132TIP3   OH2 3340   7.220   7.068   6.607
 1132TIP3    H1 3341   7.203   7.161   6.621
 1132TIP3    H2 3342   7.147   7.038   6.553
 1133TIP3   OH2 3343   4.763   2.788   0.538
 1133TIP3    H1 3344   4.732   2.755   0.454
 1133TIP3    H2 3345   4.753   2.714   0.598
 1134TIP3   OH2 3346   1.431  -0.017   6.917
 1134TIP3    H1 3347   1.391   0.042   6.981
 1134TIP3    H2 3348   1.467   0.041   6.849
 1135TIP3   OH2 3349   4.461   4.555   0.995
 1135TIP3    H1 3350   4.546   4.556   1.040
 1135TIP3    H2 3351   4.437   4.463   0.991
 1136TIP3   OH2 3352   4.938   4.511   1.036
 1136TIP3    H1 3353   5.031   4.492   1.045
 1136TIP3    H2 3354   4.908   4.453   0.967
 1137TIP3   OH2 3355   5.580   4.421   0.773
 1137TIP3    H1 3356   5.570   4.353   0.840
 1137TIP3    H2 3357   5.654   4.473   0.802
 1138TIP3   OH2 3358   4.587   3.958   1.192
 1138TIP3    H1 3359   4.604   3.865   1.202
 1138TIP3    H2 3360   4.502   3.963   1.148
 1139TIP3   OH2 3361   5.195   4.045   0.967
 1139TIP3    H1 3362   5.153   4.066   0.883
 1139TIP3    H2 3363   5.225   3.955   0.957
 1140TIP3   OH2 3364   5.685   4.055   0.568
 1140TIP3    H1 3365   5.763   4.102   0.536
 1140TIP3    H2 3366   5.614   4.119   0.561
 1141TIP3   OH2 3367   4.711   3.697   1.179
 1141TIP3    H1 3368   4.783   3.639   1.154
 1141TIP3    H2 3369   4.735   3.729   1.265
 1142TIP3   OH2 3370   5.044   3.581   0.837
 1142TIP3    H1 3371   4.965   3.635   0.838
 1142TIP3    H2 3372   5.093   3.612   0.761
 1143TIP3   OH2 3373   5.560   3.977   0.972
 1143TIP3    H1 3374   5.641   3.951   0.927
 1143TIP3    H2 3375   5.551   3.916   1.044
 1144TIP3   OH2 3376   5.166   3.368   0.959
 1144TIP3    H1 3377   5.166   3.289   0.905
 1144TIP3    H2 3378   5.122   3.434   0.906
 1145TIP3   OH2 3379   5.168   3.155   0.768
 1145TIP3    H1 3380   5.195   3.193   0.684
 1145TIP3    H2 3381   5.076   3.131   0.754
 1146TIP3   OH2 3382   5.192   3.687   0.640
 1146TIP3    H1 3383   5.278   3.703   0.602
 1146TIP3    H2 3384   5.135   3.751   0.598
 1147TIP3   OH2 3385   5.774   3.651   1.022
 1147TIP3    H1 3386   5.821   3.571   1.043
 1147TIP3    H2 3387   5.843   3.711   0.991
 1148TIP3   OH2 3388   5.817   3.907   0.753
 1148TIP3    H1 3389   5.757   3.959   0.699
 1148TIP3    H2 3390   5.904   3.927   0.719
 1149TIP3   OH2 3391   5.044   3.471   1.195
 1149TIP3    H1 3392   4.977   3.405   1.213
 1149TIP3    H2 3393   5.078   3.447   1.109
 1150TIP3   OH2 3394   5.297   2.914   0.839
 1150TIP3    H1 3395   5.250   2.995   0.818
 1150TIP3    H2 3396   5.231   2.845   0.830
 1151TIP3   OH2 3397   5.424   3.416   1.057
 1151TIP3    H1 3398   5.415   3.403   1.151
 1151TIP3    H2 3399   5.338   3.394   1.021
 1152TIP3   OH2 3400   5.662   3.363   0.910
 1152TIP3    H1 3401   5.589   3.368   0.972
 1152TIP3    H2 3402   5.737   3.336   0.963
 1153TIP3   OH2 3403   5.893   3.309   1.058
 1153TIP3    H1 3404   5.907   3.215   1.073
 1153TIP3    H2 3405   5.888   3.347   1.146
 1154TIP3   OH2 3406   4.885   3.251   1.251
 1154TIP3    H1 3407   4.885   3.161   1.218
 1154TIP3    H2 3408   4.921   3.244   1.340
 1155TIP3   OH2 3409   5.395   2.924   1.096
 1155TIP3    H1 3410   5.460   2.854   1.094
 1155TIP3    H2 3411   5.353   2.920   1.010
 1156TIP3   OH2 3412   5.460   3.140   1.255
 1156TIP3    H1 3413   5.441   3.069   1.193
 1156TIP3    H2 3414   5.383   3.197   1.251
 1157TIP3   OH2 3415   1.235   0.344   6.930
 1157TIP3    H1 3416   1.169   0.289   6.886
 1157TIP3    H2 3417   1.277   0.285   6.993
 1158TIP3   OH2 3418   4.225   4.203   0.169
 1158TIP3    H1 3419   4.200   4.139   0.235
 1158TIP3    H2 3420   4.265   4.274   0.219
 1159TIP3   OH2 3421   5.975   4.629   0.315
 1159TIP3    H1 3422   5.935   4.544   0.331
 1159TIP3    H2 3423   6.049   4.633   0.375
 1160TIP3   OH2 3424   6.013   4.311   0.830
 1160TIP3    H1 3425   5.943   4.319   0.894
 1160TIP3    H2 3426   6.057   4.396   0.832
 1161TIP3   OH2 3427   5.827   4.387   0.288
 1161TIP3    H1 3428   5.765   4.433   0.346
 1161TIP3    H2 3429   5.785   4.387   0.203
 1162TIP3   OH2 3430   4.400   3.619   0.545
 1162TIP3    H1 3431   4.392   3.587   0.456
 1162TIP3    H2 3432   4.494   3.621   0.562
 1163TIP3   OH2 3433   6.063   3.972   0.654
 1163TIP3    H1 3434   6.131   3.905   0.644
 1163TIP3    H2 3435   6.091   4.044   0.598
 1164TIP3   OH2 3436   6.243   3.769   0.666
 1164TIP3    H1 3437   6.169   3.724   0.705
 1164TIP3    H2 3438   6.317   3.710   0.680
 1165TIP3   OH2 3439   5.934   3.430   0.194
 1165TIP3    H1 3440   6.011   3.452   0.141
 1165TIP3    H2 3441   5.953   3.467   0.280
 1166TIP3   OH2 3442   5.992   3.576   0.421
 1166TIP3    H1 3443   5.915   3.599   0.473
 1166TIP3    H2 3444   6.030   3.660   0.396
 1167TIP3   OH2 3445   4.620   3.305   1.222
 1167TIP3    H1 3446   4.715   3.301   1.224
 1167TIP3    H2 3447   4.592   3.221   1.257
 1168TIP3   OH2 3448   6.449   3.175   0.970
 1168TIP3    H1 3449   6.510   3.112   0.933
 1168TIP3    H2 3450   6.420   3.227   0.895
 1169TIP3   OH2 3451   4.581   2.998   0.544
 1169TIP3    H1 3452   4.639   2.922   0.555
 1169TIP3    H2 3453   4.641   3.072   0.540
 1170TIP3   OH2 3454   4.379   3.272   0.621
 1170TIP3    H1 3455   4.427   3.269   0.538
 1170TIP3    H2 3456   4.404   3.356   0.660
 1171TIP3   OH2 3457   6.316   3.310   0.774
 1171TIP3    H1 3458   6.237   3.355   0.804
 1171TIP3    H2 3459   6.285   3.238   0.721
 1172TIP3   OH2 3460   4.365   2.781   0.132
 1172TIP3    H1 3461   4.273   2.767   0.156
 1172TIP3    H2 3462   4.361   2.834   0.053
 1173TIP3   OH2 3463   4.582   2.857   0.936
 1173TIP3    H1 3464   4.534   2.849   1.019
 1173TIP3    H2 3465   4.519   2.894   0.875
 1174TIP3   OH2 3466   4.622   4.286   1.014
 1174TIP3    H1 3467   4.531   4.262   0.996
 1174TIP3    H2 3468   4.635   4.264   1.106
 1175TIP3   OH2 3469   4.805   4.323   0.559
 1175TIP3    H1 3470   4.754   4.395   0.522
 1175TIP3    H2 3471   4.891   4.331   0.518
 1176TIP3   OH2 3472   5.243   4.559   0.702
 1176TIP3    H1 3473   5.283   4.556   0.789
 1176TIP3    H2 3474   5.302   4.615   0.651
 1177TIP3   OH2 3475   5.415   4.726   0.570
 1177TIP3    H1 3476   5.474   4.670   0.521
 1177TIP3    H2 3477   5.473   4.778   0.627
 1178TIP3   OH2 3478   6.218   3.068   0.659
 1178TIP3    H1 3479   6.128   3.059   0.629
 1178TIP3    H2 3480   6.255   2.980   0.653
 1179TIP3   OH2 3481   4.474   4.573   0.588
 1179TIP3    H1 3482   4.387   4.604   0.561
 1179TIP3    H2 3483   4.489   4.614   0.673
 1180TIP3   OH2 3484   4.711   4.556   0.447
 1180TIP3    H1 3485   4.627   4.565   0.493
 1180TIP3    H2 3486   4.694   4.589   0.359
 1181TIP3   OH2 3487   5.135   4.576   0.257
 1181TIP3    H1 3488   5.056   4.585   0.204
 1181TIP3    H2 3489   5.152   4.664   0.290
 1182TIP3   OH2 3490   5.395   4.524   0.327
 1182TIP3    H1 3491   5.301   4.527   0.310
 1182TIP3    H2 3492   5.431   4.594   0.272
 1183TIP3   OH2 3493   4.392   4.361   0.331
 1183TIP3    H1 3494   4.413   4.336   0.421
 1183TIP3    H2 3495   4.461   4.321   0.279
 1184TIP3   OH2 3496   4.589   4.231   0.194
 1184TIP3    H1 3497   4.598   4.153   0.248
 1184TIP3    H2 3498   4.672   4.277   0.205
 1185TIP3   OH2 3499   4.836   4.339   0.214
 1185TIP3    H1 3500   4.875   4.298   0.138
 1185TIP3    H2 3501   4.900   4.327   0.284
 1186TIP3   OH2 3502   5.421   2.980   0.271
 1186TIP3    H1 3503   5.381   2.914   0.328
 1186TIP3    H2 3504   5.497   2.937   0.234
 1187TIP3   OH2 3505   5.941   2.895   0.186
 1187TIP3    H1 3506   5.974   2.899   0.097
 1187TIP3    H2 3507   5.846   2.891   0.177
 1188TIP3   OH2 3508   4.672   2.693   0.292
 1188TIP3    H1 3509   4.580   2.666   0.295
 1188TIP3    H2 3510   4.721   2.611   0.288
 1189TIP3   OH2 3511   7.291   6.568   6.883
 1189TIP3    H1 3512   7.331   6.620   6.813
 1189TIP3    H2 3513   7.263   6.633   6.948
 1190TIP3   OH2 3514   5.119   2.730   0.179
 1190TIP3    H1 3515   5.182   2.777   0.124
 1190TIP3    H2 3516   5.137   2.760   0.268
 1191TIP3   OH2 3517   5.662   2.870   0.153
 1191TIP3    H1 3518   5.669   2.825   0.069
 1191TIP3    H2 3519   5.652   2.799   0.217
 1192TIP3   OH2 3520   7.414   6.718   6.693
 1192TIP3    H1 3521   7.411   6.678   6.606
 1192TIP3    H2 3522   7.492   6.774   6.691
 1193TIP3   OH2 3523   7.895   6.885   6.808
 1193TIP3    H1 3524   7.962   6.833   6.852
 1193TIP3    H2 3525   7.934   6.972   6.798
 1194TIP3   OH2 3526   4.882   2.978   1.187
 1194TIP3    H1 3527   4.843   2.910   1.240
 1194TIP3    H2 3528   4.975   2.979   1.213
 1195TIP3   OH2 3529   5.133   2.974   1.305
 1195TIP3    H1 3530   5.217   2.949   1.266
 1195TIP3    H2 3531   5.116   2.907   1.371
 1196TIP3   OH2 3532   5.959   3.038   1.092
 1196TIP3    H1 3533   5.974   3.008   1.182
 1196TIP3    H2 3534   6.046   3.035   1.051
 1197TIP3   OH2 3535   5.889   4.584   0.594
 1197TIP3    H1 3536   5.810   4.560   0.546
 1197TIP3    H2 3537   5.885   4.679   0.600
 1198TIP3   OH2 3538   6.721   3.295   0.254
 1198TIP3    H1 3539   6.671   3.294   0.172
 1198TIP3    H2 3540   6.662   3.335   0.317
 1199TIP3   OH2 3541   6.611   3.968   0.386
 1199TIP3    H1 3542   6.621   4.055   0.426
 1199TIP3    H2 3543   6.516   3.956   0.377
 1200TIP3   OH2 3544   6.232   4.113   0.298
 1200TIP3    H1 3545   6.250   4.111   0.204
 1200TIP3    H2 3546   6.274   4.035   0.332
 1201TIP3   OH2 3547   6.448   4.296   0.295
 1201TIP3    H1 3548   6.516   4.303   0.363
 1201TIP3    H2 3549   6.381   4.240   0.335
 1202TIP3   OH2 3550   7.330   3.253   0.263
 1202TIP3    H1 3551   7.399   3.193   0.290
 1202TIP3    H2 3552   7.249   3.214   0.296
 1203TIP3   OH2 3553   7.303   3.903   0.397
 1203TIP3    H1 3554   7.266   3.825   0.437
 1203TIP3    H2 3555   7.397   3.893   0.406
 1204TIP3   OH2 3556   6.564   3.672   0.298
 1204TIP3    H1 3557   6.577   3.745   0.359
 1204TIP3    H2 3558   6.556   3.595   0.354
 1205TIP3   OH2 3559   6.605   4.211   0.519
 1205TIP3    H1 3560   6.680   4.250   0.564
 1205TIP3    H2 3561   6.533   4.222   0.581
 1206TIP3   OH2 3562   6.341   3.905   0.434
 1206TIP3    H1 3563   6.366   3.896   0.526
 1206TIP3    H2 3564   6.264   3.849   0.424
 1207TIP3   OH2 3565   7.059   4.024   0.451
 1207TIP3    H1 3566   6.993   3.958   0.427
 1207TIP3    H2 3567   7.142   3.983   0.429
 1208TIP3   OH2 3568   6.539   3.423   0.435
 1208TIP3    H1 3569   6.445   3.425   0.447
 1208TIP3    H2 3570   6.572   3.368   0.506
 1209TIP3   OH2 3571   6.235   4.777   0.505
 1209TIP3    H1 3572   6.322   4.804   0.536
 1209TIP3    H2 3573   6.240   4.682   0.498
 1210TIP3   OH2 3574   6.725   4.762   0.566
 1210TIP3    H1 3575   6.807   4.746   0.613
 1210TIP3    H2 3576   6.721   4.694   0.500
 1211TIP3   OH2 3577   6.383   4.211   0.689
 1211TIP3    H1 3578   6.396   4.116   0.695
 1211TIP3    H2 3579   6.298   4.221   0.646
 1212TIP3   OH2 3580   6.988   4.301   0.452
 1212TIP3    H1 3581   6.955   4.302   0.362
 1212TIP3    H2 3582   7.029   4.215   0.461
 1213TIP3   OH2 3583   6.505   3.940   0.673
 1213TIP3    H1 3584   6.585   3.897   0.644
 1213TIP3    H2 3585   6.528   3.980   0.756
 1214TIP3   OH2 3586   6.859   3.864   0.350
 1214TIP3    H1 3587   6.775   3.894   0.385
 1214TIP3    H2 3588   6.863   3.901   0.262
 1215TIP3   OH2 3589   7.290   4.224   0.482
 1215TIP3    H1 3590   7.369   4.278   0.476
 1215TIP3    H2 3591   7.306   4.167   0.558
 1216TIP3   OH2 3592   6.954   3.618   0.461
 1216TIP3    H1 3593   6.963   3.539   0.409
 1216TIP3    H2 3594   6.931   3.686   0.397
 1217TIP3   OH2 3595   6.971   3.400   0.292
 1217TIP3    H1 3596   7.007   3.435   0.211
 1217TIP3    H2 3597   6.885   3.367   0.267
 1218TIP3   OH2 3598   7.561   3.894   0.545
 1218TIP3    H1 3599   7.569   3.816   0.491
 1218TIP3    H2 3600   7.641   3.943   0.530
 1219TIP3   OH2 3601   6.833   3.730   0.681
 1219TIP3    H1 3602   6.767   3.665   0.703
 1219TIP3    H2 3603   6.872   3.699   0.599
 1220TIP3   OH2 3604   7.084   3.154   0.342
 1220TIP3    H1 3605   7.039   3.237   0.327
 1220TIP3    H2 3606   7.021   3.087   0.318
 1221TIP3   OH2 3607   7.208   3.689   0.541
 1221TIP3    H1 3608   7.213   3.674   0.635
 1221TIP3    H2 3609   7.122   3.654   0.516
 1222TIP3   OH2 3610   7.470   3.662   0.414
 1222TIP3    H1 3611   7.387   3.633   0.451
 1222TIP3    H2 3612   7.535   3.601   0.449
 1223TIP3   OH2 3613   7.671   3.538   0.557
 1223TIP3    H1 3614   7.708   3.454   0.585
 1223TIP3    H2 3615   7.675   3.593   0.635
 1224TIP3   OH2 3616   6.679   3.508   0.741
 1224TIP3    H1 3617   6.684   3.420   0.705
 1224TIP3    H2 3618   6.716   3.501   0.828
 1225TIP3   OH2 3619   7.185   3.174   0.593
 1225TIP3    H1 3620   7.253   3.106   0.588
 1225TIP3    H2 3621   7.143   3.173   0.508
 1226TIP3   OH2 3622   7.257   3.399   0.741
 1226TIP3    H1 3623   7.237   3.326   0.682
 1226TIP3    H2 3624   7.180   3.456   0.736
 1227TIP3   OH2 3625   6.414   3.558   0.699
 1227TIP3    H1 3626   6.509   3.559   0.706
 1227TIP3    H2 3627   6.388   3.476   0.741
 1228TIP3   OH2 3628   6.379   3.120   0.434
 1228TIP3    H1 3629   6.339   3.107   0.521
 1228TIP3    H2 3630   6.304   3.133   0.376
 1229TIP3   OH2 3631   6.420   4.508   0.523
 1229TIP3    H1 3632   6.326   4.494   0.507
 1229TIP3    H2 3633   6.424   4.545   0.611
 1230TIP3   OH2 3634   6.678   3.232   0.672
 1230TIP3    H1 3635   6.641   3.165   0.729
 1230TIP3    H2 3636   6.771   3.235   0.696
 1231TIP3   OH2 3637   6.928   3.230   0.790
 1231TIP3    H1 3638   7.013   3.211   0.750
 1231TIP3    H2 3639   6.916   3.162   0.856
 1232TIP3   OH2 3640   0.430   4.296   1.468
 1232TIP3    H1 3641   0.458   4.376   1.513
 1232TIP3    H2 3642   0.447   4.314   1.375
 1233TIP3   OH2 3643   8.390   4.488   1.494
 1233TIP3    H1 3644   8.405   4.395   1.515
 1233TIP3    H2 3645   8.454   4.508   1.426
 1234TIP3   OH2 3646   0.500   4.504   1.637
 1234TIP3    H1 3647   0.416   4.545   1.616
 1234TIP3    H2 3648   0.515   4.526   1.729
 1235TIP3   OH2 3649   0.056   4.245   1.258
 1235TIP3    H1 3650   0.088   4.182   1.322
 1235TIP3    H2 3651   0.093   4.329   1.285
 1236TIP3   OH2 3652   0.225   4.208   1.639
 1236TIP3    H1 3653   0.140   4.227   1.599
 1236TIP3    H2 3654   0.288   4.230   1.570
 1237TIP3   OH2 3655   0.159   5.245   1.601
 1237TIP3    H1 3656   0.170   5.156   1.567
 1237TIP3    H2 3657   0.121   5.294   1.528
 1238TIP3   OH2 3658   0.356   4.840   1.470
 1238TIP3    H1 3659   0.281   4.899   1.478
 1238TIP3    H2 3660   0.390   4.857   1.382
 1239TIP3   OH2 3661   0.048   4.727   1.769
 1239TIP3    H1 3662   0.047   4.813   1.811
 1239TIP3    H2 3663  -0.039   4.719   1.730
 1240TIP3   OH2 3664   0.409   5.535   1.675
 1240TIP3    H1 3665   0.420   5.440   1.677
 1240TIP3    H2 3666   0.321   5.551   1.708
 1241TIP3   OH2 3667   0.278   4.683   1.933
 1241TIP3    H1 3668   0.197   4.693   1.882
 1241TIP3    H2 3669   0.298   4.590   1.928
 1242TIP3   OH2 3670   8.320   4.027   1.936
 1242TIP3    H1 3671   8.382   4.001   2.004
 1242TIP3    H2 3672   8.235   3.996   1.968
 1243TIP3   OH2 3673   0.043   4.457   1.857
 1243TIP3    H1 3674  -0.001   4.455   1.941
 1243TIP3    H2 3675   0.029   4.547   1.825
 1244TIP3   OH2 3676   8.284   4.682   2.104
 1244TIP3    H1 3677   8.254   4.609   2.157
 1244TIP3    H2 3678   8.377   4.690   2.123
 1245TIP3   OH2 3679   8.298   4.674   1.677
 1245TIP3    H1 3680   8.321   4.597   1.625
 1245TIP3    H2 3681   8.245   4.640   1.749
 1246TIP3   OH2 3682   8.397   4.219   1.546
 1246TIP3    H1 3683   8.369   4.241   1.635
 1246TIP3    H2 3684   8.354   4.136   1.527
 1247TIP3   OH2 3685   8.025   4.350   1.802
 1247TIP3    H1 3686   8.002   4.419   1.739
 1247TIP3    H2 3687   8.111   4.376   1.835
 1248TIP3   OH2 3688   0.148   5.015   1.462
 1248TIP3    H1 3689   0.132   5.060   1.378
 1248TIP3    H2 3690   0.061   4.997   1.496
 1249TIP3   OH2 3691   8.052   4.789   2.195
 1249TIP3    H1 3692   7.994   4.762   2.124
 1249TIP3    H2 3693   8.140   4.772   2.162
 1250TIP3   OH2 3694   0.408   5.256   1.700
 1250TIP3    H1 3695   0.313   5.267   1.698
 1250TIP3    H2 3696   0.430   5.225   1.612
 1251TIP3   OH2 3697   8.339   4.267   1.803
 1251TIP3    H1 3698   8.419   4.308   1.836
 1251TIP3    H2 3699   8.330   4.187   1.855
 1252TIP3   OH2 3700   8.219   4.528   1.893
 1252TIP3    H1 3701   8.227   4.595   1.961
 1252TIP3    H2 3702   8.273   4.456   1.924
 1253TIP3   OH2 3703   0.309   4.418   1.850
 1253TIP3    H1 3704   0.213   4.418   1.862
 1253TIP3    H2 3705   0.323   4.366   1.771
 1254TIP3   OH2 3706   8.319   5.548   2.093
 1254TIP3    H1 3707   8.334   5.454   2.107
 1254TIP3    H2 3708   8.394   5.576   2.041
 1255TIP3   OH2 3709   8.483   5.060   1.724
 1255TIP3    H1 3710   8.530   5.143   1.716
 1255TIP3    H2 3711   8.391   5.084   1.715
 1256TIP3   OH2 3712   8.312   5.009   2.161
 1256TIP3    H1 3713   8.382   4.978   2.104
 1256TIP3    H2 3714   8.307   4.945   2.232
 1257TIP3   OH2 3715   7.887   4.144   1.903
 1257TIP3    H1 3716   7.948   4.210   1.869
 1257TIP3    H2 3717   7.817   4.196   1.942
 1258TIP3   OH2 3718   0.038   4.691   2.200
 1258TIP3    H1 3719   0.084   4.612   2.226
 1258TIP3    H2 3720   0.106   4.746   2.160
 1259TIP3   OH2 3721   0.079   4.953   1.950
 1259TIP3    H1 3722   0.024   4.997   1.885
 1259TIP3    H2 3723   0.168   4.963   1.917
 1260TIP3   OH2 3724   8.052   3.952   2.013
 1260TIP3    H1 3725   8.006   4.028   1.977
 1260TIP3    H2 3726   7.991   3.879   1.999
 1261TIP3   OH2 3727   8.185   4.466   2.243
 1261TIP3    H1 3728   8.216   4.461   2.333
 1261TIP3    H2 3729   8.098   4.427   2.245
 1262TIP3   OH2 3730   8.412   4.408   2.087
 1262TIP3    H1 3731   8.340   4.410   2.151
 1262TIP3    H2 3732   8.488   4.381   2.137
 1263TIP3   OH2 3733   0.134   4.351   2.237
 1263TIP3    H1 3734   0.153   4.258   2.253
 1263TIP3    H2 3735   0.134   4.390   2.324
 1264TIP3   OH2 3736   8.145   3.964   2.273
 1264TIP3    H1 3737   8.216   3.901   2.265
 1264TIP3    H2 3738   8.104   3.965   2.186
 1265TIP3   OH2 3739   8.222   4.179   2.421
 1265TIP3    H1 3740   8.203   4.101   2.369
 1265TIP3    H2 3741   8.139   4.226   2.425
 1266TIP3   OH2 3742   0.266   5.354   2.002
 1266TIP3    H1 3743   0.195   5.362   2.066
 1266TIP3    H2 3744   0.311   5.438   2.005
 1267TIP3   OH2 3745   0.317   5.017   1.828
 1267TIP3    H1 3746   0.383   4.948   1.822
 1267TIP3    H2 3747   0.349   5.087   1.772
 1268TIP3   OH2 3748   0.496   4.816   1.845
 1268TIP3    H1 3749   0.420   4.769   1.880
 1268TIP3    H2 3750   0.570   4.756   1.859
 1269TIP3   OH2 3751   0.176   4.467   1.373
 1269TIP3    H1 3752   0.251   4.493   1.320
 1269TIP3    H2 3753   0.191   4.507   1.458
 1270TIP3   OH2 3754   0.249   4.619   1.592
 1270TIP3    H1 3755   0.180   4.655   1.648
 1270TIP3    H2 3756   0.288   4.696   1.549
 1271TIP3   OH2 3757   0.691   4.207   2.143
 1271TIP3    H1 3758   0.757   4.146   2.109
 1271TIP3    H2 3759   0.674   4.267   2.070
 1272TIP3   OH2 3760   0.568   4.359   1.946
 1272TIP3    H1 3761   0.486   4.399   1.975
 1272TIP3    H2 3762   0.542   4.282   1.897
 1273TIP3   OH2 3763   0.472   4.117   1.836
 1273TIP3    H1 3764   0.383   4.107   1.804
 1273TIP3    H2 3765   0.510   4.029   1.828
 1274TIP3   OH2 3766   0.147   4.012   1.386
 1274TIP3    H1 3767   0.223   4.029   1.330
 1274TIP3    H2 3768   0.093   3.951   1.335
 1275TIP3   OH2 3769   0.319   4.028   1.168
 1275TIP3    H1 3770   0.294   4.001   1.080
 1275TIP3    H2 3771   0.356   4.116   1.157
 1276TIP3   OH2 3772   0.207   4.082   2.268
 1276TIP3    H1 3773   0.223   4.053   2.358
 1276TIP3    H2 3774   0.293   4.082   2.227
 1277TIP3   OH2 3775   0.148   5.571   1.741
 1277TIP3    H1 3776   0.067   5.522   1.755
 1277TIP3    H2 3777   0.122   5.663   1.750
 1278TIP3   OH2 3778   1.407   4.995   0.532
 1278TIP3    H1 3779   1.386   5.086   0.509
 1278TIP3    H2 3780   1.331   4.945   0.503
 1279TIP3   OH2 3781   1.410   5.005   0.914
 1279TIP3    H1 3782   1.446   4.984   1.000
 1279TIP3    H2 3783   1.368   4.924   0.885
 1280TIP3   OH2 3784   0.718   4.903   1.278
 1280TIP3    H1 3785   0.748   4.835   1.338
 1280TIP3    H2 3786   0.799   4.949   1.251
 1281TIP3   OH2 3787   1.652   5.310   0.597
 1281TIP3    H1 3788   1.643   5.240   0.661
 1281TIP3    H2 3789   1.684   5.385   0.648
 1282TIP3   OH2 3790   0.699   5.294   1.075
 1282TIP3    H1 3791   0.688   5.200   1.062
 1282TIP3    H2 3792   0.790   5.311   1.051
 1283TIP3   OH2 3793   0.555   4.803   0.935
 1283TIP3    H1 3794   0.570   4.729   0.994
 1283TIP3    H2 3795   0.505   4.767   0.862
 1284TIP3   OH2 3796   1.352   5.741   0.668
 1284TIP3    H1 3797   1.422   5.709   0.611
 1284TIP3    H2 3798   1.363   5.692   0.750
 1285TIP3   OH2 3799   1.222   5.228   0.958
 1285TIP3    H1 3800   1.260   5.149   0.920
 1285TIP3    H2 3801   1.297   5.282   0.981
 1286TIP3   OH2 3802   2.224   4.555   0.952
 1286TIP3    H1 3803   2.253   4.635   0.995
 1286TIP3    H2 3804   2.248   4.567   0.860
 1287TIP3   OH2 3805   1.622   4.733   0.984
 1287TIP3    H1 3806   1.664   4.650   1.008
 1287TIP3    H2 3807   1.588   4.717   0.896
 1288TIP3   OH2 3808   0.965   4.393   0.950
 1288TIP3    H1 3809   0.944   4.469   0.895
 1288TIP3    H2 3810   0.918   4.320   0.910
 1289TIP3   OH2 3811   1.657   4.487   0.571
 1289TIP3    H1 3812   1.722   4.471   0.639
 1289TIP3    H2 3813   1.708   4.519   0.496
 1290TIP3   OH2 3814   0.598   4.581   1.082
 1290TIP3    H1 3815   0.682   4.567   1.125
 1290TIP3    H2 3816   0.602   4.526   1.004
 1291TIP3   OH2 3817   1.036   4.800   0.851
 1291TIP3    H1 3818   1.127   4.775   0.867
 1291TIP3    H2 3819   0.993   4.718   0.825
 1292TIP3   OH2 3820   2.295   4.764   1.123
 1292TIP3    H1 3821   2.212   4.806   1.103
 1292TIP3    H2 3822   2.312   4.787   1.214
 1293TIP3   OH2 3823   0.956   4.376   1.390
 1293TIP3    H1 3824   0.900   4.412   1.321
 1293TIP3    H2 3825   0.905   4.390   1.471
 1294TIP3   OH2 3826   1.314   5.208   0.393
 1294TIP3    H1 3827   1.287   5.189   0.303
 1294TIP3    H2 3828   1.317   5.304   0.398
 1295TIP3   OH2 3829   1.066   5.154   1.181
 1295TIP3    H1 3830   1.005   5.218   1.218
 1295TIP3    H2 3831   1.101   5.196   1.103
 1296TIP3   OH2 3832   1.859   4.493   0.751
 1296TIP3    H1 3833   1.846   4.443   0.831
 1296TIP3    H2 3834   1.911   4.569   0.777
 1297TIP3   OH2 3835   0.838   4.489   1.172
 1297TIP3    H1 3836   0.896   4.561   1.197
 1297TIP3    H2 3837   0.882   4.447   1.098
 1298TIP3   OH2 3838   0.898   5.345   1.291
 1298TIP3    H1 3839   0.876   5.428   1.248
 1298TIP3    H2 3840   0.820   5.322   1.341
 1299TIP3   OH2 3841   1.715   5.551   0.756
 1299TIP3    H1 3842   1.627   5.542   0.794
 1299TIP3    H2 3843   1.713   5.635   0.711
 1300TIP3   OH2 3844   2.016   4.454   1.118
 1300TIP3    H1 3845   1.929   4.480   1.087
 1300TIP3    H2 3846   2.076   4.485   1.050
 1301TIP3   OH2 3847   1.304   4.090   1.103
 1301TIP3    H1 3848   1.293   3.997   1.123
 1301TIP3    H2 3849   1.231   4.133   1.147
 1302TIP3   OH2 3850   1.516   5.631   0.477
 1302TIP3    H1 3851   1.556   5.552   0.443
 1302TIP3    H2 3852   1.536   5.698   0.412
 1303TIP3   OH2 3853   1.563   5.391   0.349
 1303TIP3    H1 3854   1.575   5.324   0.282
 1303TIP3    H2 3855   1.591   5.348   0.430
 1304TIP3   OH2 3856   1.948   5.465   1.097
 1304TIP3    H1 3857   1.936   5.387   1.042
 1304TIP3    H2 3858   1.931   5.539   1.038
 1305TIP3   OH2 3859   1.236   4.854   0.333
 1305TIP3    H1 3860   1.157   4.902   0.307
 1305TIP3    H2 3861   1.299   4.872   0.263
 1306TIP3   OH2 3862   1.142   4.587   0.195
 1306TIP3    H1 3863   1.194   4.644   0.251
 1306TIP3    H2 3864   1.205   4.547   0.136
 1307TIP3   OH2 3865   2.142   5.108   0.944
 1307TIP3    H1 3866   2.059   5.155   0.950
 1307TIP3    H2 3867   2.174   5.127   0.856
 1308TIP3   OH2 3868   1.600   4.948   0.346
 1308TIP3    H1 3869   1.544   4.966   0.422
 1308TIP3    H2 3870   1.684   4.920   0.383
 1309TIP3   OH2 3871   1.820   4.981   1.245
 1309TIP3    H1 3872   1.819   5.062   1.296
 1309TIP3    H2 3873   1.736   4.982   1.199
 1310TIP3   OH2 3874   0.807   4.922   0.754
 1310TIP3    H1 3875   0.793   4.870   0.675
 1310TIP3    H2 3876   0.889   4.891   0.790
 1311TIP3   OH2 3877   0.941   5.295   0.938
 1311TIP3    H1 3878   0.925   5.352   0.862
 1311TIP3    H2 3879   1.036   5.279   0.936
 1312TIP3   OH2 3880   0.967   4.908   1.105
 1312TIP3    H1 3881   0.987   4.890   1.013
 1312TIP3    H2 3882   1.000   4.997   1.119
 1313TIP3   OH2 3883   1.471   5.555   0.878
 1313TIP3    H1 3884   1.475   5.628   0.939
 1313TIP3    H2 3885   1.464   5.477   0.933
 1314TIP3   OH2 3886   1.098   5.469   1.428
 1314TIP3    H1 3887   1.039   5.532   1.470
 1314TIP3    H2 3888   1.040   5.414   1.376
 1315TIP3   OH2 3889   1.457   4.830   0.148
 1315TIP3    H1 3890   1.507   4.865   0.222
 1315TIP3    H2 3891   1.453   4.903   0.086
 1316TIP3   OH2 3892   0.852   5.022   1.533
 1316TIP3    H1 3893   0.857   5.109   1.573
 1316TIP3    H2 3894   0.759   4.999   1.538
 1317TIP3   OH2 3895   0.893   5.636   1.512
 1317TIP3    H1 3896   0.862   5.637   1.422
 1317TIP3    H2 3897   0.817   5.609   1.564
 1318TIP3   OH2 3898   1.946   4.045   0.201
 1318TIP3    H1 3899   1.866   4.059   0.252
 1318TIP3    H2 3900   1.956   4.125   0.150
 1319TIP3   OH2 3901   0.471   5.155   1.456
 1319TIP3    H1 3902   0.446   5.126   1.368
 1319TIP3    H2 3903   0.513   5.078   1.495
 1320TIP3   OH2 3904   2.182   5.811   1.148
 1320TIP3    H1 3905   2.186   5.716   1.160
 1320TIP3    H2 3906   2.102   5.838   1.192
 1321TIP3   OH2 3907   1.296   5.594   1.287
 1321TIP3    H1 3908   1.292   5.686   1.314
 1321TIP3    H2 3909   1.224   5.552   1.333
 1322TIP3   OH2 3910   2.073   4.939   1.420
 1322TIP3    H1 3911   1.991   4.949   1.373
 1322TIP3    H2 3912   2.093   4.845   1.414
 1323TIP3   OH2 3913   0.678   5.341   1.455
 1323TIP3    H1 3914   0.728   5.322   1.534
 1323TIP3    H2 3915   0.604   5.280   1.459
 1324TIP3   OH2 3916   1.068   4.175   1.231
 1324TIP3    H1 3917   0.983   4.143   1.201
 1324TIP3    H2 3918   1.048   4.252   1.283
 1325TIP3   OH2 3919   1.607   4.286   1.428
 1325TIP3    H1 3920   1.675   4.258   1.489
 1325TIP3    H2 3921   1.525   4.267   1.473
 1326TIP3   OH2 3922   1.841   4.717   1.345
 1326TIP3    H1 3923   1.792   4.713   1.427
 1326TIP3    H2 3924   1.818   4.803   1.308
 1327TIP3   OH2 3925   1.217   4.278   0.208
 1327TIP3    H1 3926   1.205   4.244   0.296
 1327TIP3    H2 3927   1.190   4.205   0.151
 1328TIP3   OH2 3928   1.006   4.688   1.252
 1328TIP3    H1 3929   0.956   4.707   1.332
 1328TIP3    H2 3930   0.995   4.767   1.199
 1329TIP3   OH2 3931   0.886   4.580   0.773
 1329TIP3    H1 3932   0.795   4.555   0.791
 1329TIP3    H2 3933   0.905   4.541   0.688
 1330TIP3   OH2 3934   1.381   4.669   0.487
 1330TIP3    H1 3935   1.331   4.738   0.443
 1330TIP3    H2 3936   1.439   4.634   0.419
 1331TIP3   OH2 3937   1.554   4.935   1.579
 1331TIP3    H1 3938   1.529   4.863   1.637
 1331TIP3    H2 3939   1.647   4.949   1.598
 1332TIP3   OH2 3940   1.533   4.684   0.726
 1332TIP3    H1 3941   1.472   4.716   0.659
 1332TIP3    H2 3942   1.572   4.605   0.686
 1333TIP3   OH2 3943   0.824   4.715   1.460
 1333TIP3    H1 3944   0.859   4.775   1.526
 1333TIP3    H2 3945   0.811   4.632   1.507
 1334TIP3   OH2 3946   0.418   4.244   1.046
 1334TIP3    H1 3947   0.491   4.274   1.101
 1334TIP3    H2 3948   0.453   4.247   0.957
 1335TIP3   OH2 3949   1.544   4.930   1.149
 1335TIP3    H1 3950   1.578   4.863   1.090
 1335TIP3    H2 3951   1.514   4.881   1.226
 1336TIP3   OH2 3952   1.222   4.402   0.829
 1336TIP3    H1 3953   1.140   4.397   0.879
 1336TIP3    H2 3954   1.291   4.387   0.893
 1337TIP3   OH2 3955   0.655   4.438   0.857
 1337TIP3    H1 3956   0.577   4.446   0.803
 1337TIP3    H2 3957   0.695   4.355   0.829
 1338TIP3   OH2 3958   0.956   4.472   0.536
 1338TIP3    H1 3959   1.051   4.461   0.541
 1338TIP3    H2 3960   0.934   4.454   0.445
 1339TIP3   OH2 3961   1.705   4.472   1.030
 1339TIP3    H1 3962   1.675   4.486   1.120
 1339TIP3    H2 3963   1.641   4.412   0.992
 1340TIP3   OH2 3964   1.880   6.163   1.245
 1340TIP3    H1 3965   1.876   6.181   1.151
 1340TIP3    H2 3966   1.958   6.210   1.275
 1341TIP3   OH2 3967   0.836   5.269   1.671
 1341TIP3    H1 3968   0.915   5.301   1.715
 1341TIP3    H2 3969   0.770   5.268   1.740
 1342TIP3   OH2 3970   1.298   4.727   0.924
 1342TIP3    H1 3971   1.369   4.684   0.876
 1342TIP3    H2 3972   1.298   4.684   1.009
 1343TIP3   OH2 3973   0.822   4.213   0.804
 1343TIP3    H1 3974   0.787   4.135   0.848
 1343TIP3    H2 3975   0.882   4.178   0.738
 1344TIP3   OH2 3976   1.274   4.629   1.205
 1344TIP3    H1 3977   1.185   4.659   1.224
 1344TIP3    H2 3978   1.329   4.686   1.258
 1345TIP3   OH2 3979   1.907   5.249   0.930
 1345TIP3    H1 3980   1.932   5.299   0.853
 1345TIP3    H2 3981   1.825   5.206   0.906
 1346TIP3   OH2 3982   1.487   4.330   0.166
 1346TIP3    H1 3983   1.393   4.315   0.165
 1346TIP3    H2 3984   1.497   4.424   0.182
 1347TIP3   OH2 3985   1.414   5.334   1.300
 1347TIP3    H1 3986   1.436   5.308   1.390
 1347TIP3    H2 3987   1.371   5.419   1.310
 1348TIP3   OH2 3988   1.538   4.584   0.274
 1348TIP3    H1 3989   1.631   4.578   0.292
 1348TIP3    H2 3990   1.529   4.659   0.216
 1349TIP3   OH2 3991   0.710   5.042   0.984
 1349TIP3    H1 3992   0.744   5.013   0.899
 1349TIP3    H2 3993   0.696   4.962   1.034
 1350TIP3   OH2 3994   0.585   4.955   1.599
 1350TIP3    H1 3995   0.606   4.940   1.691
 1350TIP3    H2 3996   0.521   4.887   1.578
 1351TIP3   OH2 3997   1.313   5.069   1.613
 1351TIP3    H1 3998   1.249   5.013   1.569
 1351TIP3    H2 3999   1.398   5.035   1.586
 1352TIP3   OH2 4000   1.568   5.598   1.199
 1352TIP3    H1 4001   1.474   5.586   1.214
 1352TIP3    H2 4002   1.598   5.646   1.276
 1353TIP3   OH2 4003   1.975   4.664   0.111
 1353TIP3    H1 4004   1.918   4.619   0.049
 1353TIP3    H2 4005   1.981   4.754   0.077
 1354TIP3   OH2 4006   2.197   5.524   1.184
 1354TIP3    H1 4007   2.102   5.517   1.180
 1354TIP3    H2 4008   2.226   5.493   1.098
 1355TIP3   OH2 4009   1.674   5.110   0.845
 1355TIP3    H1 4010   1.582   5.087   0.863
 1355TIP3    H2 4011   1.710   5.031   0.805
 1356TIP3   OH2 4012   1.074   5.695   1.109
 1356TIP3    H1 4013   1.081   5.712   1.015
 1356TIP3    H2 4014   1.158   5.656   1.133
 1357TIP3   OH2 4015   1.470   5.320   1.036
 1357TIP3    H1 4016   1.452   5.320   1.130
 1357TIP3    H2 4017   1.545   5.262   1.025
 1358TIP3   OH2 4018   1.711   5.848   1.087
 1358TIP3    H1 4019   1.634   5.792   1.086
 1358TIP3    H2 4020   1.697   5.910   1.016
 1359TIP3   OH2 4021   0.792   4.459   1.602
 1359TIP3    H1 4022   0.697   4.461   1.614
 1359TIP3    H2 4023   0.824   4.405   1.674
 1360TIP3   OH2 4024   1.627   5.177   0.188
 1360TIP3    H1 4025   1.606   5.100   0.241
 1360TIP3    H2 4026   1.713   5.157   0.150
 1361TIP3   OH2 4027   0.564   5.530   1.291
 1361TIP3    H1 4028   0.568   5.449   1.239
 1361TIP3    H2 4029   0.623   5.514   1.365
 1362TIP3   OH2 4030   1.635   4.523   1.288
 1362TIP3    H1 4031   1.715   4.561   1.324
 1362TIP3    H2 4032   1.621   4.444   1.340
 1363TIP3   OH2 4033   1.511   4.277   0.449
 1363TIP3    H1 4034   1.503   4.295   0.356
 1363TIP3    H2 4035   1.552   4.355   0.486
 1364TIP3   OH2 4036   1.226   4.454   0.562
 1364TIP3    H1 4037   1.284   4.527   0.542
 1364TIP3    H2 4038   1.229   4.447   0.657
 1365TIP3   OH2 4039   1.473   4.771   1.359
 1365TIP3    H1 4040   1.496   4.822   1.437
 1365TIP3    H2 4041   1.523   4.691   1.368
 1366TIP3   OH2 4042   1.356   4.177   0.659
 1366TIP3    H1 4043   1.353   4.250   0.721
 1366TIP3    H2 4044   1.412   4.209   0.588
 1367TIP3   OH2 4045   0.884   4.167   0.474
 1367TIP3    H1 4046   0.866   4.259   0.456
 1367TIP3    H2 4047   0.978   4.158   0.461
 1368TIP3   OH2 4048   2.106   4.673   1.340
 1368TIP3    H1 4049   2.011   4.675   1.351
 1368TIP3    H2 4050   2.120   4.624   1.259
 1369TIP3   OH2 4051   1.760   4.866   0.732
 1369TIP3    H1 4052   1.684   4.809   0.744
 1369TIP3    H2 4053   1.831   4.821   0.778
 1370TIP3   OH2 4054   1.743   5.819   0.683
 1370TIP3    H1 4055   1.706   5.868   0.610
 1370TIP3    H2 4056   1.837   5.830   0.674
 1371TIP3   OH2 4057   0.805   4.094   1.206
 1371TIP3    H1 4058   0.778   4.057   1.121
 1371TIP3    H2 4059   0.804   4.020   1.266
 1372TIP3   OH2 4060   0.499   5.809   1.633
 1372TIP3    H1 4061   0.456   5.724   1.634
 1372TIP3    H2 4062   0.577   5.798   1.688
 1373TIP3   OH2 4063   0.993   5.801   1.709
 1373TIP3    H1 4064   1.088   5.790   1.702
 1373TIP3    H2 4065   0.958   5.752   1.635
 1374TIP3   OH2 4066   1.621   5.724   1.439
 1374TIP3    H1 4067   1.613   5.655   1.504
 1374TIP3    H2 4068   1.698   5.774   1.466
 1375TIP3   OH2 4069   0.634   5.255   1.862
 1375TIP3    H1 4070   0.656   5.162   1.863
 1375TIP3    H2 4071   0.550   5.260   1.815
 1376TIP3   OH2 4072   1.228   5.344   1.637
 1376TIP3    H1 4073   1.195   5.368   1.551
 1376TIP3    H2 4074   1.264   5.256   1.626
 1377TIP3   OH2 4075   1.733   5.359   1.238
 1377TIP3    H1 4076   1.808   5.400   1.195
 1377TIP3    H2 4077   1.661   5.420   1.223
 1378TIP3   OH2 4078   0.754   4.996   1.836
 1378TIP3    H1 4079   0.823   4.938   1.807
 1378TIP3    H2 4080   0.776   5.018   1.927
 1379TIP3   OH2 4081   1.087   4.879   1.499
 1379TIP3    H1 4082   1.010   4.936   1.502
 1379TIP3    H2 4083   1.139   4.912   1.426
 1380TIP3   OH2 4084   1.607   5.279   1.636
 1380TIP3    H1 4085   1.682   5.249   1.585
 1380TIP3    H2 4086   1.598   5.216   1.707
 1381TIP3   OH2 4087   1.210   4.669   1.624
 1381TIP3    H1 4088   1.212   4.590   1.570
 1381TIP3    H2 4089   1.167   4.734   1.570
 1382TIP3   OH2 4090   1.213   4.458   1.434
 1382TIP3    H1 4091   1.242   4.494   1.350
 1382TIP3    H2 4092   1.122   4.431   1.419
 1383TIP3   OH2 4093   1.239   4.991   1.312
 1383TIP3    H1 4094   1.323   4.998   1.266
 1383TIP3    H2 4095   1.181   5.051   1.265
 1384TIP3   OH2 4096   1.820   4.953   1.686
 1384TIP3    H1 4097   1.863   4.869   1.703
 1384TIP3    H2 4098   1.890   5.008   1.650
 1385TIP3   OH2 4099   1.862   5.212   1.423
 1385TIP3    H1 4100   1.804   5.263   1.367
 1385TIP3    H2 4101   1.949   5.229   1.388
 1386TIP3   OH2 4102   1.089   4.773   1.859
 1386TIP3    H1 4103   1.022   4.708   1.878
 1386TIP3    H2 4104   1.123   4.749   1.773
 1387TIP3   OH2 4105   1.345   4.218   1.503
 1387TIP3    H1 4106   1.297   4.298   1.482
 1387TIP3    H2 4107   1.279   4.148   1.495
 1388TIP3   OH2 4108   1.467   4.718   1.721
 1388TIP3    H1 4109   1.458   4.702   1.814
 1388TIP3    H2 4110   1.382   4.696   1.684
 1389TIP3   OH2 4111   1.709   4.671   1.577
 1389TIP3    H1 4112   1.635   4.670   1.637
 1389TIP3    H2 4113   1.783   4.640   1.629
 1390TIP3   OH2 4114   1.939   4.611   1.724
 1390TIP3    H1 4115   1.952   4.517   1.738
 1390TIP3    H2 4116   1.935   4.648   1.812
 1391TIP3   OH2 4117   0.930   4.554   1.914
 1391TIP3    H1 4118   0.930   4.464   1.880
 1391TIP3    H2 4119   0.968   4.546   2.001
 1392TIP3   OH2 4120   1.441   4.225   1.759
 1392TIP3    H1 4121   1.506   4.155   1.757
 1392TIP3    H2 4122   1.399   4.222   1.674
 1393TIP3   OH2 4123   1.506   4.442   1.916
 1393TIP3    H1 4124   1.487   4.370   1.856
 1393TIP3    H2 4125   1.428   4.497   1.912
 1394TIP3   OH2 4126   1.995   5.906   0.644
 1394TIP3    H1 4127   2.018   5.941   0.730
 1394TIP3    H2 4128   2.048   5.956   0.582
 1395TIP3   OH2 4129   2.013   5.932   0.924
 1395TIP3    H1 4130   1.965   5.849   0.916
 1395TIP3    H2 4131   2.090   5.910   0.977
 1396TIP3   OH2 4132   2.058   5.614   1.493
 1396TIP3    H1 4133   1.988   5.620   1.558
 1396TIP3    H2 4134   2.102   5.699   1.497
 1397TIP3   OH2 4135   1.885   5.117   0.105
 1397TIP3    H1 4136   1.949   5.183   0.076
 1397TIP3    H2 4137   1.925   5.080   0.184
 1398TIP3   OH2 4138   2.004   4.993   0.318
 1398TIP3    H1 4139   1.942   4.949   0.376
 1398TIP3    H2 4140   2.071   5.027   0.377
 1399TIP3   OH2 4141   2.061   5.386   0.743
 1399TIP3    H1 4142   2.113   5.318   0.702
 1399TIP3    H2 4143   2.055   5.455   0.678
 1400TIP3   OH2 4144   1.885   5.685   0.939
 1400TIP3    H1 4145   1.816   5.725   0.992
 1400TIP3    H2 4146   1.838   5.638   0.870
 1401TIP3   OH2 4147   7.611   0.884   6.904
 1401TIP3    H1 4148   7.534   0.859   6.853
 1401TIP3    H2 4149   7.584   0.963   6.950
 1402TIP3   OH2 4150   7.482   0.579   6.851
 1402TIP3    H1 4151   7.412   0.630   6.810
 1402TIP3    H2 4152   7.453   0.488   6.844
 1403TIP3   OH2 4153   1.825   4.845   0.467
 1403TIP3    H1 4154   1.830   4.750   0.456
 1403TIP3    H2 4155   1.809   4.857   0.560
 1404TIP3   OH2 4156   0.456   4.903   1.227
 1404TIP3    H1 4157   0.449   4.889   1.132
 1404TIP3    H2 4158   0.551   4.905   1.243
 1405TIP3   OH2 4159   2.110   5.274   1.318
 1405TIP3    H1 4160   2.177   5.206   1.309
 1405TIP3    H2 4161   2.133   5.340   1.253
 1406TIP3   OH2 4162   2.290   5.072   1.329
 1406TIP3    H1 4163   2.215   5.027   1.366
 1406TIP3    H2 4164   2.364   5.013   1.344
 1407TIP3   OH2 4165   7.417   0.314   6.860
 1407TIP3    H1 4166   7.503   0.281   6.884
 1407TIP3    H2 4167   7.356   0.262   6.913
 1408TIP3   OH2 4168   1.815   4.562   0.350
 1408TIP3    H1 4169   1.852   4.475   0.367
 1408TIP3    H2 4170   1.871   4.598   0.280
 1409TIP3   OH2 4171   1.976   4.738   0.851
 1409TIP3    H1 4172   2.058   4.760   0.807
 1409TIP3    H2 4173   1.986   4.772   0.939
 1410TIP3   OH2 4174   2.045   4.885   1.080
 1410TIP3    H1 4175   1.969   4.915   1.129
 1410TIP3    H2 4176   2.078   4.963   1.036
 1411TIP3   OH2 4177   0.667   4.610   1.887
 1411TIP3    H1 4178   0.762   4.604   1.887
 1411TIP3    H2 4179   0.638   4.525   1.921
 1412TIP3   OH2 4180   2.495   4.476   1.633
 1412TIP3    H1 4181   2.555   4.412   1.596
 1412TIP3    H2 4182   2.466   4.528   1.558
 1413TIP3   OH2 4183   1.921   4.314   0.394
 1413TIP3    H1 4184   1.970   4.301   0.475
 1413TIP3    H2 4185   1.861   4.239   0.390
 1414TIP3   OH2 4186   0.625   4.302   1.214
 1414TIP3    H1 4187   0.682   4.225   1.222
 1414TIP3    H2 4188   0.685   4.376   1.205
 1415TIP3   OH2 4189   0.415   4.573   1.286
 1415TIP3    H1 4190   0.471   4.566   1.209
 1415TIP3    H2 4191   0.438   4.658   1.324
 1416TIP3   OH2 4192   2.362   4.611   1.436
 1416TIP3    H1 4193   2.280   4.655   1.459
 1416TIP3    H2 4194   2.335   4.537   1.382
 1417TIP3   OH2 4195   2.013   4.251   0.008
 1417TIP3    H1 4196   2.078   4.188  -0.021
 1417TIP3    H2 4197   2.061   4.332   0.019
 1418TIP3   OH2 4198   0.626   4.155   1.599
 1418TIP3    H1 4199   0.581   4.154   1.683
 1418TIP3    H2 4200   0.564   4.194   1.538
 1419TIP3   OH2 4201   0.681   5.574   1.676
 1419TIP3    H1 4202   0.589   5.555   1.655
 1419TIP3    H2 4203   0.680   5.593   1.770
 1420TIP3   OH2 4204   0.848   5.612   1.235
 1420TIP3    H1 4205   0.779   5.633   1.172
 1420TIP3    H2 4206   0.928   5.644   1.193
 1421TIP3   OH2 4207   1.293   5.862   1.365
 1421TIP3    H1 4208   1.333   5.858   1.452
 1421TIP3    H2 4209   1.357   5.910   1.312
 1422TIP3   OH2 4210   1.471   6.017   1.226
 1422TIP3    H1 4211   1.535   5.965   1.177
 1422TIP3    H2 4212   1.524   6.071   1.285
 1423TIP3   OH2 4213   2.264   4.371   1.321
 1423TIP3    H1 4214   2.175   4.362   1.288
 1423TIP3    H2 4215   2.302   4.283   1.313
 1424TIP3   OH2 4216   1.211   5.896   0.894
 1424TIP3    H1 4217   1.119   5.878   0.876
 1424TIP3    H2 4218   1.210   5.973   0.950
 1425TIP3   OH2 4219   1.464   5.823   0.962
 1425TIP3    H1 4220   1.373   5.839   0.938
 1425TIP3    H2 4221   1.514   5.888   0.914
 1426TIP3   OH2 4222   1.662   6.005   0.870
 1426TIP3    H1 4223   1.652   6.090   0.826
 1426TIP3    H2 4224   1.691   5.945   0.800
 1427TIP3   OH2 4225   1.466   4.286   0.938
 1427TIP3    H1 4226   1.426   4.217   0.992
 1427TIP3    H2 4227   1.542   4.244   0.898
 1428TIP3   OH2 4228   1.989   4.175   0.845
 1428TIP3    H1 4229   2.026   4.223   0.771
 1428TIP3    H2 4230   1.895   4.190   0.839
 1429TIP3   OH2 4231   2.089   4.272   0.608
 1429TIP3    H1 4232   2.159   4.217   0.573
 1429TIP3    H2 4233   2.120   4.362   0.596
 1430TIP3   OH2 4234   0.721   4.000   0.956
 1430TIP3    H1 4235   0.632   3.966   0.954
 1430TIP3    H2 4236   0.776   3.922   0.951
 1431TIP3   OH2 4237   1.159   4.045   0.835
 1431TIP3    H1 4238   1.223   4.085   0.775
 1431TIP3    H2 4239   1.190   4.068   0.922
 1432TIP3   OH2 4240   1.705   4.177   0.820
 1432TIP3    H1 4241   1.710   4.137   0.733
 1432TIP3    H2 4242   1.694   4.102   0.879
 1433TIP3   OH2 4243   1.740   4.100   0.386
 1433TIP3    H1 4244   1.653   4.140   0.390
 1433TIP3    H2 4245   1.730   4.016   0.432
 1434TIP3   OH2 4246   1.160   4.207   0.469
 1434TIP3    H1 4247   1.211   4.155   0.530
 1434TIP3    H2 4248   1.180   4.298   0.491
 1435TIP3   OH2 4249   0.927   4.282   1.852
 1435TIP3    H1 4250   0.889   4.209   1.901
 1435TIP3    H2 4251   1.020   4.282   1.877
 1436TIP3   OH2 4252   1.178   4.276   1.969
 1436TIP3    H1 4253   1.261   4.248   1.931
 1436TIP3    H2 4254   1.160   4.210   2.036
 1437TIP3   OH2 4255   2.005   4.340   1.755
 1437TIP3    H1 4256   2.019   4.310   1.845
 1437TIP3    H2 4257   2.091   4.335   1.714
 1438TIP3   OH2 4258   1.935   5.892   1.248
 1438TIP3    H1 4259   1.861   5.858   1.198
 1438TIP3    H2 4260   1.917   5.986   1.255
 1439TIP3   OH2 4261   3.219   5.274   0.070
 1439TIP3    H1 4262   3.200   5.360   0.033
 1439TIP3    H2 4263   3.138   5.224   0.057
 1440TIP3   OH2 4264   3.202   5.270   0.405
 1440TIP3    H1 4265   3.240   5.239   0.488
 1440TIP3    H2 4266   3.170   5.191   0.362
 1441TIP3   OH2 4267   2.503   5.156   0.763
 1441TIP3    H1 4268   2.529   5.087   0.824
 1441TIP3    H2 4269   2.582   5.208   0.750
 1442TIP3   OH2 4270   3.464   5.558   0.070
 1442TIP3    H1 4271   3.435   5.489   0.129
 1442TIP3    H2 4272   3.482   5.633   0.127
 1443TIP3   OH2 4273   2.479   5.567   0.480
 1443TIP3    H1 4274   2.469   5.472   0.482
 1443TIP3    H2 4275   2.573   5.580   0.471
 1444TIP3   OH2 4276   2.182   4.771   0.264
 1444TIP3    H1 4277   2.137   4.853   0.283
 1444TIP3    H2 4278   2.113   4.715   0.228
 1445TIP3   OH2 4279   2.242   5.056   0.444
 1445TIP3    H1 4280   2.288   4.980   0.479
 1445TIP3    H2 4281   2.302   5.093   0.380
 1446TIP3   OH2 4282   3.065   5.987   0.130
 1446TIP3    H1 4283   3.127   5.995   0.057
 1446TIP3    H2 4284   3.120   5.979   0.208
 1447TIP3   OH2 4285   3.007   5.490   0.442
 1447TIP3    H1 4286   3.043   5.410   0.404
 1447TIP3    H2 4287   3.085   5.541   0.468
 1448TIP3   OH2 4288   4.020   4.807   0.442
 1448TIP3    H1 4289   4.046   4.892   0.476
 1448TIP3    H2 4290   4.059   4.802   0.355
 1449TIP3   OH2 4291   3.416   4.987   0.473
 1449TIP3    H1 4292   3.461   4.906   0.496
 1449TIP3    H2 4293   3.385   4.972   0.384
 1450TIP3   OH2 4294   2.755   4.651   0.435
 1450TIP3    H1 4295   2.739   4.724   0.375
 1450TIP3    H2 4296   2.711   4.576   0.395
 1451TIP3   OH2 4297   3.452   4.745   0.059
 1451TIP3    H1 4298   3.521   4.728   0.123
 1451TIP3    H2 4299   3.499   4.772  -0.020
 1452TIP3   OH2 4300   2.391   4.850   0.545
 1452TIP3    H1 4301   2.471   4.834   0.595
 1452TIP3    H2 4302   2.401   4.797   0.466
 1453TIP3   OH2 4303   2.828   5.048   0.345
 1453TIP3    H1 4304   2.921   5.026   0.356
 1453TIP3    H2 4305   2.789   4.967   0.310
 1454TIP3   OH2 4306   4.094   5.023   0.610
 1454TIP3    H1 4307   4.011   5.062   0.584
 1454TIP3    H2 4308   4.102   5.042   0.703
 1455TIP3   OH2 4309   2.749   4.636   0.874
 1455TIP3    H1 4310   2.692   4.671   0.805
 1455TIP3    H2 4311   2.700   4.650   0.955
 1456TIP3   OH2 4312   0.276   1.465   6.856
 1456TIP3    H1 4313   0.225   1.459   6.776
 1456TIP3    H2 4314   0.250   1.548   6.895
 1457TIP3   OH2 4315   2.858   5.413   0.663
 1457TIP3    H1 4316   2.798   5.478   0.701
 1457TIP3    H2 4317   2.900   5.458   0.591
 1458TIP3   OH2 4318   3.654   4.749   0.238
 1458TIP3    H1 4319   3.651   4.692   0.315
 1458TIP3    H2 4320   3.704   4.826   0.267
 1459TIP3   OH2 4321   2.626   4.750   0.655
 1459TIP3    H1 4322   2.685   4.821   0.682
 1459TIP3    H2 4323   2.670   4.708   0.582
 1460TIP3   OH2 4324   2.684   5.609   0.767
 1460TIP3    H1 4325   2.663   5.694   0.728
 1460TIP3    H2 4326   2.609   5.588   0.822
 1461TIP3   OH2 4327   7.743   1.288   6.937
 1461TIP3    H1 4328   7.702   1.306   6.853
 1461TIP3    H2 4329   7.762   1.374   6.974
 1462TIP3   OH2 4330   3.518   5.801   0.244
 1462TIP3    H1 4331   3.434   5.782   0.286
 1462TIP3    H2 4332   3.510   5.890   0.211
 1463TIP3   OH2 4333   3.811   4.713   0.607
 1463TIP3    H1 4334   3.724   4.734   0.573
 1463TIP3    H2 4335   3.871   4.741   0.538
 1464TIP3   OH2 4336   3.101   4.348   0.591
 1464TIP3    H1 4337   3.089   4.254   0.607
 1464TIP3    H2 4338   3.027   4.389   0.635
 1465TIP3   OH2 4339   3.745   5.719   0.587
 1465TIP3    H1 4340   3.732   5.643   0.531
 1465TIP3    H2 4341   3.729   5.794   0.530
 1466TIP3   OH2 4342   0.216   1.133   6.828
 1466TIP3    H1 4343   0.140   1.187   6.806
 1466TIP3    H2 4344   0.290   1.175   6.784
 1467TIP3   OH2 4345   3.940   5.368   0.436
 1467TIP3    H1 4346   3.856   5.414   0.444
 1467TIP3    H2 4347   3.966   5.381   0.345
 1468TIP3   OH2 4348   0.507   1.133   6.805
 1468TIP3    H1 4349   0.477   1.176   6.885
 1468TIP3    H2 4350   0.599   1.158   6.797
 1469TIP3   OH2 4351   3.616   5.238   0.731
 1469TIP3    H1 4352   3.615   5.319   0.782
 1469TIP3    H2 4353   3.532   5.237   0.686
 1470TIP3   OH2 4354   2.617   5.193   0.233
 1470TIP3    H1 4355   2.575   5.137   0.168
 1470TIP3    H2 4356   2.692   5.143   0.264
 1471TIP3   OH2 4357   2.745   5.601   0.380
 1471TIP3    H1 4358   2.724   5.573   0.291
 1471TIP3    H2 4359   2.832   5.565   0.396
 1472TIP3   OH2 4360   2.748   5.170   0.586
 1472TIP3    H1 4361   2.781   5.141   0.501
 1472TIP3    H2 4362   2.793   5.252   0.603
 1473TIP3   OH2 4363   3.281   5.803   0.363
 1473TIP3    H1 4364   3.265   5.883   0.413
 1473TIP3    H2 4365   3.262   5.732   0.425
 1474TIP3   OH2 4366   2.889   5.724   0.911
 1474TIP3    H1 4367   2.832   5.785   0.957
 1474TIP3    H2 4368   2.829   5.670   0.860
 1475TIP3   OH2 4369   2.645   5.280   1.017
 1475TIP3    H1 4370   2.652   5.367   1.058
 1475TIP3    H2 4371   2.553   5.257   1.026
 1476TIP3   OH2 4372   0.146   1.728   6.893
 1476TIP3    H1 4373   0.199   1.777   6.955
 1476TIP3    H2 4374   0.062   1.774   6.891
 1477TIP3   OH2 4375   2.682   5.890   0.997
 1477TIP3    H1 4376   2.651   5.892   0.906
 1477TIP3    H2 4377   2.604   5.869   1.049
 1478TIP3   OH2 4378   2.478   5.036   0.043
 1478TIP3    H1 4379   2.408   5.068  -0.014
 1478TIP3    H2 4380   2.461   4.942   0.051
 1479TIP3   OH2 4381   2.264   5.422   0.944
 1479TIP3    H1 4382   2.198   5.401   0.878
 1479TIP3    H2 4383   2.302   5.337   0.967
 1480TIP3   OH2 4384   2.118   5.621   0.570
 1480TIP3    H1 4385   2.213   5.609   0.567
 1480TIP3    H2 4386   2.106   5.696   0.629
 1481TIP3   OH2 4387   3.986   6.066   0.643
 1481TIP3    H1 4388   3.982   5.971   0.652
 1481TIP3    H2 4389   3.904   6.097   0.682
 1482TIP3   OH2 4390   3.086   5.853   0.771
 1482TIP3    H1 4391   3.085   5.944   0.800
 1482TIP3    H2 4392   3.017   5.811   0.821
 1483TIP3   OH2 4393   2.266   5.806   0.122
 1483TIP3    H1 4394   2.345   5.807   0.176
 1483TIP3    H2 4395   2.195   5.786   0.184
 1484TIP3   OH2 4396   3.870   5.195   0.907
 1484TIP3    H1 4397   3.788   5.208   0.859
 1484TIP3    H2 4398   3.889   5.102   0.899
 1485TIP3   OH2 4399   2.466   5.606   0.933
 1485TIP3    H1 4400   2.518   5.589   1.011
 1485TIP3    H2 4401   2.394   5.544   0.937
 1486TIP3   OH2 4402   2.864   4.429   0.720
 1486TIP3    H1 4403   2.780   4.396   0.688
 1486TIP3    H2 4404   2.842   4.509   0.769
 1487TIP3   OH2 4405   3.403   4.542   0.914
 1487TIP3    H1 4406   3.471   4.514   0.975
 1487TIP3    H2 4407   3.321   4.523   0.960
 1488TIP3   OH2 4408   3.639   4.975   0.834
 1488TIP3    H1 4409   3.589   4.971   0.915
 1488TIP3    H2 4410   3.615   5.059   0.795
 1489TIP3   OH2 4411   0.183   0.500   6.637
 1489TIP3    H1 4412   0.143   0.469   6.719
 1489TIP3    H2 4413   0.156   0.435   6.572
 1490TIP3   OH2 4414   2.798   4.948   0.737
 1490TIP3    H1 4415   2.750   4.965   0.818
 1490TIP3    H2 4416   2.783   5.026   0.683
 1491TIP3   OH2 4417   2.681   4.830   0.248
 1491TIP3    H1 4418   2.592   4.804   0.269
 1491TIP3    H2 4419   2.697   4.793   0.161
 1492TIP3   OH2 4420   0.345   0.912   6.918
 1492TIP3    H1 4421   0.288   0.984   6.892
 1492TIP3    H2 4422   0.423   0.923   6.864
 1493TIP3   OH2 4423   3.350   5.190   1.065
 1493TIP3    H1 4424   3.325   5.120   1.124
 1493TIP3    H2 4425   3.443   5.206   1.084
 1494TIP3   OH2 4426   3.332   4.940   0.214
 1494TIP3    H1 4427   3.269   4.969   0.148
 1494TIP3    H2 4428   3.372   4.862   0.175
 1495TIP3   OH2 4429   2.618   4.972   0.946
 1495TIP3    H1 4430   2.652   5.033   1.011
 1495TIP3    H2 4431   2.607   4.890   0.994
 1496TIP3   OH2 4432   8.356   0.376   6.615
 1496TIP3    H1 4433   8.332   0.419   6.697
 1496TIP3    H2 4434   8.316   0.429   6.547
 1497TIP3   OH2 4435   2.213   4.494   0.525
 1497TIP3    H1 4436   2.286   4.525   0.579
 1497TIP3    H2 4437   2.254   4.461   0.446
 1498TIP3   OH2 4438   2.173   4.477   0.039
 1498TIP3    H1 4439   2.232   4.506  -0.030
 1498TIP3    H2 4440   2.120   4.554   0.060
 1499TIP3   OH2 4441   3.343   5.185   0.639
 1499TIP3    H1 4442   3.375   5.118   0.579
 1499TIP3    H2 4443   3.311   5.136   0.714
 1500TIP3   OH2 4444   3.016   4.656   0.313
 1500TIP3    H1 4445   2.936   4.652   0.366
 1500TIP3    H2 4446   3.087   4.643   0.376
 1501TIP3   OH2 4447   2.445   4.708   0.317
 1501TIP3    H1 4448   2.353   4.715   0.289
 1501TIP3    H2 4449   2.470   4.618   0.296
 1502TIP3   OH2 4450   8.382   0.704   6.947
 1502TIP3    H1 4451   8.476   0.711   6.933
 1502TIP3    H2 4452   8.343   0.735   6.865
 1503TIP3   OH2 4453   3.503   4.729   0.521
 1503TIP3    H1 4454   3.468   4.743   0.609
 1503TIP3    H2 4455   3.441   4.669   0.479
 1504TIP3   OH2 4456   8.203   0.753   6.739
 1504TIP3    H1 4457   8.128   0.694   6.732
 1504TIP3    H2 4458   8.261   0.727   6.667
 1505TIP3   OH2 4459   3.680   6.419   0.735
 1505TIP3    H1 4460   3.675   6.442   0.642
 1505TIP3    H2 4461   3.758   6.463   0.767
 1506TIP3   OH2 4462   2.630   5.530   1.155
 1506TIP3    H1 4463   2.710   5.557   1.199
 1506TIP3    H2 4464   2.565   5.524   1.225
 1507TIP3   OH2 4465   3.094   4.981   0.410
 1507TIP3    H1 4466   3.165   4.940   0.360
 1507TIP3    H2 4467   3.097   4.938   0.495
 1508TIP3   OH2 4468   2.612   4.467   0.290
 1508TIP3    H1 4469   2.577   4.392   0.339
 1508TIP3    H2 4470   2.654   4.428   0.214
 1509TIP3   OH2 4471   3.069   4.883   0.696
 1509TIP3    H1 4472   2.980   4.916   0.712
 1509TIP3    H2 4473   3.125   4.941   0.746
 1510TIP3   OH2 4474   8.492   1.255   6.751
 1510TIP3    H1 4475   8.416   1.204   6.724
 1510TIP3    H2 4476   8.463   1.302   6.829
 1511TIP3   OH2 4477   3.701   5.504   0.420
 1511TIP3    H1 4478   3.724   5.552   0.341
 1511TIP3    H2 4479   3.619   5.459   0.398
 1512TIP3   OH2 4480   3.206   5.590   0.789
 1512TIP3    H1 4481   3.235   5.567   0.877
 1512TIP3    H2 4482   3.166   5.676   0.799
 1513TIP3   OH2 4483   2.499   5.290   0.465
 1513TIP3    H1 4484   2.536   5.264   0.381
 1513TIP3    H2 4485   2.544   5.235   0.529
 1514TIP3   OH2 4486   2.380   5.211   1.084
 1514TIP3    H1 4487   2.399   5.198   1.177
 1514TIP3    H2 4488   2.313   5.145   1.064
 1515TIP3   OH2 4489   3.109   5.326   1.100
 1515TIP3    H1 4490   3.046   5.268   1.057
 1515TIP3    H2 4491   3.195   5.292   1.074
 1516TIP3   OH2 4492   3.362   5.853   0.687
 1516TIP3    H1 4493   3.268   5.845   0.700
 1516TIP3    H2 4494   3.393   5.901   0.764
 1517TIP3   OH2 4495   3.994   5.777   0.674
 1517TIP3    H1 4496   3.899   5.773   0.673
 1517TIP3    H2 4497   4.021   5.746   0.588
 1518TIP3   OH2 4498   3.470   5.368   0.336
 1518TIP3    H1 4499   3.377   5.348   0.351
 1518TIP3    H2 4500   3.505   5.289   0.296
 1519TIP3   OH2 4501   2.607   5.591   0.109
 1519TIP3    H1 4502   2.602   5.665   0.049
 1519TIP3    H2 4503   2.516   5.564   0.122
 1520TIP3   OH2 4504   7.829   0.894   6.734
 1520TIP3    H1 4505   7.877   0.974   6.756
 1520TIP3    H2 4506   7.755   0.893   6.794
 1521TIP3   OH2 4507   2.741   5.363   0.045
 1521TIP3    H1 4508   2.704   5.450   0.060
 1521TIP3    H2 4509   2.704   5.309   0.115
 1522TIP3   OH2 4510   2.872   5.938   0.563
 1522TIP3    H1 4511   2.908   6.011   0.512
 1522TIP3    H2 4512   2.947   5.900   0.607
 1523TIP3   OH2 4513   8.182   1.793   6.909
 1523TIP3    H1 4514   8.090   1.813   6.923
 1523TIP3    H2 4515   8.226   1.878   6.915
 1524TIP3   OH2 4516   3.257   5.574   0.523
 1524TIP3    H1 4517   3.243   5.574   0.618
 1524TIP3    H2 4518   3.330   5.513   0.509
 1525TIP3   OH2 4519   3.505   6.094   0.581
 1525TIP3    H1 4520   3.430   6.035   0.578
 1525TIP3    H2 4521   3.488   6.158   0.512
 1526TIP3   OH2 4522   2.588   4.716   1.088
 1526TIP3    H1 4523   2.493   4.718   1.098
 1526TIP3    H2 4524   2.618   4.660   1.159
 1527TIP3   OH2 4525   2.308   5.798   0.721
 1527TIP3    H1 4526   2.362   5.726   0.755
 1527TIP3    H2 4527   2.336   5.875   0.771
 1528TIP3   OH2 4528   7.943   1.134   6.821
 1528TIP3    H1 4529   7.877   1.182   6.872
 1528TIP3    H2 4530   8.003   1.202   6.789
 1529TIP3   OH2 4531   3.427   4.783   0.780
 1529TIP3    H1 4532   3.510   4.818   0.812
 1529TIP3    H2 4533   3.415   4.702   0.829
 1530TIP3   OH2 4534   0.459   0.541   6.878
 1530TIP3    H1 4535   0.436   0.581   6.795
 1530TIP3    H2 4536   0.516   0.606   6.921
 1531TIP3   OH2 4537   2.992   4.714   0.041
 1531TIP3    H1 4538   3.060   4.777   0.018
 1531TIP3    H2 4539   3.001   4.704   0.136
 1532TIP3   OH2 4540   3.268   5.027   0.846
 1532TIP3    H1 4541   3.293   5.076   0.924
 1532TIP3    H2 4542   3.318   4.946   0.852
 1533TIP3   OH2 4543   3.143   4.435   0.137
 1533TIP3    H1 4544   3.138   4.509   0.198
 1533TIP3    H2 4545   3.198   4.466   0.066
 1534TIP3   OH2 4546   8.317   0.441   6.889
 1534TIP3    H1 4547   8.322   0.531   6.919
 1534TIP3    H2 4548   8.408   0.411   6.886
 1535TIP3   OH2 4549   3.904   4.929   0.824
 1535TIP3    H1 4550   3.809   4.932   0.838
 1535TIP3    H2 4551   3.915   4.879   0.743
 1536TIP3   OH2 4552   3.554   5.124   0.228
 1536TIP3    H1 4553   3.479   5.065   0.232
 1536TIP3    H2 4554   3.624   5.077   0.273
 1537TIP3   OH2 4555   7.900   0.633   6.752
 1537TIP3    H1 4556   7.887   0.727   6.744
 1537TIP3    H2 4557   7.820   0.595   6.715
 1538TIP3   OH2 4558   3.536   6.071   0.182
 1538TIP3    H1 4559   3.489   6.080   0.099
 1538TIP3    H2 4560   3.628   6.063   0.157
 1539TIP3   OH2 4561   2.600   4.347   0.690
 1539TIP3    H1 4562   2.572   4.315   0.605
 1539TIP3    H2 4563   2.591   4.271   0.748
 1540TIP3   OH2 4564   2.115   5.560   0.055
 1540TIP3    H1 4565   2.078   5.601   0.133
 1540TIP3    H2 4566   2.179   5.624   0.023
 1541TIP3   OH2 4567   2.302   6.108   1.149
 1541TIP3    H1 4568   2.389   6.107   1.190
 1541TIP3    H2 4569   2.279   6.016   1.141
 1542TIP3   OH2 4570   2.775   6.068   1.186
 1542TIP3    H1 4571   2.869   6.053   1.197
 1542TIP3    H2 4572   2.749   6.009   1.116
 1543TIP3   OH2 4573   3.417   5.980   0.925
 1543TIP3    H1 4574   3.409   5.911   0.991
 1543TIP3    H2 4575   3.493   6.031   0.952
 1544TIP3   OH2 4576   2.427   5.516   1.343
 1544TIP3    H1 4577   2.445   5.423   1.353
 1544TIP3    H2 4578   2.342   5.519   1.299
 1545TIP3   OH2 4579   3.034   5.602   1.118
 1545TIP3    H1 4580   2.994   5.623   1.033
 1545TIP3    H2 4581   3.066   5.512   1.108
 1546TIP3   OH2 4582   3.528   5.616   0.726
 1546TIP3    H1 4583   3.605   5.656   0.684
 1546TIP3    H2 4584   3.457   5.678   0.710
 1547TIP3   OH2 4585   2.551   5.256   1.328
 1547TIP3    H1 4586   2.623   5.200   1.300
 1547TIP3    H2 4587   2.577   5.286   1.416
 1548TIP3   OH2 4588   8.290   1.061   6.706
 1548TIP3    H1 4589   8.253   1.018   6.782
 1548TIP3    H2 4590   8.359   1.003   6.676
 1549TIP3   OH2 4591   2.882   5.136   0.986
 1549TIP3    H1 4592   2.805   5.193   0.989
 1549TIP3    H2 4593   2.934   5.168   0.913
 1550TIP3   OH2 4594   3.403   5.536   1.122
 1550TIP3    H1 4595   3.478   5.505   1.071
 1550TIP3    H2 4596   3.394   5.473   1.194
 1551TIP3   OH2 4597   3.006   4.925   1.111
 1551TIP3    H1 4598   3.008   4.846   1.056
 1551TIP3    H2 4599   2.963   4.991   1.056
 1552TIP3   OH2 4600   3.009   4.712   0.921
 1552TIP3    H1 4601   3.039   4.751   0.839
 1552TIP3    H2 4602   2.918   4.688   0.904
 1553TIP3   OH2 4603   3.032   5.246   0.796
 1553TIP3    H1 4604   3.118   5.254   0.754
 1553TIP3    H2 4605   2.977   5.309   0.749
 1554TIP3   OH2 4606   3.617   5.210   1.173
 1554TIP3    H1 4607   3.660   5.126   1.186
 1554TIP3    H2 4608   3.684   5.267   1.136
 1555TIP3   OH2 4609   3.658   5.468   0.910
 1555TIP3    H1 4610   3.599   5.520   0.855
 1555TIP3    H2 4611   3.745   5.485   0.874
 1556TIP3   OH2 4612   2.884   5.029   1.345
 1556TIP3    H1 4613   2.818   4.962   1.363
 1556TIP3    H2 4614   2.919   5.006   1.259
 1557TIP3   OH2 4615   3.139   4.473   0.990
 1557TIP3    H1 4616   3.092   4.553   0.968
 1557TIP3    H2 4617   3.074   4.404   0.980
 1558TIP3   OH2 4618   3.263   4.974   1.207
 1558TIP3    H1 4619   3.254   4.959   1.301
 1558TIP3    H2 4620   3.178   4.951   1.170
 1559TIP3   OH2 4621   3.507   4.929   1.065
 1559TIP3    H1 4622   3.432   4.927   1.124
 1559TIP3    H2 4623   3.580   4.897   1.117
 1560TIP3   OH2 4624   3.738   4.868   1.211
 1560TIP3    H1 4625   3.750   4.774   1.225
 1560TIP3    H2 4626   3.732   4.905   1.299
 1561TIP3   OH2 4627   2.725   4.809   1.403
 1561TIP3    H1 4628   2.726   4.720   1.367
 1561TIP3    H2 4629   2.762   4.800   1.490
 1562TIP3   OH2 4630   3.235   4.481   1.247
 1562TIP3    H1 4631   3.300   4.412   1.245
 1562TIP3    H2 4632   3.194   4.479   1.160
 1563TIP3   OH2 4633   3.301   4.698   1.405
 1563TIP3    H1 4634   3.282   4.626   1.344
 1563TIP3    H2 4635   3.224   4.755   1.400
 1564TIP3   OH2 4636   7.666   1.303   6.671
 1564TIP3    H1 4637   7.745   1.298   6.618
 1564TIP3    H2 4638   7.624   1.218   6.661
 1565TIP3   OH2 4639   1.920   5.901   0.128
 1565TIP3    H1 4640   1.835   5.936   0.154
 1565TIP3    H2 4641   1.950   5.852   0.205
 1566TIP3   OH2 4642   2.069   5.761   0.324
 1566TIP3    H1 4643   2.048   5.693   0.387
 1566TIP3    H2 4644   2.116   5.827   0.375
 1567TIP3   OH2 4645   3.803   6.191   0.408
 1567TIP3    H1 4646   3.765   6.104   0.401
 1567TIP3    H2 4647   3.893   6.177   0.438
 1568TIP3   OH2 4648   3.856   5.869   0.981
 1568TIP3    H1 4649   3.784   5.876   1.044
 1568TIP3    H2 4650   3.898   5.954   0.982
 1569TIP3   OH2 4651   3.859   5.635   0.232
 1569TIP3    H1 4652   3.902   5.566   0.181
 1569TIP3    H2 4653   3.814   5.689   0.167
 1570TIP3   OH2 4654   3.681   5.937   0.431
 1570TIP3    H1 4655   3.617   5.983   0.485
 1570TIP3    H2 4656   3.629   5.888   0.368
 1571TIP3   OH2 4657   0.786   1.080   6.900
 1571TIP3    H1 4658   0.787   0.985   6.887
 1571TIP3    H2 4659   0.772   1.092   6.994
 1572TIP3   OH2 4660   2.239   5.180   0.693
 1572TIP3    H1 4661   2.235   5.145   0.604
 1572TIP3    H2 4662   2.333   5.182   0.713
 1573TIP3   OH2 4663   3.904   5.530   0.805
 1573TIP3    H1 4664   3.973   5.464   0.795
 1573TIP3    H2 4665   3.929   5.598   0.743
 1574TIP3   OH2 4666   4.087   5.329   0.815
 1574TIP3    H1 4667   4.011   5.284   0.852
 1574TIP3    H2 4668   4.160   5.270   0.832
 1575TIP3   OH2 4669   0.778   0.808   6.784
 1575TIP3    H1 4670   0.814   0.722   6.804
 1575TIP3    H2 4671   0.841   0.847   6.723
 1576TIP3   OH2 4672   3.762   4.990   0.348
 1576TIP3    H1 4673   3.843   5.016   0.304
 1576TIP3    H2 4674   3.773   5.020   0.438
 1577TIP3   OH2 4675   3.842   5.141   0.571
 1577TIP3    H1 4676   3.765   5.173   0.618
 1577TIP3    H2 4677   3.875   5.218   0.524
 1578TIP3   OH2 4678   2.460   4.863   1.372
 1578TIP3    H1 4679   2.555   4.860   1.373
 1578TIP3    H2 4680   2.433   4.779   1.408
 1579TIP3   OH2 4681   4.293   4.735   1.120
 1579TIP3    H1 4682   4.352   4.670   1.082
 1579TIP3    H2 4683   4.262   4.786   1.045
 1580TIP3   OH2 4684   0.870   0.564   6.834
 1580TIP3    H1 4685   0.927   0.542   6.907
 1580TIP3    H2 4686   0.817   0.485   6.820
 1581TIP3   OH2 4687   2.420   4.558   0.701
 1581TIP3    H1 4688   2.477   4.481   0.708
 1581TIP3    H2 4689   2.480   4.632   0.691
 1582TIP3   OH2 4690   2.219   4.832   0.768
 1582TIP3    H1 4691   2.268   4.824   0.686
 1582TIP3    H2 4692   2.252   4.912   0.809
 1583TIP3   OH2 4693   4.157   4.867   0.924
 1583TIP3    H1 4694   4.075   4.912   0.944
 1583TIP3    H2 4695   4.132   4.794   0.869
 1584TIP3   OH2 4696   2.206   4.339   0.272
 1584TIP3    H1 4697   2.115   4.330   0.303
 1584TIP3    H2 4698   2.199   4.393   0.194
 1585TIP3   OH2 4699   2.424   4.418   1.088
 1585TIP3    H1 4700   2.375   4.409   1.170
 1585TIP3    H2 4701   2.360   4.452   1.026
 1586TIP3   OH2 4702   2.461   5.850   1.165
 1586TIP3    H1 4703   2.372   5.819   1.146
 1586TIP3    H2 4704   2.479   5.819   1.254
 1587TIP3   OH2 4705   2.645   5.882   0.710
 1587TIP3    H1 4706   2.595   5.955   0.673
 1587TIP3    H2 4707   2.731   5.888   0.668
 1588TIP3   OH2 4708   3.086   6.121   0.850
 1588TIP3    H1 4709   3.126   6.117   0.937
 1588TIP3    H2 4710   3.150   6.170   0.797
 1589TIP3   OH2 4711   3.270   6.271   0.711
 1589TIP3    H1 4712   3.339   6.218   0.671
 1589TIP3    H2 4713   3.315   6.330   0.771
 1590TIP3   OH2 4714   4.060   4.628   0.808
 1590TIP3    H1 4715   3.971   4.621   0.773
 1590TIP3    H2 4716   4.096   4.539   0.800
 1591TIP3   OH2 4717   2.313   6.130   0.737
 1591TIP3    H1 4718   2.227   6.163   0.712
 1591TIP3    H2 4719   2.332   6.172   0.821
 1592TIP3   OH2 4720   2.553   6.113   0.595
 1592TIP3    H1 4721   2.468   6.124   0.637
 1592TIP3    H2 4722   2.541   6.143   0.506
 1593TIP3   OH2 4723   2.979   6.138   0.402
 1593TIP3    H1 4724   2.920   6.146   0.327
 1593TIP3    H2 4725   2.987   6.227   0.437
 1594TIP3   OH2 4726   3.245   6.073   0.436
 1594TIP3    H1 4727   3.152   6.094   0.428
 1594TIP3    H2 4728   3.290   6.153   0.411
 1595TIP3   OH2 4729   3.455   6.261   0.372
 1595TIP3    H1 4730   3.435   6.341   0.323
 1595TIP3    H2 4731   3.487   6.200   0.305
 1596TIP3   OH2 4732   2.235   5.920   0.478
 1596TIP3    H1 4733   2.253   5.896   0.569
 1596TIP3    H2 4734   2.307   5.881   0.428
 1597TIP3   OH2 4735   2.429   5.796   0.338
 1597TIP3    H1 4736   2.443   5.715   0.386
 1597TIP3    H2 4737   2.517   5.835   0.333
 1598TIP3   OH2 4738   2.690   5.886   0.351
 1598TIP3    H1 4739   2.721   5.797   0.333
 1598TIP3    H2 4740   2.739   5.913   0.428
 1599TIP3   OH2 4741   3.264   4.544   0.427
 1599TIP3    H1 4742   3.224   4.474   0.478
 1599TIP3    H2 4743   3.338   4.503   0.383
 1600TIP3   OH2 4744   3.779   4.442   0.350
 1600TIP3    H1 4745   3.818   4.479   0.271
 1600TIP3    H2 4746   3.685   4.447   0.336
 1601TIP3   OH2 4747   3.881   4.511   0.103
 1601TIP3    H1 4748   3.947   4.457   0.060
 1601TIP3    H2 4749   3.909   4.601   0.087
 1602TIP3   OH2 4750   2.512   4.252   0.443
 1602TIP3    H1 4751   2.421   4.223   0.447
 1602TIP3    H2 4752   2.563   4.171   0.439
 1603TIP3   OH2 4753   2.283   4.129   0.091
 1603TIP3    H1 4754   2.333   4.173   0.022
 1603TIP3    H2 4755   2.272   4.195   0.159
 1604TIP3   OH2 4756   2.961   4.289   0.327
 1604TIP3    H1 4757   3.014   4.331   0.260
 1604TIP3    H2 4758   2.993   4.326   0.409
 1605TIP3   OH2 4759   3.500   4.433   0.305
 1605TIP3    H1 4760   3.504   4.401   0.215
 1605TIP3    H2 4761   3.488   4.354   0.359
 1606TIP3   OH2 4762   0.701   0.354   6.866
 1606TIP3    H1 4763   0.617   0.380   6.828
 1606TIP3    H2 4764   0.687   0.263   6.893
 1607TIP3   OH2 4765   8.095   0.265   6.847
 1607TIP3    H1 4766   8.115   0.226   6.761
 1607TIP3    H2 4767   8.169   0.324   6.864
 1608TIP3   OH2 4768   0.093   0.452   6.901
 1608TIP3    H1 4769   0.155   0.402   6.954
 1608TIP3    H2 4770   0.115   0.543   6.919
 1609TIP3   OH2 4771   2.723   4.536   1.338
 1609TIP3    H1 4772   2.685   4.466   1.391
 1609TIP3    H2 4773   2.816   4.537   1.363
 1610TIP3   OH2 4774   2.973   4.532   1.455
 1610TIP3    H1 4775   3.057   4.508   1.414
 1610TIP3    H2 4776   2.958   4.465   1.521
 1611TIP3   OH2 4777   3.801   4.597   1.242
 1611TIP3    H1 4778   3.815   4.566   1.331
 1611TIP3    H2 4779   3.887   4.591   1.201
 1612TIP3   OH2 4780   3.733   6.148   0.736
 1612TIP3    H1 4781   3.658   6.116   0.686
 1612TIP3    H2 4782   3.720   6.242   0.741
 1613TIP3   OH2 4783   4.313   5.416   0.243
 1613TIP3    H1 4784   4.338   5.348   0.305
 1613TIP3    H2 4785   4.352   5.496   0.278
 1614TIP3   OH2 4786   4.190   5.054   0.100
 1614TIP3    H1 4787   4.285   5.042   0.096
 1614TIP3    H2 4788   4.171   5.112   0.027
 1615TIP3   OH2 4789   4.545   4.893   0.374
 1615TIP3    H1 4790   4.497   4.923   0.296
 1615TIP3    H2 4791   4.486   4.912   0.447
 1616TIP3   OH2 4792   4.455   4.981   0.130
 1616TIP3    H1 4793   4.500   5.065   0.128
 1616TIP3    H2 4794   4.483   4.936   0.050
 1617TIP3   OH2 4795   4.485   5.841   0.300
 1617TIP3    H1 4796   4.477   5.908   0.231
 1617TIP3    H2 4797   4.399   5.838   0.340
 1618TIP3   OH2 4798   4.889   4.592   0.133
 1618TIP3    H1 4799   4.861   4.506   0.163
 1618TIP3    H2 4800   4.815   4.650   0.152
 1619TIP3   OH2 4801   4.646   5.941   0.495
 1619TIP3    H1 4802   4.605   6.028   0.497
 1619TIP3    H2 4803   4.599   5.895   0.426
 1620TIP3   OH2 4804   4.430   5.539   0.496
 1620TIP3    H1 4805   4.440   5.627   0.532
 1620TIP3    H2 4806   4.342   5.512   0.523
 1621TIP3   OH2 4807   4.472   6.157   0.487
 1621TIP3    H1 4808   4.436   6.173   0.400
 1621TIP3    H2 4809   4.396   6.134   0.540
 1622TIP3   OH2 4810   4.053   5.673   0.433
 1622TIP3    H1 4811   3.987   5.654   0.367
 1622TIP3    H2 4812   4.090   5.587   0.456
 1623TIP3   OH2 4813   5.619   5.477   0.438
 1623TIP3    H1 4814   5.687   5.506   0.378
 1623TIP3    H2 4815   5.616   5.382   0.427
 1624TIP3   OH2 4816   4.247   5.862   0.432
 1624TIP3    H1 4817   4.301   5.848   0.510
 1624TIP3    H2 4818   4.180   5.793   0.436
 1625TIP3   OH2 4819   4.652   4.696   0.218
 1625TIP3    H1 4820   4.568   4.662   0.188
 1625TIP3    H2 4821   4.629   4.772   0.271
 1626TIP3   OH2 4822   5.200   4.801   0.399
 1626TIP3    H1 4823   5.268   4.780   0.462
 1626TIP3    H2 4824   5.118   4.782   0.444
 1627TIP3   OH2 4825   5.460   5.232   0.342
 1627TIP3    H1 4826   5.402   5.215   0.416
 1627TIP3    H2 4827   5.402   5.244   0.267
 1628TIP3   OH2 4828   4.606   5.228   0.213
 1628TIP3    H1 4829   4.554   5.232   0.293
 1628TIP3    H2 4830   4.545   5.253   0.144
 1629TIP3   OH2 4831   5.147   5.455   0.567
 1629TIP3    H1 4832   5.123   5.375   0.613
 1629TIP3    H2 4833   5.243   5.454   0.567
 1630TIP3   OH2 4834   4.414   5.225   0.425
 1630TIP3    H1 4835   4.459   5.282   0.488
 1630TIP3    H2 4836   4.398   5.144   0.473
 1631TIP3   OH2 4837   4.010   4.738   0.030
 1631TIP3    H1 4838   4.078   4.765   0.092
 1631TIP3    H2 4839   4.020   4.797  -0.044
 1632TIP3   OH2 4840   4.418   5.782   0.637
 1632TIP3    H1 4841   4.498   5.825   0.667
 1632TIP3    H2 4842   4.361   5.780   0.714
 1633TIP3   OH2 4843   4.860   5.096   0.206
 1633TIP3    H1 4844   4.780   5.146   0.189
 1633TIP3    H2 4845   4.927   5.162   0.221
 1634TIP3   OH2 4846   4.996   5.821   0.334
 1634TIP3    H1 4847   5.014   5.822   0.428
 1634TIP3    H2 4848   4.916   5.873   0.325
 1635TIP3   OH2 4849   4.177   5.461   0.572
 1635TIP3    H1 4850   4.192   5.448   0.665
 1635TIP3    H2 4851   4.106   5.401   0.549
 1636TIP3   OH2 4852   4.902   5.573   0.609
 1636TIP3    H1 4853   4.842   5.531   0.549
 1636TIP3    H2 4854   4.989   5.541   0.583
 1637TIP3   OH2 4855   4.378   4.976   0.578
 1637TIP3    H1 4856   4.283   4.979   0.585
 1637TIP3    H2 4857   4.405   4.916   0.647
 1638TIP3   OH2 4858   4.078   6.039   0.296
 1638TIP3    H1 4859   4.106   5.950   0.317
 1638TIP3    H2 4860   4.148   6.095   0.331
 1639TIP3   OH2 4861   5.203   5.062   0.299
 1639TIP3    H1 4862   5.291   5.066   0.262
 1639TIP3    H2 4863   5.195   4.973   0.332
 1640TIP3   OH2 4864   5.045   5.288   0.336
 1640TIP3    H1 4865   5.095   5.334   0.403
 1640TIP3    H2 4866   5.097   5.209   0.317
 1641TIP3   OH2 4867   4.398   4.607   0.200
 1641TIP3    H1 4868   4.364   4.578   0.115
 1641TIP3    H2 4869   4.391   4.530   0.256
 1642TIP3   OH2 4870   4.083   6.351   0.670
 1642TIP3    H1 4871   4.175   6.359   0.694
 1642TIP3    H2 4872   4.072   6.259   0.648
 1643TIP3   OH2 4873   4.577   6.323   0.680
 1643TIP3    H1 4874   4.672   6.308   0.676
 1643TIP3    H2 4875   4.541   6.273   0.607
 1644TIP3   OH2 4876   4.223   5.771   0.834
 1644TIP3    H1 4877   4.241   5.677   0.837
 1644TIP3    H2 4878   4.139   5.778   0.788
 1645TIP3   OH2 4879   4.862   5.851   0.622
 1645TIP3    H1 4880   4.792   5.874   0.560
 1645TIP3    H2 4881   4.873   5.757   0.611
 1646TIP3   OH2 4882   4.347   5.512   0.816
 1646TIP3    H1 4883   4.419   5.456   0.787
 1646TIP3    H2 4884   4.374   5.542   0.903
 1647TIP3   OH2 4885   4.654   5.384   0.493
 1647TIP3    H1 4886   4.580   5.444   0.496
 1647TIP3    H2 4887   4.712   5.420   0.426
 1648TIP3   OH2 4888   5.198   5.799   0.612
 1648TIP3    H1 4889   5.291   5.801   0.590
 1648TIP3    H2 4890   5.187   5.718   0.663
 1649TIP3   OH2 4891   4.805   5.177   0.599
 1649TIP3    H1 4892   4.807   5.096   0.549
 1649TIP3    H2 4893   4.754   5.238   0.546
 1650TIP3   OH2 4894   4.803   4.957   0.432
 1650TIP3    H1 4895   4.833   4.999   0.352
 1650TIP3    H2 4896   4.712   4.934   0.415
 1651TIP3   OH2 4897   4.825   5.513   0.327
 1651TIP3    H1 4898   4.910   5.469   0.322
 1651TIP3    H2 4899   4.830   5.582   0.262
 1652TIP3   OH2 4900   5.425   5.469   0.667
 1652TIP3    H1 4901   5.436   5.374   0.659
 1652TIP3    H2 4902   5.500   5.505   0.620
 1653TIP3   OH2 4903   4.685   5.286   0.828
 1653TIP3    H1 4904   4.617   5.222   0.848
 1653TIP3    H2 4905   4.716   5.263   0.740
 1654TIP3   OH2 4906   4.939   4.723   0.479
 1654TIP3    H1 4907   4.891   4.805   0.464
 1654TIP3    H2 4908   4.873   4.655   0.468
 1655TIP3   OH2 4909   5.055   5.232   0.695
 1655TIP3    H1 4910   5.034   5.215   0.787
 1655TIP3    H2 4911   4.974   5.212   0.648
 1656TIP3   OH2 4912   5.310   5.209   0.570
 1656TIP3    H1 4913   5.229   5.186   0.616
 1656TIP3    H2 4914   5.378   5.159   0.615
 1657TIP3   OH2 4915   5.534   5.121   0.704
 1657TIP3    H1 4916   5.549   5.027   0.716
 1657TIP3    H2 4917   5.532   5.157   0.793
 1658TIP3   OH2 4918   4.523   5.068   0.888
 1658TIP3    H1 4919   4.523   4.980   0.850
 1658TIP3    H2 4920   4.559   5.056   0.976
 1659TIP3   OH2 4921   5.032   4.737   0.736
 1659TIP3    H1 4922   5.096   4.666   0.733
 1659TIP3    H2 4923   4.991   4.735   0.649
 1660TIP3   OH2 4924   5.095   4.956   0.892
 1660TIP3    H1 4925   5.079   4.884   0.831
 1660TIP3    H2 4926   5.020   5.014   0.881
 1661TIP3   OH2 4927   4.045   5.426   0.179
 1661TIP3    H1 4928   4.048   5.408   0.085
 1661TIP3    H2 4929   4.137   5.433   0.205
 1662TIP3   OH2 4930   4.257   5.122   0.865
 1662TIP3    H1 4931   4.352   5.116   0.862
 1662TIP3    H2 4932   4.229   5.036   0.897
 1663TIP3   OH2 4933   6.112   4.985   0.623
 1663TIP3    H1 4934   6.157   4.913   0.579
 1663TIP3    H2 4935   6.073   5.036   0.552
 1664TIP3   OH2 4936   4.201   4.797   0.232
 1664TIP3    H1 4937   4.273   4.734   0.227
 1664TIP3    H2 4938   4.234   4.875   0.188
 1665TIP3   OH2 4939   4.001   5.098   0.284
 1665TIP3    H1 4940   4.061   5.067   0.216
 1665TIP3    H2 4941   4.039   5.180   0.315
 1666TIP3   OH2 4942   5.912   5.098   0.471
 1666TIP3    H1 4943   5.839   5.160   0.471
 1666TIP3    H2 4944   5.976   5.136   0.411
 1667TIP3   OH2 4945   4.221   4.673   0.576
 1667TIP3    H1 4946   4.169   4.667   0.656
 1667TIP3    H2 4947   4.160   4.710   0.512
 1668TIP3   OH2 4948   4.260   6.096   0.652
 1668TIP3    H1 4949   4.170   6.073   0.632
 1668TIP3    H2 4950   4.266   6.088   0.747
 1669TIP3   OH2 4951   5.809   4.861   0.312
 1669TIP3    H1 4952   5.732   4.824   0.267
 1669TIP3    H2 4953   5.873   4.790   0.310
 1670TIP3   OH2 4954   4.090   6.391   0.330
 1670TIP3    H1 4955   4.030   6.456   0.293
 1670TIP3    H2 4956   4.071   6.310   0.283
 1671TIP3   OH2 4957   1.464   0.490   6.920
 1671TIP3    H1 4958   1.372   0.464   6.915
 1671TIP3    H2 4959   1.513   0.412   6.893
 1672TIP3   OH2 4960   4.519   4.794   0.826
 1672TIP3    H1 4961   4.481   4.723   0.879
 1672TIP3    H2 4962   4.611   4.794   0.850
 1673TIP3   OH2 4963   4.771   4.790   0.943
 1673TIP3    H1 4964   4.853   4.765   0.900
 1673TIP3    H2 4965   4.756   4.722   1.008
 1674TIP3   OH2 4966   5.603   4.854   0.732
 1674TIP3    H1 4967   5.616   4.823   0.821
 1674TIP3    H2 4968   5.689   4.847   0.691
 1675TIP3   OH2 4969   0.479   6.026   1.825
 1675TIP3    H1 4970   0.509   5.992   1.741
 1675TIP3    H2 4971   0.489   6.121   1.816
 1676TIP3   OH2 4972   1.852   6.360   0.585
 1676TIP3    H1 4973   1.890   6.444   0.613
 1676TIP3    H2 4974   1.848   6.366   0.490
 1677TIP3   OH2 4975   1.938   6.583   0.744
 1677TIP3    H1 4976   1.872   6.633   0.696
 1677TIP3    H2 4977   1.923   6.606   0.835
 1678TIP3   OH2 4978   1.677   6.269   0.779
 1678TIP3    H1 4979   1.586   6.291   0.758
 1678TIP3    H2 4980   1.726   6.296   0.701
 1679TIP3   OH2 4981   1.713   6.751   1.063
 1679TIP3    H1 4982   1.626   6.765   1.026
 1679TIP3    H2 4983   1.730   6.658   1.051
 1680TIP3   OH2 4984   1.245   6.089   1.084
 1680TIP3    H1 4985   1.316   6.059   1.140
 1680TIP3    H2 4986   1.166   6.068   1.133
 1681TIP3   OH2 4987   1.493   6.552   0.991
 1681TIP3    H1 4988   1.451   6.516   1.069
 1681TIP3    H2 4989   1.432   6.618   0.958
 1682TIP3   OH2 4990   1.186   6.781   1.249
 1682TIP3    H1 4991   1.157   6.691   1.265
 1682TIP3    H2 4992   1.276   6.783   1.281
 1683TIP3   OH2 4993   1.356   6.286   0.934
 1683TIP3    H1 4994   1.399   6.328   1.008
 1683TIP3    H2 4995   1.314   6.208   0.971
 1684TIP3   OH2 4996   1.754   6.488   0.969
 1684TIP3    H1 4997   1.660   6.500   0.979
 1684TIP3    H2 4998   1.763   6.424   0.898
 1685TIP3   OH2 4999   1.242   7.114   1.335
 1685TIP3    H1 5000   1.282   7.101   1.249
 1685TIP3    H2 5001   1.263   7.035   1.383
 1686TIP3   OH2 5002   1.463   6.768   1.318
 1686TIP3    H1 5003   1.513   6.688   1.333
 1686TIP3    H2 5004   1.528   6.833   1.292
 1687TIP3   OH2 5005   1.517   7.019   1.058
 1687TIP3    H1 5006   1.447   7.080   1.033
 1687TIP3    H2 5007   1.593   7.047   1.007
 1688TIP3   OH2 5008   0.985   6.014   1.148
 1688TIP3    H1 5009   0.958   6.060   1.068
 1688TIP3    H2 5010   0.955   5.924   1.135
 1689TIP3   OH2 5011   1.103   6.541   1.360
 1689TIP3    H1 5012   1.128   6.550   1.452
 1689TIP3    H2 5013   1.042   6.467   1.359
 1690TIP3   OH2 5014   1.356   6.473   1.207
 1690TIP3    H1 5015   1.279   6.478   1.263
 1690TIP3    H2 5016   1.428   6.450   1.266
 1691TIP3   OH2 5017   1.580   6.424   1.361
 1691TIP3    H1 5018   1.592   6.330   1.376
 1691TIP3    H2 5019   1.573   6.462   1.449
 1692TIP3   OH2 5020   1.082   6.038   1.407
 1692TIP3    H1 5021   1.146   5.967   1.401
 1692TIP3    H2 5022   1.033   6.033   1.325
 1693TIP3   OH2 5023   1.147   6.259   1.551
 1693TIP3    H1 5024   1.131   6.181   1.499
 1693TIP3    H2 5025   1.063   6.304   1.554
 1694TIP3   OH2 5026   1.709   7.450   1.140
 1694TIP3    H1 5027   1.636   7.434   1.199
 1694TIP3    H2 5028   1.735   7.540   1.158
 1695TIP3   OH2 5029   1.778   7.104   0.931
 1695TIP3    H1 5030   1.831   7.027   0.955
 1695TIP3    H2 5031   1.795   7.116   0.838
 1696TIP3   OH2 5032   1.929   6.887   0.981
 1696TIP3    H1 5033   1.853   6.839   1.014
 1696TIP3    H2 5034   2.003   6.827   0.991
 1697TIP3   OH2 5035   2.144   6.292   1.272
 1697TIP3    H1 5036   2.200   6.227   1.229
 1697TIP3    H2 5037   2.107   6.342   1.199
 1698TIP3   OH2 5038   2.000   6.422   1.080
 1698TIP3    H1 5039   1.918   6.469   1.092
 1698TIP3    H2 5040   1.977   6.349   1.022
 1699TIP3   OH2 5041   1.901   6.186   0.959
 1699TIP3    H1 5042   1.814   6.181   0.919
 1699TIP3    H2 5043   1.936   6.097   0.951
 1700TIP3   OH2 5044   1.688   5.992   0.489
 1700TIP3    H1 5045   1.714   6.070   0.439
 1700TIP3    H2 5046   1.598   5.975   0.462
 1701TIP3   OH2 5047   1.121   6.715   1.218
 1701TIP3    H1 5048   1.211   6.684   1.223
 1701TIP3    H2 5049   1.128   6.809   1.202
 1702TIP3   OH2 5050   0.836   6.084   1.672
 1702TIP3    H1 5051   0.890   6.068   1.594
 1702TIP3    H2 5052   0.777   6.009   1.676
 1703TIP3   OH2 5053   1.642   6.155   1.392
 1703TIP3    H1 5054   1.656   6.123   1.481
 1703TIP3    H2 5055   1.728   6.148   1.351
 1704TIP3   OH2 5056   2.177   6.977   0.434
 1704TIP3    H1 5057   2.202   6.904   0.492
 1704TIP3    H2 5058   2.260   7.021   0.414
 1705TIP3   OH2 5059   2.410   6.472   0.079
 1705TIP3    H1 5060   2.348   6.511   0.017
 1705TIP3    H2 5061   2.405   6.378   0.062
 1706TIP3   OH2 5062   3.717   6.833   0.253
 1706TIP3    H1 5063   3.681   6.916   0.220
 1706TIP3    H2 5064   3.778   6.860   0.322
 1707TIP3   OH2 5065   2.389   6.444   0.520
 1707TIP3    H1 5066   2.341   6.481   0.446
 1707TIP3    H2 5067   2.333   6.464   0.596
 1708TIP3   OH2 5068   2.537   7.236   0.292
 1708TIP3    H1 5069   2.445   7.256   0.313
 1708TIP3    H2 5070   2.566   7.310   0.240
 1709TIP3   OH2 5071   2.268   6.547   0.303
 1709TIP3    H1 5072   2.286   6.640   0.314
 1709TIP3    H2 5073   2.316   6.522   0.225
 1710TIP3   OH2 5074   3.409   6.492   0.232
 1710TIP3    H1 5075   3.314   6.491   0.222
 1710TIP3    H2 5076   3.437   6.578   0.201
 1711TIP3   OH2 5077   2.750   6.179   0.234
 1711TIP3    H1 5078   2.738   6.084   0.226
 1711TIP3    H2 5079   2.671   6.209   0.278
 1712TIP3   OH2 5080   3.260   7.073   0.382
 1712TIP3    H1 5081   3.242   7.134   0.454
 1712TIP3    H2 5082   3.173   7.054   0.345
 1713TIP3   OH2 5083   2.442   6.979   0.226
 1713TIP3    H1 5084   2.418   6.967   0.134
 1713TIP3    H2 5085   2.487   7.064   0.228
 1714TIP3   OH2 5086   2.545   7.436   0.549
 1714TIP3    H1 5087   2.508   7.524   0.561
 1714TIP3    H2 5088   2.495   7.398   0.476
 1715TIP3   OH2 5089   2.291   7.107   0.666
 1715TIP3    H1 5090   2.294   7.192   0.711
 1715TIP3    H2 5091   2.197   7.085   0.663
 1716TIP3   OH2 5092   3.496   7.005   0.527
 1716TIP3    H1 5093   3.422   7.017   0.468
 1716TIP3    H2 5094   3.509   6.910   0.529
 1717TIP3   OH2 5095   2.069   7.432   0.638
 1717TIP3    H1 5096   2.155   7.409   0.676
 1717TIP3    H2 5097   2.035   7.348   0.606
 1718TIP3   OH2 5098   2.506   6.244   0.357
 1718TIP3    H1 5099   2.423   6.210   0.325
 1718TIP3    H2 5100   2.483   6.324   0.404
 1719TIP3   OH2 5101   3.040   6.363   0.554
 1719TIP3    H1 5102   3.108   6.331   0.612
 1719TIP3    H2 5103   2.958   6.339   0.597
 1720TIP3   OH2 5104   3.273   6.790   0.466
 1720TIP3    H1 5105   3.226   6.791   0.549
 1720TIP3    H2 5106   3.250   6.873   0.424
 1721TIP3   OH2 5107   2.437   6.761   0.386
 1721TIP3    H1 5108   2.382   6.784   0.460
 1721TIP3    H2 5109   2.434   6.838   0.329
 1722TIP3   OH2 5110   2.991   7.004   0.703
 1722TIP3    H1 5111   2.966   6.933   0.761
 1722TIP3    H2 5112   3.085   7.018   0.720
 1723TIP3   OH2 5113   2.267   6.781   0.614
 1723TIP3    H1 5114   2.325   6.822   0.679
 1723TIP3    H2 5115   2.251   6.694   0.649
 1724TIP3   OH2 5116   3.009   6.999   0.309
 1724TIP3    H1 5117   2.990   6.991   0.216
 1724TIP3    H2 5118   2.960   6.928   0.350
 1725TIP3   OH2 5119   2.666   6.470  -0.024
 1725TIP3    H1 5120   2.582   6.495   0.015
 1725TIP3    H2 5121   2.726   6.469   0.051
 1726TIP3   OH2 5122   3.139   6.508   0.203
 1726TIP3    H1 5123   3.102   6.566   0.270
 1726TIP3    H2 5124   3.064   6.461   0.168
 1727TIP3   OH2 5125   2.277   7.347   0.801
 1727TIP3    H1 5126   2.357   7.369   0.849
 1727TIP3    H2 5127   2.210   7.340   0.869
 1728TIP3   OH2 5128   2.838   6.761   0.128
 1728TIP3    H1 5129   2.778   6.724   0.062
 1728TIP3    H2 5130   2.805   6.727   0.211
 1729TIP3   OH2 5131   8.005   2.220   6.918
 1729TIP3    H1 5132   7.929   2.164   6.937
 1729TIP3    H2 5133   7.970   2.287   6.858
 1730TIP3   OH2 5134   2.700   6.687   0.355
 1730TIP3    H1 5135   2.609   6.718   0.360
 1730TIP3    H2 5136   2.749   6.749   0.409
 1731TIP3   OH2 5137   2.864   7.444   0.434
 1731TIP3    H1 5138   2.883   7.368   0.489
 1731TIP3    H2 5139   2.777   7.473   0.463
 1732TIP3   OH2 5140   2.004   7.052   0.741
 1732TIP3    H1 5141   2.039   7.030   0.827
 1732TIP3    H2 5142   1.988   6.967   0.699
 1733TIP3   OH2 5143   2.751   7.128   0.743
 1733TIP3    H1 5144   2.688   7.084   0.687
 1733TIP3    H2 5145   2.836   7.096   0.714
 1734TIP3   OH2 5146   2.224   6.527   0.733
 1734TIP3    H1 5147   2.128   6.530   0.737
 1734TIP3    H2 5148   2.248   6.464   0.801
 1735TIP3   OH2 5149   3.051   6.615   0.442
 1735TIP3    H1 5150   3.140   6.643   0.462
 1735TIP3    H2 5151   3.045   6.528   0.482
 1736TIP3   OH2 5152   2.889   6.830   0.493
 1736TIP3    H1 5153   2.926   6.881   0.564
 1736TIP3    H2 5154   2.945   6.753   0.486
 1737TIP3   OH2 5155   3.538   6.736   0.479
 1737TIP3    H1 5156   3.443   6.732   0.476
 1737TIP3    H2 5157   3.565   6.736   0.387
 1738TIP3   OH2 5158   2.245   6.156   0.327
 1738TIP3    H1 5159   2.219   6.121   0.242
 1738TIP3    H2 5160   2.237   6.082   0.387
 1739TIP3   OH2 5161   2.054   7.309   0.975
 1739TIP3    H1 5162   2.100   7.226   0.968
 1739TIP3    H2 5163   1.963   7.285   0.994
 1740TIP3   OH2 5164   2.681   7.391   0.779
 1740TIP3    H1 5165   2.639   7.404   0.694
 1740TIP3    H2 5166   2.720   7.304   0.773
 1741TIP3   OH2 5167   3.145   7.436   0.391
 1741TIP3    H1 5168   3.178   7.493   0.322
 1741TIP3    H2 5169   3.053   7.460   0.401
 1742TIP3   OH2 5170   2.192   7.071   0.964
 1742TIP3    H1 5171   2.265   7.018   0.933
 1742TIP3    H2 5172   2.216   7.095   1.053
 1743TIP3   OH2 5173   2.517   6.950   0.628
 1743TIP3    H1 5174   2.445   7.013   0.631
 1743TIP3    H2 5175   2.573   6.981   0.557
 1744TIP3   OH2 5176   3.047   7.344   0.757
 1744TIP3    H1 5177   3.118   7.315   0.700
 1744TIP3    H2 5178   3.043   7.278   0.826
 1745TIP3   OH2 5179   2.641   6.739   0.752
 1745TIP3    H1 5180   2.644   6.660   0.698
 1745TIP3    H2 5181   2.601   6.805   0.695
 1746TIP3   OH2 5182   2.644   6.522   0.570
 1746TIP3    H1 5183   2.672   6.564   0.489
 1746TIP3    H2 5184   2.553   6.497   0.554
 1747TIP3   OH2 5185   2.681   7.064   0.451
 1747TIP3    H1 5186   2.766   7.048   0.409
 1747TIP3    H2 5187   2.636   7.124   0.393
 1748TIP3   OH2 5188   3.257   7.027   0.813
 1748TIP3    H1 5189   3.301   6.942   0.814
 1748TIP3    H2 5190   3.321   7.087   0.776
 1749TIP3   OH2 5191   3.271   7.281   0.571
 1749TIP3    H1 5192   3.222   7.338   0.511
 1749TIP3    H2 5193   3.362   7.289   0.543
 1750TIP3   OH2 5194   2.520   6.845   0.985
 1750TIP3    H1 5195   2.456   6.775   0.999
 1750TIP3    H2 5196   2.556   6.827   0.898
 1751TIP3   OH2 5197   2.778   6.286   0.629
 1751TIP3    H1 5198   2.730   6.367   0.608
 1751TIP3    H2 5199   2.714   6.216   0.616
 1752TIP3   OH2 5200   2.901   6.788   0.843
 1752TIP3    H1 5201   2.889   6.773   0.937
 1752TIP3    H2 5202   2.816   6.766   0.805
 1753TIP3   OH2 5203   3.149   6.752   0.704
 1753TIP3    H1 5204   3.073   6.745   0.761
 1753TIP3    H2 5205   3.221   6.717   0.756
 1754TIP3   OH2 5206   3.372   6.681   0.851
 1754TIP3    H1 5207   3.387   6.587   0.864
 1754TIP3    H2 5208   3.371   6.717   0.940
 1755TIP3   OH2 5209   2.364   6.623   1.040
 1755TIP3    H1 5210   2.365   6.536   1.000
 1755TIP3    H2 5211   2.400   6.610   1.128
 1756TIP3   OH2 5212   2.870   6.294   0.886
 1756TIP3    H1 5213   2.937   6.226   0.883
 1756TIP3    H2 5214   2.831   6.293   0.799
 1757TIP3   OH2 5215   2.936   6.511   1.044
 1757TIP3    H1 5216   2.919   6.440   0.982
 1757TIP3    H2 5217   2.861   6.569   1.035
 1758TIP3   OH2 5218   3.514   7.707   0.583
 1758TIP3    H1 5219   3.443   7.685   0.644
 1758TIP3    H2 5220   3.566   7.773   0.630
 1759TIP3   OH2 5221   3.535   7.332   0.497
 1759TIP3    H1 5222   3.604   7.269   0.515
 1759TIP3    H2 5223   3.549   7.358   0.406
 1760TIP3   OH2 5224   3.723   7.142   0.541
 1760TIP3    H1 5225   3.644   7.089   0.530
 1760TIP3    H2 5226   3.793   7.090   0.500
 1761TIP3   OH2 5227   2.098   6.678   1.017
 1761TIP3    H1 5228   2.194   6.671   1.012
 1761TIP3    H2 5229   2.070   6.592   1.046
 1762TIP3   OH2 5230   3.926   6.548   0.763
 1762TIP3    H1 5231   3.984   6.480   0.730
 1762TIP3    H2 5232   3.904   6.600   0.686
 1763TIP3   OH2 5233   2.062   6.366   0.339
 1763TIP3    H1 5234   2.130   6.300   0.352
 1763TIP3    H2 5235   2.109   6.447   0.324
 1764TIP3   OH2 5236   3.791   6.685   0.565
 1764TIP3    H1 5237   3.706   6.726   0.579
 1764TIP3    H2 5238   3.772   6.607   0.512
 1765TIP3   OH2 5239   2.059   6.232   0.724
 1765TIP3    H1 5240   2.008   6.225   0.805
 1765TIP3    H2 5241   1.998   6.269   0.661
 1766TIP3   OH2 5242   3.697   6.440   0.449
 1766TIP3    H1 5243   3.605   6.429   0.427
 1766TIP3    H2 5244   3.734   6.351   0.443
 1767TIP3   OH2 5245   2.938   6.341   0.078
 1767TIP3    H1 5246   2.877   6.297   0.137
 1767TIP3    H2 5247   2.942   6.285   0.001
 1768TIP3   OH2 5248   2.143   6.047   0.086
 1768TIP3    H1 5249   2.058   6.003   0.091
 1768TIP3    H2 5250   2.207   5.976   0.075
 1769TIP3   OH2 5251   2.607   6.047   0.017
 1769TIP3    H1 5252   2.684   6.045  -0.040
 1769TIP3    H2 5253   2.611   6.132   0.061
 1770TIP3   OH2 5254   2.359   6.349   0.977
 1770TIP3    H1 5255   2.323   6.277   1.029
 1770TIP3    H2 5256   2.452   6.351   0.999
 1771TIP3   OH2 5257   2.611   6.348   1.091
 1771TIP3    H1 5258   2.693   6.327   1.047
 1771TIP3    H2 5259   2.601   6.280   1.157
 1772TIP3   OH2 5260   3.439   6.411   0.879
 1772TIP3    H1 5261   3.454   6.380   0.968
 1772TIP3    H2 5262   3.525   6.407   0.837
 1773TIP3   OH2 5263   3.855   7.551   0.496
 1773TIP3    H1 5264   3.890   7.464   0.480
 1773TIP3    H2 5265   3.803   7.572   0.419
 1774TIP3   OH2 5266   3.989   7.321   0.459
 1774TIP3    H1 5267   4.035   7.239   0.440
 1774TIP3    H2 5268   4.020   7.346   0.546
 1775TIP3   OH2 5269   4.322   7.094   0.453
 1775TIP3    H1 5270   4.258   7.035   0.493
 1775TIP3    H2 5271   4.372   7.038   0.394
 1776TIP3   OH2 5272   4.151   6.894   0.537
 1776TIP3    H1 5273   4.150   6.805   0.501
 1776TIP3    H2 5274   4.190   6.885   0.624
 1777TIP3   OH2 5275   4.727   6.763   0.529
 1777TIP3    H1 5276   4.703   6.707   0.455
 1777TIP3    H2 5277   4.656   6.826   0.536
 1778TIP3   OH2 5278   3.889   6.926   0.468
 1778TIP3    H1 5279   3.983   6.928   0.485
 1778TIP3    H2 5280   3.858   6.849   0.515
 1779TIP3   OH2 5281   3.826   6.505   0.211
 1779TIP3    H1 5282   3.788   6.476   0.294
 1779TIP3    H2 5283   3.800   6.596   0.203
 1780TIP3   OH2 5284   4.155   6.630   0.482
 1780TIP3    H1 5285   4.131   6.541   0.457
 1780TIP3    H2 5286   4.245   6.622   0.515
 1781TIP3   OH2 5287   4.406   6.605   0.596
 1781TIP3    H1 5288   4.493   6.586   0.561
 1781TIP3    H2 5289   4.387   6.532   0.655
 1782TIP3   OH2 5290   1.393   0.038   3.994
 1782TIP3    H1 5291   1.388  -0.005   4.080
 1782TIP3    H2 5292   1.419   0.128   4.013
 1783TIP3   OH2 5293   1.049   0.505   3.980
 1783TIP3    H1 5294   1.092   0.426   3.945
 1783TIP3    H2 5295   1.031   0.483   4.071
 1784TIP3   OH2 5296   7.660   7.509   4.522
 1784TIP3    H1 5297   7.585   7.565   4.502
 1784TIP3    H2 5298   7.721   7.566   4.569
 1785TIP3   OH2 5299   1.457   0.301   4.134
 1785TIP3    H1 5300   1.367   0.295   4.165
 1785TIP3    H2 5301   1.462   0.386   4.089
 1786TIP3   OH2 5302   1.683   0.208   4.478
 1786TIP3    H1 5303   1.675   0.134   4.418
 1786TIP3    H2 5304   1.667   0.285   4.423
 1787TIP3   OH2 5305   7.544   7.864   4.321
 1787TIP3    H1 5306   7.464   7.915   4.328
 1787TIP3    H2 5307   7.579   7.885   4.234
 1788TIP3   OH2 5308   1.208   0.315   4.231
 1788TIP3    H1 5309   1.197   0.396   4.281
 1788TIP3    H2 5310   1.195   0.246   4.295
 1789TIP3   OH2 5311   1.922   0.557   4.529
 1789TIP3    H1 5312   1.926   0.463   4.544
 1789TIP3    H2 5313   1.841   0.585   4.572
 1790TIP3   OH2 5314   1.053   0.370   4.626
 1790TIP3    H1 5315   1.045   0.453   4.672
 1790TIP3    H2 5316   0.981   0.316   4.659
 1791TIP3   OH2 5317   7.482   7.688   4.800
 1791TIP3    H1 5318   7.400   7.739   4.799
 1791TIP3    H2 5319   7.453   7.597   4.789
 1792TIP3   OH2 5320   1.619   0.906   4.626
 1792TIP3    H1 5321   1.614   0.931   4.533
 1792TIP3    H2 5322   1.696   0.951   4.659
 1793TIP3   OH2 5323   1.646  -0.002   4.303
 1793TIP3    H1 5324   1.682   0.050   4.231
 1793TIP3    H2 5325   1.566  -0.040   4.267
 1794TIP3   OH2 5326   1.321   0.335   4.601
 1794TIP3    H1 5327   1.226   0.347   4.594
 1794TIP3    H2 5328   1.347   0.393   4.673
 1795TIP3   OH2 5329   1.933   0.272   4.562
 1795TIP3    H1 5330   1.838   0.264   4.562
 1795TIP3    H2 5331   1.960   0.243   4.475
 1796TIP3   OH2 5332   7.093   7.864   4.215
 1796TIP3    H1 5333   7.004   7.846   4.247
 1796TIP3    H2 5334   7.107   7.799   4.147
 1797TIP3   OH2 5335   0.832   0.447   4.475
 1797TIP3    H1 5336   0.853   0.512   4.408
 1797TIP3    H2 5337   0.917   0.426   4.516
 1798TIP3   OH2 5338   1.250   0.097   4.415
 1798TIP3    H1 5339   1.215   0.121   4.501
 1798TIP3    H2 5340   1.345   0.102   4.425
 1799TIP3   OH2 5341   1.442   0.594   4.459
 1799TIP3    H1 5342   1.361   0.544   4.448
 1799TIP3    H2 5343   1.437   0.661   4.391
 1800TIP3   OH2 5344   1.471   0.566   4.055
 1800TIP3    H1 5345   1.423   0.614   3.988
 1800TIP3    H2 5346   1.563   0.585   4.037
 1801TIP3   OH2 5347   1.367   0.466   4.846
 1801TIP3    H1 5348   1.404   0.393   4.896
 1801TIP3    H2 5349   1.433   0.535   4.853
 1802TIP3   OH2 5350   1.473   0.109   4.622
 1802TIP3    H1 5351   1.557   0.135   4.583
 1802TIP3    H2 5352   1.421   0.190   4.622
 1803TIP3   OH2 5353   7.302   7.950   4.781
 1803TIP3    H1 5354   7.242   8.003   4.728
 1803TIP3    H2 5355   7.389   7.974   4.749
 1804TIP3   OH2 5356   1.726   0.652   4.021
 1804TIP3    H1 5357   1.749   0.690   4.106
 1804TIP3    H2 5358   1.779   0.700   3.958
 1805TIP3   OH2 5359   1.751   0.677   4.303
 1805TIP3    H1 5360   1.706   0.593   4.294
 1805TIP3    H2 5361   1.825   0.658   4.361
 1806TIP3   OH2 5362   1.792   0.357   4.871
 1806TIP3    H1 5363   1.724   0.362   4.938
 1806TIP3    H2 5364   1.838   0.440   4.876
 1807TIP3   OH2 5365   1.801   0.130   4.124
 1807TIP3    H1 5366   1.849   0.064   4.075
 1807TIP3    H2 5367   1.799   0.207   4.066
 1808TIP3   OH2 5368   1.622   0.429   4.322
 1808TIP3    H1 5369   1.554   0.475   4.372
 1808TIP3    H2 5370   1.575   0.386   4.251
 1809TIP3   OH2 5371   1.868   0.027   4.682
 1809TIP3    H1 5372   1.935  -0.041   4.676
 1809TIP3    H2 5373   1.901   0.099   4.629
 1810TIP3   OH2 5374   7.696   7.827   4.703
 1810TIP3    H1 5375   7.623   7.779   4.741
 1810TIP3    H2 5376   7.772   7.772   4.721
 1811TIP3   OH2 5377   7.376   7.498   4.247
 1811TIP3    H1 5378   7.453   7.521   4.195
 1811TIP3    H2 5379   7.388   7.544   4.330
 1812TIP3   OH2 5380   7.428   7.659   4.464
 1812TIP3    H1 5381   7.345   7.695   4.496
 1812TIP3    H2 5382   7.472   7.732   4.421
 1813TIP3   OH2 5383   1.284   0.541   3.671
 1813TIP3    H1 5384   1.325   0.494   3.598
 1813TIP3    H2 5385   1.357   0.580   3.719
 1814TIP3   OH2 5386   1.032   0.617   4.749
 1814TIP3    H1 5387   1.068   0.607   4.837
 1814TIP3    H2 5388   1.096   0.670   4.702
 1815TIP3   OH2 5389   1.216   0.761   4.607
 1815TIP3    H1 5390   1.284   0.713   4.558
 1815TIP3    H2 5391   1.265   0.818   4.666
 1816TIP3   OH2 5392   0.930   0.631   4.282
 1816TIP3    H1 5393   0.854   0.645   4.224
 1816TIP3    H2 5394   0.947   0.717   4.319
 1817TIP3   OH2 5395   1.194   0.570   4.337
 1817TIP3    H1 5396   1.100   0.585   4.323
 1817TIP3    H2 5397   1.237   0.644   4.294
 1818TIP3   OH2 5398   1.399   0.757   4.245
 1818TIP3    H1 5399   1.383   0.841   4.202
 1818TIP3    H2 5400   1.424   0.698   4.174
 1819TIP3   OH2 5401   1.673   0.638   4.620
 1819TIP3    H1 5402   1.597   0.607   4.571
 1819TIP3    H2 5403   1.658   0.731   4.632
 1820TIP3   OH2 5404   2.940   0.007   3.390
 1820TIP3    H1 5405   2.914   0.098   3.372
 1820TIP3    H2 5406   2.871  -0.046   3.349
 1821TIP3   OH2 5407   0.113   8.022   3.777
 1821TIP3    H1 5408   0.144   8.003   3.865
 1821TIP3    H2 5409   0.070   7.942   3.748
 1822TIP3   OH2 5410   7.907   7.915   4.139
 1822TIP3    H1 5411   7.934   7.843   4.197
 1822TIP3    H2 5412   7.976   7.980   4.148
 1823TIP3   OH2 5413   3.190   0.310   3.460
 1823TIP3    H1 5414   3.170   0.246   3.528
 1823TIP3    H2 5415   3.217   0.388   3.507
 1824TIP3   OH2 5416   2.214   0.308   3.860
 1824TIP3    H1 5417   2.202   0.213   3.864
 1824TIP3    H2 5418   2.309   0.320   3.854
 1825TIP3   OH2 5419   7.669   7.830   3.782
 1825TIP3    H1 5420   7.694   7.752   3.830
 1825TIP3    H2 5421   7.739   7.893   3.798
 1826TIP3   OH2 5422   2.838   0.772   3.471
 1826TIP3    H1 5423   2.880   0.704   3.419
 1826TIP3    H2 5424   2.826   0.733   3.557
 1827TIP3   OH2 5425   2.744   0.234   3.821
 1827TIP3    H1 5426   2.781   0.158   3.776
 1827TIP3    H2 5427   2.820   0.284   3.850
 1828TIP3   OH2 5428   0.329   7.748   3.866
 1828TIP3    H1 5429   0.339   7.658   3.898
 1828TIP3    H2 5430   0.287   7.738   3.781
 1829TIP3   OH2 5431   8.130   7.356   3.784
 1829TIP3    H1 5432   8.108   7.445   3.759
 1829TIP3    H2 5433   8.060   7.302   3.747
 1830TIP3   OH2 5434   0.321   7.530   3.492
 1830TIP3    H1 5435   0.379   7.481   3.551
 1830TIP3    H2 5436   0.366   7.529   3.407
 1831TIP3   OH2 5437   7.768   7.608   3.912
 1831TIP3    H1 5438   7.856   7.618   3.946
 1831TIP3    H2 5439   7.771   7.528   3.860
 1832TIP3   OH2 5440   8.229   7.802   3.715
 1832TIP3    H1 5441   8.322   7.789   3.734
 1832TIP3    H2 5442   8.195   7.713   3.705
 1833TIP3   OH2 5443   0.957   7.761   4.016
 1833TIP3    H1 5444   0.883   7.813   3.984
 1833TIP3    H2 5445   1.015   7.825   4.058
 1834TIP3   OH2 5446   2.832   0.231   3.258
 1834TIP3    H1 5447   2.797   0.218   3.170
 1834TIP3    H2 5448   2.790   0.310   3.290
 1835TIP3   OH2 5449   2.594   0.156   4.044
 1835TIP3    H1 5450   2.534   0.221   4.083
 1835TIP3    H2 5451   2.635   0.203   3.972
 1836TIP3   OH2 5452   8.025   7.576   3.982
 1836TIP3    H1 5453   8.088   7.630   4.029
 1836TIP3    H2 5454   8.049   7.486   4.003
 1837TIP3   OH2 5455   2.421   0.352   4.145
 1837TIP3    H1 5456   2.401   0.438   4.108
 1837TIP3    H2 5457   2.346   0.331   4.201
 1838TIP3   OH2 5458   3.254   0.557   3.618
 1838TIP3    H1 5459   3.168   0.546   3.660
 1838TIP3    H2 5460   3.248   0.641   3.574
 1839TIP3   OH2 5461   2.960   0.598   3.291
 1839TIP3    H1 5462   3.006   0.516   3.274
 1839TIP3    H2 5463   3.017   0.666   3.256
 1840TIP3   OH2 5464   3.102   0.379   3.207
 1840TIP3    H1 5465   3.051   0.304   3.175
 1840TIP3    H2 5466   3.139   0.348   3.290
 1841TIP3   OH2 5467   3.481   0.465   3.964
 1841TIP3    H1 5468   3.468   0.389   3.908
 1841TIP3    H2 5469   3.461   0.540   3.907
 1842TIP3   OH2 5470   8.446   7.873   3.216
 1842TIP3    H1 5471   8.364   7.919   3.197
 1842TIP3    H2 5472   8.486   7.857   3.131
 1843TIP3   OH2 5473   3.677   0.110   3.808
 1843TIP3    H1 5474   3.594   0.157   3.816
 1843TIP3    H2 5475   3.708   0.130   3.720
 1844TIP3   OH2 5476   0.295   7.967   3.201
 1844TIP3    H1 5477   0.235   7.986   3.273
 1844TIP3    H2 5478   0.377   7.945   3.244
 1845TIP3   OH2 5479   3.351  -0.015   4.111
 1845TIP3    H1 5480   3.349   0.063   4.166
 1845TIP3    H2 5481   3.266  -0.014   4.067
 1846TIP3   OH2 5482   8.024   7.950   3.610
 1846TIP3    H1 5483   8.001   7.907   3.527
 1846TIP3    H2 5484   8.099   7.901   3.643
 1847TIP3   OH2 5485   2.481   0.347   3.759
 1847TIP3    H1 5486   2.463   0.322   3.669
 1847TIP3    H2 5487   2.570   0.314   3.776
 1848TIP3   OH2 5488   8.159   7.926   3.966
 1848TIP3    H1 5489   8.193   7.902   3.880
 1848TIP3    H2 5490   8.201   8.009   3.987
 1849TIP3   OH2 5491   3.019   0.549   3.746
 1849TIP3    H1 5492   3.002   0.629   3.795
 1849TIP3    H2 5493   2.999   0.479   3.808
 1850TIP3   OH2 5494   2.625   0.468   4.290
 1850TIP3    H1 5495   2.570   0.529   4.338
 1850TIP3    H2 5496   2.564   0.414   4.240
 1851TIP3   OH2 5497   0.150   7.815   3.020
 1851TIP3    H1 5498   0.199   7.878   3.072
 1851TIP3    H2 5499   0.168   7.838   2.929
 1852TIP3   OH2 5500   2.372   0.036   4.384
 1852TIP3    H1 5501   2.384   0.118   4.432
 1852TIP3    H2 5502   2.283   0.008   4.406
 1853TIP3   OH2 5503   2.710   0.474   3.305
 1853TIP3    H1 5504   2.787   0.531   3.309
 1853TIP3    H2 5505   2.646   0.524   3.253
 1854TIP3   OH2 5506   2.420   0.633   4.379
 1854TIP3    H1 5507   2.386   0.636   4.289
 1854TIP3    H2 5508   2.343   0.612   4.433
 1855TIP3   OH2 5509   3.278   0.409   2.618
 1855TIP3    H1 5510   3.280   0.503   2.603
 1855TIP3    H2 5511   3.369   0.381   2.609
 1856TIP3   OH2 5512   2.000   0.166   4.324
 1856TIP3    H1 5513   1.936   0.146   4.256
 1856TIP3    H2 5514   2.038   0.081   4.347
 1857TIP3   OH2 5515   1.857   0.357   3.963
 1857TIP3    H1 5516   1.952   0.362   3.951
 1857TIP3    H2 5517   1.835   0.439   4.008
 1858TIP3   OH2 5518   3.717   0.814   4.017
 1858TIP3    H1 5519   3.718   0.719   4.029
 1858TIP3    H2 5520   3.636   0.842   4.060
 1859TIP3   OH2 5521   2.822   0.597   4.150
 1859TIP3    H1 5522   2.822   0.688   4.179
 1859TIP3    H2 5523   2.753   0.555   4.200
 1860TIP3   OH2 5524   2.583   0.743   3.089
 1860TIP3    H1 5525   2.545   0.694   3.016
 1860TIP3    H2 5526   2.585   0.834   3.058
 1861TIP3   OH2 5527   2.035   0.587   3.486
 1861TIP3    H1 5528   2.077   0.577   3.571
 1861TIP3    H2 5529   1.985   0.506   3.475
 1862TIP3   OH2 5530   2.788   0.628   2.742
 1862TIP3    H1 5531   2.844   0.558   2.708
 1862TIP3    H2 5532   2.815   0.637   2.833
 1863TIP3   OH2 5533   2.836   0.675   3.013
 1863TIP3    H1 5534   2.748   0.694   3.046
 1863TIP3    H2 5535   2.884   0.642   3.089
 1864TIP3   OH2 5536   0.772   7.939   4.288
 1864TIP3    H1 5537   0.694   7.981   4.251
 1864TIP3    H2 5538   0.755   7.846   4.282
 1865TIP3   OH2 5539   2.206   0.348   4.311
 1865TIP3    H1 5540   2.255   0.336   4.392
 1865TIP3    H2 5541   2.132   0.288   4.319
 1866TIP3   OH2 5542   0.562   7.747   4.237
 1866TIP3    H1 5543   0.514   7.766   4.317
 1866TIP3    H2 5544   0.534   7.816   4.176
 1867TIP3   OH2 5545   0.214   7.878   2.754
 1867TIP3    H1 5546   0.202   7.859   2.661
 1867TIP3    H2 5547   0.293   7.932   2.757
 1868TIP3   OH2 5548   8.217   7.713   4.130
 1868TIP3    H1 5549   8.161   7.728   4.207
 1868TIP3    H2 5550   8.205   7.791   4.076
 1869TIP3   OH2 5551   8.080   7.572   3.620
 1869TIP3    H1 5552   7.988   7.592   3.605
 1869TIP3    H2 5553   8.118   7.565   3.532
 1870TIP3   OH2 5554   0.076   7.673   3.353
 1870TIP3    H1 5555   0.032   7.746   3.308
 1870TIP3    H2 5556   0.134   7.636   3.286
 1871TIP3   OH2 5557   0.262   7.977   4.429
 1871TIP3    H1 5558   0.234   7.900   4.477
 1871TIP3    H2 5559   0.354   7.987   4.451
 1872TIP3   OH2 5560   0.210   7.743   3.615
 1872TIP3    H1 5561   0.156   7.791   3.552
 1872TIP3    H2 5562   0.238   7.665   3.568
 1873TIP3   OH2 5563   8.022   7.737   4.327
 1873TIP3    H1 5564   8.041   7.800   4.396
 1873TIP3    H2 5565   8.005   7.655   4.374
 1874TIP3   OH2 5566   0.240   7.949   4.018
 1874TIP3    H1 5567   0.280   7.884   3.960
 1874TIP3    H2 5568   0.215   7.901   4.096
 1875TIP3   OH2 5569   3.414   1.162   4.112
 1875TIP3    H1 5570   3.408   1.185   4.019
 1875TIP3    H2 5571   3.492   1.208   4.143
 1876TIP3   OH2 5572   2.369   0.274   4.535
 1876TIP3    H1 5573   2.449   0.303   4.579
 1876TIP3    H2 5574   2.303   0.270   4.604
 1877TIP3   OH2 5575  -0.017   7.743   3.791
 1877TIP3    H1 5576   0.065   7.715   3.751
 1877TIP3    H2 5577  -0.013   7.709   3.880
 1878TIP3   OH2 5578   8.493   7.670   4.051
 1878TIP3    H1 5579   8.404   7.666   4.086
 1878TIP3    H2 5580   8.544   7.713   4.119
 1879TIP3   OH2 5581   2.529  -0.003   3.186
 1879TIP3    H1 5582   2.435   0.007   3.169
 1879TIP3    H2 5583   2.541   0.034   3.273
 1880TIP3   OH2 5584   3.441   0.248   3.798
 1880TIP3    H1 5585   3.465   0.300   3.721
 1880TIP3    H2 5586   3.358   0.207   3.775
 1881TIP3   OH2 5587   2.942   0.334   4.171
 1881TIP3    H1 5588   2.968   0.312   4.261
 1881TIP3    H2 5589   2.903   0.421   4.177
 1882TIP3   OH2 5590   0.235   7.588   3.146
 1882TIP3    H1 5591   0.329   7.604   3.150
 1882TIP3    H2 5592   0.200   7.660   3.093
 1883TIP3   OH2 5593   7.891   8.023   3.845
 1883TIP3    H1 5594   7.939   8.011   3.763
 1883TIP3    H2 5595   7.949   7.988   3.913
 1884TIP3   OH2 5596   2.685   0.164   3.022
 1884TIP3    H1 5597   2.645   0.252   3.025
 1884TIP3    H2 5598   2.627   0.110   3.076
 1885TIP3   OH2 5599   7.786   7.968   4.465
 1885TIP3    H1 5600   7.812   7.957   4.556
 1885TIP3    H2 5601   7.717   7.903   4.452
 1886TIP3   OH2 5602   2.845   0.075   4.482
 1886TIP3    H1 5603   2.782   0.019   4.436
 1886TIP3    H2 5604   2.930   0.046   4.451
 1887TIP3   OH2 5605   3.101   0.590   4.070
 1887TIP3    H1 5606   3.005   0.588   4.080
 1887TIP3    H2 5607   3.131   0.643   4.144
 1888TIP3   OH2 5608   0.652   7.690   2.961
 1888TIP3    H1 5609   0.617   7.618   2.909
 1888TIP3    H2 5610   0.627   7.769   2.913
 1889TIP3   OH2 5611   3.730   0.522   4.052
 1889TIP3    H1 5612   3.634   0.519   4.047
 1889TIP3    H2 5613   3.760   0.493   3.966
 1890TIP3   OH2 5614   3.224   0.480   2.886
 1890TIP3    H1 5615   3.178   0.417   2.943
 1890TIP3    H2 5616   3.227   0.437   2.801
 1891TIP3   OH2 5617   3.207   0.112   3.715
 1891TIP3    H1 5618   3.115   0.090   3.731
 1891TIP3    H2 5619   3.243   0.036   3.670
 1892TIP3   OH2 5620   2.335   0.343   3.470
 1892TIP3    H1 5621   2.335   0.424   3.419
 1892TIP3    H2 5622   2.242   0.321   3.479
 1893TIP3   OH2 5623   2.473   0.110   3.422
 1893TIP3    H1 5624   2.441   0.199   3.430
 1893TIP3    H2 5625   2.440   0.065   3.500
 1894TIP3   OH2 5626   2.610   0.683   3.940
 1894TIP3    H1 5627   2.648   0.755   3.890
 1894TIP3    H2 5628   2.683   0.647   3.989
 1895TIP3   OH2 5629   2.259   0.578   3.325
 1895TIP3    H1 5630   2.175   0.586   3.371
 1895TIP3    H2 5631   2.294   0.667   3.325
 1896TIP3   OH2 5632   2.992   0.315   3.905
 1896TIP3    H1 5633   2.979   0.317   4.000
 1896TIP3    H2 5634   3.073   0.266   3.893
 1897TIP3   OH2 5635   2.979   0.208   2.777
 1897TIP3    H1 5636   3.016   0.184   2.862
 1897TIP3    H2 5637   2.887   0.182   2.783
 1898TIP3   OH2 5638   3.240   0.848   3.947
 1898TIP3    H1 5639   3.162   0.794   3.944
 1898TIP3    H2 5640   3.228   0.913   3.878
 1899TIP3   OH2 5641   3.304   0.684   2.603
 1899TIP3    H1 5642   3.333   0.742   2.533
 1899TIP3    H2 5643   3.228   0.728   2.641
 1900TIP3   OH2 5644   3.132   0.137   2.997
 1900TIP3    H1 5645   3.120   0.080   3.074
 1900TIP3    H2 5646   3.227   0.143   2.987
 1901TIP3   OH2 5647   2.049   0.544   4.100
 1901TIP3    H1 5648   2.101   0.472   4.137
 1901TIP3    H2 5649   2.067   0.618   4.158
 1902TIP3   OH2 5650   2.302   0.200   3.046
 1902TIP3    H1 5651   2.310   0.190   3.140
 1902TIP3    H2 5652   2.290   0.295   3.033
 1903TIP3   OH2 5653   2.554   0.397   3.028
 1903TIP3    H1 5654   2.468   0.427   3.056
 1903TIP3    H2 5655   2.558   0.418   2.934
 1904TIP3   OH2 5656   8.385   7.487   3.401
 1904TIP3    H1 5657   8.450   7.557   3.391
 1904TIP3    H2 5658   8.424   7.427   3.465
 1905TIP3   OH2 5659   0.187   7.790   4.232
 1905TIP3    H1 5660   0.180   7.858   4.299
 1905TIP3    H2 5661   0.225   7.715   4.278
 1906TIP3   OH2 5662   2.290   0.470   3.071
 1906TIP3    H1 5663   2.262   0.540   3.011
 1906TIP3    H2 5664   2.274   0.506   3.158
 1907TIP3   OH2 5665   0.462   7.881   3.593
 1907TIP3    H1 5666   0.381   7.836   3.617
 1907TIP3    H2 5667   0.531   7.837   3.643
 1908TIP3   OH2 5668   3.265   0.828   3.542
 1908TIP3    H1 5669   3.219   0.872   3.470
 1908TIP3    H2 5670   3.358   0.842   3.523
 1909TIP3   OH2 5671   1.915   0.344   3.457
 1909TIP3    H1 5672   1.821   0.331   3.469
 1909TIP3    H2 5673   1.933   0.308   3.371
 1910TIP3   OH2 5674   2.040   0.858   4.522
 1910TIP3    H1 5675   2.123   0.862   4.570
 1910TIP3    H2 5676   2.017   0.766   4.521
 1911TIP3   OH2 5677   2.518   0.817   4.562
 1911TIP3    H1 5678   2.610   0.792   4.575
 1911TIP3    H2 5679   2.487   0.757   4.494
 1912TIP3   OH2 5680   2.521   0.391   2.746
 1912TIP3    H1 5681   2.444   0.336   2.759
 1912TIP3    H2 5682   2.540   0.383   2.653
 1913TIP3   OH2 5683   3.157   0.724   4.303
 1913TIP3    H1 5684   3.148   0.657   4.370
 1913TIP3    H2 5685   3.231   0.777   4.332
 1914TIP3   OH2 5686   2.933   0.432   2.610
 1914TIP3    H1 5687   2.980   0.372   2.667
 1914TIP3    H2 5688   2.988   0.439   2.532
 1915TIP3   OH2 5689   2.166   0.262   4.721
 1915TIP3    H1 5690   2.178   0.169   4.739
 1915TIP3    H2 5691   2.080   0.267   4.678
 1916TIP3   OH2 5692   2.775   0.350   4.496
 1916TIP3    H1 5693   2.731   0.368   4.413
 1916TIP3    H2 5694   2.803   0.258   4.489
 1917TIP3   OH2 5695   2.708   0.112   2.751
 1917TIP3    H1 5696   2.691   0.134   2.843
 1917TIP3    H2 5697   2.683   0.019   2.745
 1918TIP3   OH2 5698   3.264   0.360   4.103
 1918TIP3    H1 5699   3.340   0.401   4.061
 1918TIP3    H2 5700   3.193   0.423   4.092
 1919TIP3   OH2 5701   7.963   8.006   4.704
 1919TIP3    H1 5702   8.044   7.958   4.686
 1919TIP3    H2 5703   7.975   8.042   4.792
 1920TIP3   OH2 5704   8.285   7.925   4.364
 1920TIP3    H1 5705   8.204   7.975   4.361
 1920TIP3    H2 5706   8.332   7.951   4.285
 1921TIP3   OH2 5707   3.141   0.283   4.502
 1921TIP3    H1 5708   3.211   0.245   4.449
 1921TIP3    H2 5709   3.125   0.219   4.571
 1922TIP3   OH2 5710   0.455   7.962   2.640
 1922TIP3    H1 5711   0.426   7.914   2.563
 1922TIP3    H2 5712   0.424   8.052   2.626
 1923TIP3   OH2 5713   8.374   7.703   4.484
 1923TIP3    H1 5714   8.324   7.641   4.429
 1923TIP3    H2 5715   8.349   7.789   4.450
 1924TIP3   OH2 5716   2.781  -0.004   4.165
 1924TIP3    H1 5717   2.864   0.007   4.119
 1924TIP3    H2 5718   2.722   0.058   4.123
 1925TIP3   OH2 5719   0.515   7.968   4.530
 1925TIP3    H1 5720   0.544   7.913   4.603
 1925TIP3    H2 5721   0.588   8.028   4.515
 1926TIP3   OH2 5722   3.397   0.212   4.285
 1926TIP3    H1 5723   3.335   0.263   4.232
 1926TIP3    H2 5724   3.483   0.234   4.248
 1927TIP3   OH2 5725   8.244   7.828   4.708
 1927TIP3    H1 5726   8.212   7.760   4.767
 1927TIP3    H2 5727   8.307   7.783   4.651
 1928TIP3   OH2 5728   0.151   7.751   4.523
 1928TIP3    H1 5729   0.175   7.724   4.612
 1928TIP3    H2 5730   0.056   7.743   4.521
 1929TIP3   OH2 5731   2.260   0.669   2.881
 1929TIP3    H1 5732   2.355   0.663   2.881
 1929TIP3    H2 5733   2.239   0.723   2.804
 1930TIP3   OH2 5734   1.650   0.651   3.506
 1930TIP3    H1 5735   1.588   0.586   3.475
 1930TIP3    H2 5736   1.699   0.607   3.576
 1931TIP3   OH2 5737   1.775   0.529   3.713
 1931TIP3    H1 5738   1.778   0.446   3.761
 1931TIP3    H2 5739   1.835   0.587   3.761
 1932TIP3   OH2 5740   3.523   0.907   3.505
 1932TIP3    H1 5741   3.544   0.944   3.591
 1932TIP3    H2 5742   3.576   0.957   3.444
 1933TIP3   OH2 5743   3.545   0.933   3.788
 1933TIP3    H1 5744   3.499   0.850   3.781
 1933TIP3    H2 5745   3.621   0.914   3.843
 1934TIP3   OH2 5746   3.594   0.613   4.362
 1934TIP3    H1 5747   3.521   0.621   4.424
 1934TIP3    H2 5748   3.636   0.699   4.363
 1935TIP3   OH2 5749   3.418   0.120   2.979
 1935TIP3    H1 5750   3.470   0.192   2.944
 1935TIP3    H2 5751   3.459   0.098   3.062
 1936TIP3   OH2 5752   0.740   7.936   3.158
 1936TIP3    H1 5753   0.664   7.929   3.215
 1936TIP3    H2 5754   0.797   7.999   3.202
 1937TIP3   OH2 5755   3.597   0.388   3.614
 1937TIP3    H1 5756   3.643   0.322   3.563
 1937TIP3    H2 5757   3.590   0.464   3.556
 1938TIP3   OH2 5758   3.418   0.685   3.807
 1938TIP3    H1 5759   3.349   0.729   3.857
 1938TIP3    H2 5760   3.371   0.641   3.736
 1939TIP3   OH2 5761   0.635   7.920   2.829
 1939TIP3    H1 5762   0.577   7.925   2.753
 1939TIP3    H2 5763   0.610   7.995   2.883
 1940TIP3   OH2 5764   0.504   7.572   2.779
 1940TIP3    H1 5765   0.491   7.652   2.728
 1940TIP3    H2 5766   0.415   7.540   2.795
 1941TIP3   OH2 5767   0.526   7.876   3.323
 1941TIP3    H1 5768   0.509   7.784   3.301
 1941TIP3    H2 5769   0.508   7.882   3.416
 1942TIP3   OH2 5770   7.642   7.931   4.071
 1942TIP3    H1 5771   7.636   7.908   3.978
 1942TIP3    H2 5772   7.736   7.934   4.088
 1943TIP3   OH2 5773   3.642   0.277   4.182
 1943TIP3    H1 5774   3.711   0.211   4.171
 1943TIP3    H2 5775   3.665   0.345   4.120
 1944TIP3   OH2 5776   3.819   0.071   4.196
 1944TIP3    H1 5777   3.745   0.021   4.231
 1944TIP3    H2 5778   3.895   0.016   4.213
 1945TIP3   OH2 5779   0.510   7.624   3.197
 1945TIP3    H1 5780   0.531   7.547   3.249
 1945TIP3    H2 5781   0.568   7.619   3.121
 1946TIP3   OH2 5782   0.673   7.758   3.724
 1946TIP3    H1 5783   0.756   7.780   3.681
 1946TIP3    H2 5784   0.683   7.793   3.813
 1947TIP3   OH2 5785   0.737   7.909   3.949
 1947TIP3    H1 5786   0.661   7.940   3.999
 1947TIP3    H2 5787   0.770   7.987   3.904
 1948TIP3   OH2 5788   7.860   7.615   4.738
 1948TIP3    H1 5789   7.954   7.617   4.756
 1948TIP3    H2 5790   7.830   7.534   4.779
 1949TIP3   OH2 5791   7.617   7.592   4.148
 1949TIP3    H1 5792   7.665   7.600   4.066
 1949TIP3    H2 5793   7.643   7.668   4.200
 1950TIP3   OH2 5794   3.110   0.780   3.162
 1950TIP3    H1 5795   3.154   0.770   3.077
 1950TIP3    H2 5796   3.151   0.856   3.202
 1951TIP3   OH2 5797   2.201   0.587   4.545
 1951TIP3    H1 5798   2.109   0.564   4.530
 1951TIP3    H2 5799   2.216   0.567   4.638
 1952TIP3   OH2 5800   2.383   0.623   4.089
 1952TIP3    H1 5801   2.331   0.696   4.054
 1952TIP3    H2 5802   2.469   0.634   4.047
 1953TIP3   OH2 5803   2.824   0.863   4.230
 1953TIP3    H1 5804   2.863   0.861   4.317
 1953TIP3    H2 5805   2.886   0.914   4.178
 1954TIP3   OH2 5806   3.003   1.018   4.092
 1954TIP3    H1 5807   3.069   0.967   4.045
 1954TIP3    H2 5808   3.052   1.074   4.151
 1955TIP3   OH2 5809   2.054   0.878   4.117
 1955TIP3    H1 5810   1.966   0.906   4.092
 1955TIP3    H2 5811   2.068   0.919   4.202
 1956TIP3   OH2 5812   2.291   0.857   3.975
 1956TIP3    H1 5813   2.206   0.868   4.019
 1956TIP3    H2 5814   2.275   0.886   3.885
 1957TIP3   OH2 5815   2.717   0.883   3.773
 1957TIP3    H1 5816   2.650   0.896   3.705
 1957TIP3    H2 5817   2.730   0.970   3.810
 1958TIP3   OH2 5818   2.986   0.821   3.824
 1958TIP3    H1 5819   2.893   0.837   3.806
 1958TIP3    H2 5820   3.032   0.891   3.777
 1959TIP3   OH2 5821   3.193   1.013   3.733
 1959TIP3    H1 5822   3.178   1.097   3.689
 1959TIP3    H2 5823   3.219   0.953   3.662
 1960TIP3   OH2 5824   1.969   0.667   3.861
 1960TIP3    H1 5825   1.991   0.642   3.950
 1960TIP3    H2 5826   2.038   0.627   3.807
 1961TIP3   OH2 5827   2.166   0.542   3.723
 1961TIP3    H1 5828   2.178   0.459   3.768
 1961TIP3    H2 5829   2.254   0.579   3.717
 1962TIP3   OH2 5830   2.432   0.634   3.726
 1962TIP3    H1 5831   2.460   0.544   3.710
 1962TIP3    H2 5832   2.477   0.659   3.807
 1963TIP3   OH2 5833   1.717   0.450   3.245
 1963TIP3    H1 5834   1.622   0.449   3.242
 1963TIP3    H2 5835   1.739   0.543   3.256
 1964TIP3   OH2 5836   2.524   0.644   2.841
 1964TIP3    H1 5837   2.597   0.696   2.808
 1964TIP3    H2 5838   2.532   0.560   2.795
 1965TIP3   OH2 5839   3.248   0.749   2.925
 1965TIP3    H1 5840   3.244   0.654   2.915
 1965TIP3    H2 5841   3.201   0.784   2.849
 1966TIP3   OH2 5842   3.468   0.893   4.112
 1966TIP3    H1 5843   3.393   0.860   4.062
 1966TIP3    H2 5844   3.452   0.987   4.120
 1967TIP3   OH2 5845   4.735   0.263   2.878
 1967TIP3    H1 5846   4.711   0.354   2.861
 1967TIP3    H2 5847   4.663   0.213   2.840
 1968TIP3   OH2 5848   4.741   0.266   3.263
 1968TIP3    H1 5849   4.772   0.246   3.351
 1968TIP3    H2 5850   4.698   0.186   3.234
 1969TIP3   OH2 5851   4.036   0.158   3.630
 1969TIP3    H1 5852   4.066   0.085   3.685
 1969TIP3    H2 5853   4.110   0.218   3.627
 1970TIP3   OH2 5854   4.985   0.568   2.946
 1970TIP3    H1 5855   4.968   0.502   3.013
 1970TIP3    H2 5856   5.013   0.646   2.995
 1971TIP3   OH2 5857   4.012   0.564   3.346
 1971TIP3    H1 5858   3.998   0.470   3.351
 1971TIP3    H2 5859   4.106   0.575   3.337
 1972TIP3   OH2 5860   3.786   0.068   3.280
 1972TIP3    H1 5861   3.827  -0.010   3.317
 1972TIP3    H2 5862   3.857   0.131   3.271
 1973TIP3   OH2 5863   4.635   1.029   2.959
 1973TIP3    H1 5864   4.676   0.959   2.908
 1973TIP3    H2 5865   4.623   0.991   3.046
 1974TIP3   OH2 5866   4.540   0.490   3.309
 1974TIP3    H1 5867   4.577   0.415   3.264
 1974TIP3    H2 5868   4.616   0.541   3.337
 1975TIP3   OH2 5869   2.118   8.004   3.355
 1975TIP3    H1 5870   2.143   7.915   3.382
 1975TIP3    H2 5871   2.084   7.993   3.267
 1976TIP3   OH2 5872   2.554   7.791   1.663
 1976TIP3    H1 5873   2.585   7.869   1.616
 1976TIP3    H2 5874   2.578   7.718   1.606
 1977TIP3   OH2 5875   2.112   7.777   2.978
 1977TIP3    H1 5876   2.169   7.734   3.042
 1977TIP3    H2 5877   2.165   7.783   2.898
 1978TIP3   OH2 5878   1.068   7.855   3.393
 1978TIP3    H1 5879   1.149   7.884   3.434
 1978TIP3    H2 5880   1.085   7.765   3.367
 1979TIP3   OH2 5881   4.361   0.051   3.209
 1979TIP3    H1 5882   4.454   0.033   3.226
 1979TIP3    H2 5883   4.325  -0.035   3.185
 1980TIP3   OH2 5884   5.583   0.003   3.511
 1980TIP3    H1 5885   5.512   0.056   3.474
 1980TIP3    H2 5886   5.647   0.067   3.541
 1981TIP3   OH2 5887   4.625   0.486   2.746
 1981TIP3    H1 5888   4.589   0.473   2.659
 1981TIP3    H2 5889   4.584   0.567   2.777
 1982TIP3   OH2 5890   4.390   0.413   3.531
 1982TIP3    H1 5891   4.332   0.479   3.569
 1982TIP3    H2 5892   4.433   0.458   3.458
 1983TIP3   OH2 5893   1.315   7.845   3.487
 1983TIP3    H1 5894   1.390   7.882   3.533
 1983TIP3    H2 5895   1.339   7.754   3.470
 1984TIP3   OH2 5896   4.218   0.610   3.632
 1984TIP3    H1 5897   4.198   0.695   3.594
 1984TIP3    H2 5898   4.142   0.589   3.686
 1985TIP3   OH2 5899   3.608   0.296   2.869
 1985TIP3    H1 5900   3.569   0.320   2.785
 1985TIP3    H2 5901   3.638   0.380   2.906
 1986TIP3   OH2 5902   5.049   0.814   3.106
 1986TIP3    H1 5903   4.964   0.802   3.147
 1986TIP3    H2 5904   5.044   0.898   3.062
 1987TIP3   OH2 5905   4.754   0.855   2.778
 1987TIP3    H1 5906   4.799   0.772   2.761
 1987TIP3    H2 5907   4.812   0.922   2.742
 1988TIP3   OH2 5908   4.896   0.638   2.694
 1988TIP3    H1 5909   4.859   0.560   2.654
 1988TIP3    H2 5910   4.934   0.607   2.776
 1989TIP3   OH2 5911   5.276   0.722   3.451
 1989TIP3    H1 5912   5.264   0.645   3.394
 1989TIP3    H2 5913   5.258   0.797   3.394
 1990TIP3   OH2 5914   4.569   0.123   2.707
 1990TIP3    H1 5915   4.490   0.174   2.690
 1990TIP3    H2 5916   4.613   0.116   2.622
 1991TIP3   OH2 5917   1.694   7.913   2.429
 1991TIP3    H1 5918   1.762   7.966   2.469
 1991TIP3    H2 5919   1.742   7.848   2.378
 1992TIP3   OH2 5920   5.473   0.368   3.297
 1992TIP3    H1 5921   5.390   0.415   3.303
 1992TIP3    H2 5922   5.505   0.387   3.209
 1993TIP3   OH2 5923   4.916   0.200   2.682
 1993TIP3    H1 5924   4.860   0.224   2.756
 1993TIP3    H2 5925   5.001   0.181   2.721
 1994TIP3   OH2 5926   5.147   0.240   3.601
 1994TIP3    H1 5927   5.147   0.321   3.653
 1994TIP3    H2 5928   5.064   0.242   3.555
 1995TIP3   OH2 5929   4.152   0.195   3.100
 1995TIP3    H1 5930   4.110   0.136   3.038
 1995TIP3    H2 5931   4.229   0.147   3.130
 1996TIP3   OH2 5932   4.278   0.601   3.247
 1996TIP3    H1 5933   4.261   0.576   3.156
 1996TIP3    H2 5934   4.366   0.568   3.264
 1997TIP3   OH2 5935   4.284   0.169   3.454
 1997TIP3    H1 5936   4.317   0.141   3.368
 1997TIP3    H2 5937   4.329   0.252   3.471
 1998TIP3   OH2 5938   4.813   0.806   3.232
 1998TIP3    H1 5939   4.798   0.887   3.281
 1998TIP3    H2 5940   4.794   0.736   3.295
 1999TIP3   OH2 5941   4.422   0.723   3.778
 1999TIP3    H1 5942   4.366   0.785   3.824
 1999TIP3    H2 5943   4.362   0.670   3.726
 2000TIP3   OH2 5944   4.757   0.057   2.506
 2000TIP3    H1 5945   4.812   0.118   2.556
 2000TIP3    H2 5946   4.781   0.074   2.415
 2001TIP3   OH2 5947   4.168   0.290   3.875
 2001TIP3    H1 5948   4.177   0.375   3.920
 2001TIP3    H2 5949   4.078   0.264   3.892
 2002TIP3   OH2 5950   4.504   0.734   2.784
 2002TIP3    H1 5951   4.584   0.786   2.792
 2002TIP3    H2 5952   4.442   0.794   2.741
 2003TIP3   OH2 5953   4.216   0.889   3.864
 2003TIP3    H1 5954   4.184   0.894   3.775
 2003TIP3    H2 5955   4.139   0.868   3.917
 2004TIP3   OH2 5956   4.008   0.031   2.905
 2004TIP3    H1 5957   3.950   0.094   2.863
 2004TIP3    H2 5958   3.986  -0.053   2.866
 2005TIP3   OH2 5959   5.074   0.666   2.105
 2005TIP3    H1 5960   5.079   0.760   2.090
 2005TIP3    H2 5961   5.164   0.635   2.096
 2006TIP3   OH2 5962   3.796   0.423   3.811
 2006TIP3    H1 5963   3.728   0.406   3.746
 2006TIP3    H2 5964   3.833   0.336   3.830
 2007TIP3   OH2 5965   3.652   0.617   3.449
 2007TIP3    H1 5966   3.747   0.621   3.438
 2007TIP3    H2 5967   3.630   0.698   3.496
 2008TIP3   OH2 5968   5.513   1.069   3.503
 2008TIP3    H1 5969   5.514   0.974   3.517
 2008TIP3    H2 5970   5.433   1.098   3.546
 2009TIP3   OH2 5971   4.619   0.853   3.637
 2009TIP3    H1 5972   4.619   0.944   3.666
 2009TIP3    H2 5973   4.550   0.811   3.688
 2010TIP3   OH2 5974   4.386   0.982   2.586
 2010TIP3    H1 5975   4.339   0.964   2.505
 2010TIP3    H2 5976   4.352   1.067   2.615
 2011TIP3   OH2 5977   3.821   0.830   2.973
 2011TIP3    H1 5978   3.868   0.823   3.056
 2011TIP3    H2 5979   3.758   0.759   2.975
 2012TIP3   OH2 5980   4.586   0.884   2.225
 2012TIP3    H1 5981   4.642   0.816   2.188
 2012TIP3    H2 5982   4.618   0.896   2.314
 2013TIP3   OH2 5983   4.635   0.933   2.495
 2013TIP3    H1 5984   4.547   0.943   2.532
 2013TIP3    H2 5985   4.687   0.897   2.567
 2014TIP3   OH2 5986   5.402   0.182   3.778
 2014TIP3    H1 5987   5.325   0.219   3.733
 2014TIP3    H2 5988   5.394   0.088   3.764
 2015TIP3   OH2 5989   4.001   0.605   3.796
 2015TIP3    H1 5990   4.050   0.593   3.877
 2015TIP3    H2 5991   3.927   0.544   3.802
 2016TIP3   OH2 5992   5.174  -0.017   3.721
 2016TIP3    H1 5993   5.147   0.016   3.806
 2016TIP3    H2 5994   5.157   0.056   3.661
 2017TIP3   OH2 5995   4.838   0.096   2.251
 2017TIP3    H1 5996   4.796   0.078   2.167
 2017TIP3    H2 5997   4.917   0.145   2.229
 2018TIP3   OH2 5998   1.520   7.975   3.620
 2018TIP3    H1 5999   1.460   7.986   3.694
 2018TIP3    H2 6000   1.501   8.049   3.562
 2019TIP3   OH2 6001   1.399   7.835   3.119
 2019TIP3    H1 6002   1.306   7.858   3.117
 2019TIP3    H2 6003   1.420   7.810   3.029
 2020TIP3   OH2 6004   1.865   7.935   2.842
 2020TIP3    H1 6005   1.820   8.007   2.798
 2020TIP3    H2 6006   1.931   7.907   2.779
 2021TIP3   OH2 6007   4.891   0.219   3.914
 2021TIP3    H1 6008   4.864   0.142   3.963
 2021TIP3    H2 6009   4.983   0.231   3.937
 2022TIP3   OH2 6010   2.009   7.997   3.100
 2022TIP3    H1 6011   1.957   8.048   3.038
 2022TIP3    H2 6012   2.032   7.917   3.052
 2023TIP3   OH2 6013   1.321   7.993   3.813
 2023TIP3    H1 6014   1.337   8.058   3.881
 2023TIP3    H2 6015   1.301   7.912   3.860
 2024TIP3   OH2 6016   0.929   7.667   2.978
 2024TIP3    H1 6017   0.994   7.665   2.908
 2024TIP3    H2 6018   0.860   7.607   2.949
 2025TIP3   OH2 6019   4.867   0.193   3.506
 2025TIP3    H1 6020   4.905   0.127   3.448
 2025TIP3    H2 6021   4.841   0.144   3.584
 2026TIP3   OH2 6022   1.425   7.745   2.869
 2026TIP3    H1 6023   1.516   7.731   2.843
 2026TIP3    H2 6024   1.375   7.732   2.788
 2027TIP3   OH2 6025   1.254   7.731   2.645
 2027TIP3    H1 6026   1.186   7.703   2.584
 2027TIP3    H2 6027   1.317   7.778   2.591
 2028TIP3   OH2 6028   5.211   1.419   3.599
 2028TIP3    H1 6029   5.205   1.444   3.507
 2028TIP3    H2 6030   5.287   1.466   3.633
 2029TIP3   OH2 6031   4.163   0.530   4.022
 2029TIP3    H1 6032   4.244   0.558   4.066
 2029TIP3    H2 6033   4.097   0.530   4.092
 2030TIP3   OH2 6034   1.782   7.995   3.278
 2030TIP3    H1 6035   1.865   7.972   3.237
 2030TIP3    H2 6036   1.787   7.959   3.367
 2031TIP3   OH2 6037   1.785   7.914   3.542
 2031TIP3    H1 6038   1.696   7.926   3.576
 2031TIP3    H2 6039   1.841   7.960   3.604
 2032TIP3   OH2 6040   4.337   0.268   2.661
 2032TIP3    H1 6041   4.265   0.207   2.645
 2032TIP3    H2 6042   4.320   0.304   2.748
 2033TIP3   OH2 6043   5.237   0.505   3.284
 2033TIP3    H1 6044   5.262   0.556   3.207
 2033TIP3    H2 6045   5.154   0.464   3.260
 2034TIP3   OH2 6046   1.938   7.666   2.483
 2034TIP3    H1 6047   1.881   7.615   2.540
 2034TIP3    H2 6048   1.977   7.732   2.541
 2035TIP3   OH2 6049   4.735   0.588   3.659
 2035TIP3    H1 6050   4.769   0.574   3.747
 2035TIP3    H2 6051   4.699   0.677   3.661
 2036TIP3   OH2 6052   2.042   7.861   2.642
 2036TIP3    H1 6053   2.137   7.871   2.651
 2036TIP3    H2 6054   2.015   7.936   2.590
 2037TIP3   OH2 6055   4.018   0.260   3.331
 2037TIP3    H1 6056   4.064   0.251   3.248
 2037TIP3    H2 6057   4.079   0.226   3.397
 2038TIP3   OH2 6058   4.484   0.421   2.485
 2038TIP3    H1 6059   4.438   0.505   2.485
 2038TIP3    H2 6060   4.432   0.366   2.543
 2039TIP3   OH2 6061   3.914   0.207   3.951
 2039TIP3    H1 6062   3.931   0.195   4.044
 2039TIP3    H2 6063   3.842   0.147   3.932
 2040TIP3   OH2 6064   4.641   0.329   3.970
 2040TIP3    H1 6065   4.579   0.277   3.921
 2040TIP3    H2 6066   4.727   0.302   3.938
 2041TIP3   OH2 6067   4.896   0.844   3.558
 2041TIP3    H1 6068   4.801   0.845   3.567
 2041TIP3    H2 6069   4.928   0.898   3.631
 2042TIP3   OH2 6070   2.472   7.936   2.445
 2042TIP3    H1 6071   2.414   7.883   2.389
 2042TIP3    H2 6072   2.460   8.026   2.414
 2043TIP3   OH2 6073   5.526   0.778   3.539
 2043TIP3    H1 6074   5.430   0.774   3.533
 2043TIP3    H2 6075   5.555   0.750   3.452
 2044TIP3   OH2 6076   5.015   0.738   2.371
 2044TIP3    H1 6077   4.981   0.671   2.431
 2044TIP3    H2 6078   5.023   0.694   2.287
 2045TIP3   OH2 6079   5.003   0.369   3.202
 2045TIP3    H1 6080   4.911   0.347   3.217
 2045TIP3    H2 6081   5.039   0.293   3.157
 2046TIP3   OH2 6082   4.134   0.600   2.960
 2046TIP3    H1 6083   4.136   0.679   2.906
 2046TIP3    H2 6084   4.041   0.582   2.974
 2047TIP3   OH2 6085   0.869   7.922   2.672
 2047TIP3    H1 6086   0.914   8.006   2.685
 2047TIP3    H2 6087   0.787   7.931   2.721
 2048TIP3   OH2 6088   4.262   0.361   2.903
 2048TIP3    H1 6089   4.232   0.450   2.918
 2048TIP3    H2 6090   4.231   0.311   2.978
 2049TIP3   OH2 6091   4.406   0.940   3.427
 2049TIP3    H1 6092   4.444   1.013   3.377
 2049TIP3    H2 6093   4.480   0.903   3.475
 2050TIP3   OH2 6094   4.053   0.835   2.815
 2050TIP3    H1 6095   3.968   0.843   2.857
 2050TIP3    H2 6096   4.089   0.924   2.815
 2051TIP3   OH2 6097   4.788   0.572   3.392
 2051TIP3    H1 6098   4.775   0.572   3.487
 2051TIP3    H2 6099   4.869   0.523   3.378
 2052TIP3   OH2 6100   4.768   0.466   2.274
 2052TIP3    H1 6101   4.820   0.443   2.351
 2052TIP3    H2 6102   4.678   0.442   2.298
 2053TIP3   OH2 6103   5.036   1.104   3.433
 2053TIP3    H1 6104   4.957   1.051   3.429
 2053TIP3    H2 6105   5.025   1.170   3.365
 2054TIP3   OH2 6106   5.102   0.942   2.090
 2054TIP3    H1 6107   5.137   1.008   2.030
 2054TIP3    H2 6108   5.025   0.982   2.128
 2055TIP3   OH2 6109   4.930   0.398   2.488
 2055TIP3    H1 6110   4.916   0.334   2.557
 2055TIP3    H2 6111   5.024   0.398   2.473
 2056TIP3   OH2 6112   3.845   0.800   3.587
 2056TIP3    H1 6113   3.897   0.731   3.627
 2056TIP3    H2 6114   3.866   0.878   3.637
 2057TIP3   OH2 6115   4.133   0.444   2.272
 2057TIP3    H1 6116   4.145   0.354   2.245
 2057TIP3    H2 6117   4.111   0.439   2.365
 2058TIP3   OH2 6118   4.079   0.453   2.543
 2058TIP3    H1 6119   4.152   0.431   2.601
 2058TIP3    H2 6120   4.074   0.549   2.547
 2059TIP3   OH2 6121   3.808   0.151   2.749
 2059TIP3    H1 6122   3.743   0.195   2.804
 2059TIP3    H2 6123   3.824   0.213   2.677
 2060TIP3   OH2 6124   4.341   0.651   2.491
 2060TIP3    H1 6125   4.255   0.671   2.528
 2060TIP3    H2 6126   4.360   0.725   2.433
 2061TIP3   OH2 6127   1.706   7.718   2.871
 2061TIP3    H1 6128   1.754   7.801   2.859
 2061TIP3    H2 6129   1.737   7.686   2.956
 2062TIP3   OH2 6130   4.812   0.031   3.716
 2062TIP3    H1 6131   4.806   0.096   3.786
 2062TIP3    H2 6132   4.865  -0.040   3.752
 2063TIP3   OH2 6133   4.086   0.724   2.562
 2063TIP3    H1 6134   4.059   0.791   2.498
 2063TIP3    H2 6135   4.071   0.766   2.647
 2064TIP3   OH2 6136   5.092   0.126   3.084
 2064TIP3    H1 6137   5.013   0.077   3.105
 2064TIP3    H2 6138   5.161   0.081   3.132
 2065TIP3   OH2 6139   3.806   0.349   2.551
 2065TIP3    H1 6140   3.862   0.426   2.561
 2065TIP3    H2 6141   3.849   0.296   2.485
 2066TIP3   OH2 6142   0.902   7.649   2.700
 2066TIP3    H1 6143   0.911   7.742   2.678
 2066TIP3    H2 6144   0.836   7.616   2.639
 2067TIP3   OH2 6145   5.062   1.084   3.028
 2067TIP3    H1 6146   5.016   1.128   2.956
 2067TIP3    H2 6147   5.155   1.098   3.009
 2068TIP3   OH2 6148   3.663   0.559   2.932
 2068TIP3    H1 6149   3.607   0.593   3.002
 2068TIP3    H2 6150   3.635   0.605   2.853
 2069TIP3   OH2 6151   3.835   1.115   4.013
 2069TIP3    H1 6152   3.920   1.118   4.059
 2069TIP3    H2 6153   3.813   1.022   4.009
 2070TIP3   OH2 6154   4.309   1.068   4.056
 2070TIP3    H1 6155   4.404   1.058   4.062
 2070TIP3    H2 6156   4.283   1.010   3.986
 2071TIP3   OH2 6157   4.294   0.647   2.180
 2071TIP3    H1 6158   4.238   0.580   2.218
 2071TIP3    H2 6159   4.369   0.599   2.146
 2072TIP3   OH2 6160   4.953   0.981   3.790
 2072TIP3    H1 6161   4.945   0.913   3.857
 2072TIP3    H2 6162   5.027   1.034   3.818
 2073TIP3   OH2 6163   4.730   0.687   2.095
 2073TIP3    H1 6164   4.772   0.625   2.154
 2073TIP3    H2 6165   4.783   0.685   2.015
 2074TIP3   OH2 6166   3.960   0.516   4.210
 2074TIP3    H1 6167   3.976   0.422   4.218
 2074TIP3    H2 6168   3.876   0.523   4.165
 2075TIP3   OH2 6169   3.945   0.163   2.407
 2075TIP3    H1 6170   4.001   0.140   2.482
 2075TIP3    H2 6171   4.005   0.170   2.334
 2076TIP3   OH2 6172   4.568   0.604   3.984
 2076TIP3    H1 6173   4.527   0.626   3.900
 2076TIP3    H2 6174   4.598   0.514   3.974
 2077TIP3   OH2 6175   4.457   0.366   2.216
 2077TIP3    H1 6176   4.456   0.382   2.310
 2077TIP3    H2 6177   4.458   0.271   2.208
 2078TIP3   OH2 6178   5.060   0.618   3.591
 2078TIP3    H1 6179   5.137   0.657   3.549
 2078TIP3    H2 6180   4.991   0.683   3.578
 2079TIP3   OH2 6181   4.088   0.251   4.196
 2079TIP3    H1 6182   4.169   0.208   4.170
 2079TIP3    H2 6183   4.108   0.287   4.283
 2080TIP3   OH2 6184   4.144   0.071   2.622
 2080TIP3    H1 6185   4.133   0.030   2.707
 2080TIP3    H2 6186   4.183   0.003   2.567
 2081TIP3   OH2 6187   4.415   0.169   3.852
 2081TIP3    H1 6188   4.333   0.218   3.847
 2081TIP3    H2 6189   4.462   0.193   3.772
 2082TIP3   OH2 6190   1.415   7.878   2.471
 2082TIP3    H1 6191   1.387   7.884   2.380
 2082TIP3    H2 6192   1.511   7.881   2.467
 2083TIP3   OH2 6193   4.936   0.539   3.988
 2083TIP3    H1 6194   5.008   0.506   3.935
 2083TIP3    H2 6195   4.924   0.473   4.056
 2084TIP3   OH2 6196   5.066   0.193   2.130
 2084TIP3    H1 6197   5.051   0.147   2.047
 2084TIP3    H2 6198   5.036   0.282   2.114
 2085TIP3   OH2 6199   1.668   7.960   3.971
 2085TIP3    H1 6200   1.620   7.898   3.915
 2085TIP3    H2 6201   1.645   8.046   3.937
 2086TIP3   OH2 6202   4.577   0.253   3.653
 2086TIP3    H1 6203   4.661   0.265   3.608
 2086TIP3    H2 6204   4.518   0.315   3.610
 2087TIP3   OH2 6205   5.143   0.215   4.021
 2087TIP3    H1 6206   5.175   0.159   4.092
 2087TIP3    H2 6207   5.218   0.269   3.997
 2088TIP3   OH2 6208   5.192   0.469   3.772
 2088TIP3    H1 6209   5.131   0.521   3.719
 2088TIP3    H2 6210   5.279   0.491   3.736
 2089TIP3   OH2 6211   4.382   0.068   4.204
 2089TIP3    H1 6212   4.341  -0.009   4.244
 2089TIP3    H2 6213   4.442   0.032   4.138
 2090TIP3   OH2 6214   1.946   8.010   4.013
 2090TIP3    H1 6215   1.971   7.980   4.100
 2090TIP3    H2 6216   1.851   8.000   4.010
 2091TIP3   OH2 6217   4.058   0.922   2.371
 2091TIP3    H1 6218   4.151   0.921   2.351
 2091TIP3    H2 6219   4.018   0.974   2.301
 2092TIP3   OH2 6220   3.538   0.303   2.593
 2092TIP3    H1 6221   3.628   0.329   2.576
 2092TIP3    H2 6222   3.527   0.221   2.545
 2093TIP3   OH2 6223   3.454   0.918   3.003
 2093TIP3    H1 6224   3.387   0.863   2.962
 2093TIP3    H2 6225   3.497   0.859   3.066
 2094TIP3   OH2 6226   3.593   0.763   3.188
 2094TIP3    H1 6227   3.570   0.698   3.254
 2094TIP3    H2 6228   3.641   0.830   3.237
 2095TIP3   OH2 6229   5.321   1.163   2.993
 2095TIP3    H1 6230   5.337   1.197   3.081
 2095TIP3    H2 6231   5.368   1.224   2.935
 2096TIP3   OH2 6232   5.341   1.188   3.273
 2096TIP3    H1 6233   5.296   1.104   3.269
 2096TIP3    H2 6234   5.416   1.173   3.332
 2097TIP3   OH2 6235   5.390   0.869   3.848
 2097TIP3    H1 6236   5.317   0.878   3.910
 2097TIP3    H2 6237   5.432   0.955   3.848
 2098TIP3   OH2 6238   5.208   0.381   2.463
 2098TIP3    H1 6239   5.269   0.448   2.431
 2098TIP3    H2 6240   5.250   0.345   2.541
 2099TIP3   OH2 6241   5.332   0.254   2.669
 2099TIP3    H1 6242   5.265   0.217   2.726
 2099TIP3    H2 6243   5.395   0.294   2.728
 2100TIP3   OH2 6244   5.391   0.644   3.099
 2100TIP3    H1 6245   5.441   0.576   3.054
 2100TIP3    H2 6246   5.384   0.715   3.036
 2101TIP3   OH2 6247   5.214   0.941   3.294
 2101TIP3    H1 6248   5.146   0.985   3.345
 2101TIP3    H2 6249   5.167   0.897   3.223
 2102TIP3   OH2 6250   5.260   0.158   2.314
 2102TIP3    H1 6251   5.196   0.162   2.244
 2102TIP3    H2 6252   5.239   0.232   2.371
 2103TIP3   OH2 6253   2.300   7.830   2.254
 2103TIP3    H1 6254   2.280   7.909   2.203
 2103TIP3    H2 6255   2.252   7.760   2.210
 2104TIP3   OH2 6256   5.144   0.121   2.812
 2104TIP3    H1 6257   5.147   0.028   2.788
 2104TIP3    H2 6258   5.132   0.120   2.907
 2105TIP3   OH2 6259   3.775   0.174   3.557
 2105TIP3    H1 6260   3.775   0.159   3.462
 2105TIP3    H2 6261   3.868   0.176   3.580
 2106TIP3   OH2 6262   5.438   0.533   3.669
 2106TIP3    H1 6263   5.507   0.468   3.659
 2106TIP3    H2 6264   5.460   0.602   3.607
 2107TIP3   OH2 6265   5.615   0.328   3.685
 2107TIP3    H1 6266   5.542   0.278   3.721
 2107TIP3    H2 6267   5.692   0.273   3.701
 2108TIP3   OH2 6268   2.314   7.884   2.681
 2108TIP3    H1 6269   2.340   7.808   2.732
 2108TIP3    H2 6270   2.374   7.885   2.607
 2109TIP3   OH2 6271   5.302   0.002   3.212
 2109TIP3    H1 6272   5.384   0.022   3.167
 2109TIP3    H2 6273   5.314   0.036   3.300
 2110TIP3   OH2 6274   5.367   0.154   3.436
 2110TIP3    H1 6275   5.290   0.186   3.483
 2110TIP3    H2 6276   5.401   0.230   3.389
 2111TIP3   OH2 6277   1.152   7.873   4.238
 2111TIP3    H1 6278   1.244   7.852   4.224
 2111TIP3    H2 6279   1.114   7.793   4.275
 2112TIP3   OH2 6280   0.917   7.847   3.635
 2112TIP3    H1 6281   0.962   7.855   3.551
 2112TIP3    H2 6282   0.939   7.928   3.682
 2113TIP3   OH2 6283   4.901   1.038   2.646
 2113TIP3    H1 6284   4.949   1.028   2.564
 2113TIP3    H2 6285   4.946   1.108   2.693
 2114TIP3   OH2 6286   3.996   0.841   4.029
 2114TIP3    H1 6287   3.904   0.820   4.013
 2114TIP3    H2 6288   4.008   0.828   4.123
 2115TIP3   OH2 6289   4.180   0.881   3.575
 2115TIP3    H1 6290   4.128   0.953   3.541
 2115TIP3    H2 6291   4.265   0.891   3.533
 2116TIP3   OH2 6292   4.620   1.120   3.715
 2116TIP3    H1 6293   4.658   1.118   3.803
 2116TIP3    H2 6294   4.682   1.171   3.663
 2117TIP3   OH2 6295   4.800   1.274   3.579
 2117TIP3    H1 6296   4.868   1.224   3.534
 2117TIP3    H2 6297   4.847   1.331   3.639
 2118TIP3   OH2 6298   3.849   1.132   3.607
 2118TIP3    H1 6299   3.762   1.160   3.580
 2118TIP3    H2 6300   3.866   1.180   3.687
 2119TIP3   OH2 6301   4.086   1.112   3.460
 2119TIP3    H1 6302   4.002   1.123   3.505
 2119TIP3    H2 6303   4.070   1.144   3.372
 2120TIP3   OH2 6304   4.513   1.139   3.260
 2120TIP3    H1 6305   4.444   1.154   3.194
 2120TIP3    H2 6306   4.526   1.225   3.300
 2121TIP3   OH2 6307   4.782   1.077   3.310
 2121TIP3    H1 6308   4.689   1.094   3.293
 2121TIP3    H2 6309   4.828   1.150   3.267
 2122TIP3   OH2 6310   4.988   1.268   3.221
 2122TIP3    H1 6311   4.974   1.353   3.177
 2122TIP3    H2 6312   5.014   1.209   3.150
 2123TIP3   OH2 6313   3.766   0.924   3.345
 2123TIP3    H1 6314   3.786   0.899   3.435
 2123TIP3    H2 6315   3.835   0.884   3.293
 2124TIP3   OH2 6316   3.961   0.796   3.207
 2124TIP3    H1 6317   3.974   0.715   3.255
 2124TIP3    H2 6318   4.048   0.835   3.202
 2125TIP3   OH2 6319   4.226   0.889   3.213
 2125TIP3    H1 6320   4.256   0.800   3.198
 2125TIP3    H2 6321   4.271   0.917   3.293
 2126TIP3   OH2 6322   3.548   0.706   2.736
 2126TIP3    H1 6323   3.463   0.673   2.707
 2126TIP3    H2 6324   3.549   0.797   2.706
 2127TIP3   OH2 6325   4.327   0.881   2.318
 2127TIP3    H1 6326   4.413   0.908   2.284
 2127TIP3    H2 6327   4.301   0.809   2.261
 2128TIP3   OH2 6328   5.045   1.005   2.412
 2128TIP3    H1 6329   5.039   0.910   2.404
 2128TIP3    H2 6330   4.998   1.039   2.336
 2129TIP3   OH2 6331   3.626   0.705   2.375
 2129TIP3    H1 6332   3.624   0.759   2.454
 2129TIP3    H2 6333   3.716   0.674   2.368
 2130TIP3   OH2 6334   5.265   1.150   3.597
 2130TIP3    H1 6335   5.189   1.117   3.549
 2130TIP3    H2 6336   5.250   1.244   3.606
 2131TIP3   OH2 6337   6.526   0.514   2.374
 2131TIP3    H1 6338   6.502   0.606   2.362
 2131TIP3    H2 6339   6.456   0.465   2.331
 2132TIP3   OH2 6340   6.532   0.519   2.752
 2132TIP3    H1 6341   6.567   0.502   2.839
 2132TIP3    H2 6342   6.490   0.436   2.726
 2133TIP3   OH2 6343   5.833   0.416   3.112
 2133TIP3    H1 6344   5.858   0.345   3.171
 2133TIP3    H2 6345   5.913   0.468   3.102
 2134TIP3   OH2 6346   6.778   0.827   2.438
 2134TIP3    H1 6347   6.771   0.759   2.505
 2134TIP3    H2 6348   6.810   0.904   2.485
 2135TIP3   OH2 6349   5.818   0.818   2.832
 2135TIP3    H1 6350   5.801   0.725   2.817
 2135TIP3    H2 6351   5.884   0.820   2.900
 2136TIP3   OH2 6352   5.498   0.040   2.629
 2136TIP3    H1 6353   5.448   0.120   2.646
 2136TIP3    H2 6354   5.438  -0.015   2.579
 2137TIP3   OH2 6355   5.565   0.325   2.795
 2137TIP3    H1 6356   5.604   0.244   2.827
 2137TIP3    H2 6357   5.629   0.360   2.733
 2138TIP3   OH2 6358   6.424   1.278   2.451
 2138TIP3    H1 6359   6.466   1.210   2.398
 2138TIP3    H2 6360   6.449   1.257   2.541
 2139TIP3   OH2 6361   6.347   0.736   2.801
 2139TIP3    H1 6362   6.387   0.660   2.757
 2139TIP3    H2 6363   6.421   0.793   2.823
 2140TIP3   OH2 6364   6.746   0.244   2.837
 2140TIP3    H1 6365   6.773   0.159   2.872
 2140TIP3    H2 6366   6.716   0.225   2.748
 2141TIP3   OH2 6367   3.233   7.883   2.766
 2141TIP3    H1 6368   3.209   7.970   2.736
 2141TIP3    H2 6369   3.160   7.827   2.740
 2142TIP3   OH2 6370   0.698   2.581   2.031
 2142TIP3    H1 6371   0.745   2.524   2.091
 2142TIP3    H2 6372   0.700   2.535   1.947
 2143TIP3   OH2 6373   5.695   0.107   2.889
 2143TIP3    H1 6374   5.783   0.114   2.927
 2143TIP3    H2 6375   5.707   0.048   2.814
 2144TIP3   OH2 6376   6.157   0.310   2.697
 2144TIP3    H1 6377   6.249   0.288   2.711
 2144TIP3    H2 6378   6.115   0.226   2.677
 2145TIP3   OH2 6379   7.377   0.259   2.993
 2145TIP3    H1 6380   7.304   0.314   2.963
 2145TIP3    H2 6381   7.443   0.320   3.024
 2146TIP3   OH2 6382   6.404   0.726   2.240
 2146TIP3    H1 6383   6.391   0.714   2.146
 2146TIP3    H2 6384   6.421   0.820   2.250
 2147TIP3   OH2 6385   6.188   0.671   3.015
 2147TIP3    H1 6386   6.131   0.739   3.050
 2147TIP3    H2 6387   6.233   0.712   2.942
 2148TIP3   OH2 6388   5.951   0.077   2.958
 2148TIP3    H1 6389   6.017   0.122   3.011
 2148TIP3    H2 6390   5.979  -0.015   2.959
 2149TIP3   OH2 6391   6.005   0.867   3.106
 2149TIP3    H1 6392   5.991   0.959   3.084
 2149TIP3    H2 6393   5.934   0.846   3.167
 2150TIP3   OH2 6394   5.406   0.555   2.355
 2150TIP3    H1 6395   5.365   0.577   2.271
 2150TIP3    H2 6396   5.435   0.639   2.390
 2151TIP3   OH2 6397   6.838   1.065   2.587
 2151TIP3    H1 6398   6.753   1.057   2.630
 2151TIP3    H2 6399   6.840   1.154   2.553
 2152TIP3   OH2 6400   6.528   1.106   2.254
 2152TIP3    H1 6401   6.577   1.025   2.240
 2152TIP3    H2 6402   6.589   1.175   2.225
 2153TIP3   OH2 6403   6.672   0.889   2.192
 2153TIP3    H1 6404   6.680   0.813   2.134
 2153TIP3    H2 6405   6.717   0.862   2.273
 2154TIP3   OH2 6406   7.046   0.975   2.941
 2154TIP3    H1 6407   7.064   0.910   2.874
 2154TIP3    H2 6408   7.115   1.040   2.932
 2155TIP3   OH2 6409   6.362   0.376   2.194
 2155TIP3    H1 6410   6.290   0.433   2.167
 2155TIP3    H2 6411   6.411   0.360   2.113
 2156TIP3   OH2 6412   7.267   0.606   2.776
 2156TIP3    H1 6413   7.186   0.658   2.784
 2156TIP3    H2 6414   7.307   0.637   2.695
 2157TIP3   OH2 6415   6.708   0.453   2.181
 2157TIP3    H1 6416   6.663   0.477   2.262
 2157TIP3    H2 6417   6.797   0.433   2.208
 2158TIP3   OH2 6418   6.942   0.497   3.088
 2158TIP3    H1 6419   6.944   0.578   3.140
 2158TIP3    H2 6420   6.859   0.501   3.042
 2159TIP3   OH2 6421   5.952   0.451   2.580
 2159TIP3    H1 6422   5.912   0.392   2.516
 2159TIP3    H2 6423   6.024   0.401   2.618
 2160TIP3   OH2 6424   6.084   0.424   2.945
 2160TIP3    H1 6425   6.115   0.396   2.859
 2160TIP3    H2 6426   6.128   0.508   2.960
 2161TIP3   OH2 6427   6.599   1.062   2.713
 2161TIP3    H1 6428   6.593   1.143   2.764
 2161TIP3    H2 6429   6.590   0.992   2.778
 2162TIP3   OH2 6430   6.218   0.981   3.263
 2162TIP3    H1 6431   6.161   1.042   3.310
 2162TIP3    H2 6432   6.158   0.927   3.212
 2163TIP3   OH2 6433   6.565   0.297   2.009
 2163TIP3    H1 6434   6.622   0.350   2.064
 2163TIP3    H2 6435   6.596   0.313   1.920
 2164TIP3   OH2 6436   5.965   0.549   3.362
 2164TIP3    H1 6437   5.973   0.632   3.409
 2164TIP3    H2 6438   5.875   0.522   3.377
 2165TIP3   OH2 6439   6.252   1.046   2.298
 2165TIP3    H1 6440   6.346   1.054   2.316
 2165TIP3    H2 6441   6.242   1.081   2.209
 2166TIP3   OH2 6442   6.011   1.145   3.351
 2166TIP3    H1 6443   5.977   1.152   3.262
 2166TIP3    H2 6444   5.934   1.125   3.405
 2167TIP3   OH2 6445   5.815   0.295   2.376
 2167TIP3    H1 6446   5.745   0.342   2.330
 2167TIP3    H2 6447   5.773   0.216   2.411
 2168TIP3   OH2 6448   6.808   0.942   1.648
 2168TIP3    H1 6449   6.843   1.027   1.620
 2168TIP3    H2 6450   6.878   0.880   1.630
 2169TIP3   OH2 6451   5.592   0.680   3.296
 2169TIP3    H1 6452   5.525   0.661   3.231
 2169TIP3    H2 6453   5.630   0.595   3.318
 2170TIP3   OH2 6454   5.444   0.877   2.932
 2170TIP3    H1 6455   5.539   0.879   2.934
 2170TIP3    H2 6456   5.417   0.955   2.981
 2171TIP3   OH2 6457   6.414   1.114   3.123
 2171TIP3    H1 6458   6.413   1.204   3.154
 2171TIP3    H2 6459   6.346   1.070   3.174
 2172TIP3   OH2 6460   6.177   1.228   2.083
 2172TIP3    H1 6461   6.144   1.213   1.995
 2172TIP3    H2 6462   6.153   1.319   2.102
 2173TIP3   OH2 6463   5.633   1.080   2.457
 2173TIP3    H1 6464   5.669   1.073   2.545
 2173TIP3    H2 6465   5.569   1.008   2.452
 2174TIP3   OH2 6466   6.378   1.145   1.716
 2174TIP3    H1 6467   6.431   1.074   1.681
 2174TIP3    H2 6468   6.411   1.158   1.805
 2175TIP3   OH2 6469   6.431   1.194   1.984
 2175TIP3    H1 6470   6.345   1.200   2.026
 2175TIP3    H2 6471   6.490   1.163   2.053
 2176TIP3   OH2 6472   7.196   0.437   3.269
 2176TIP3    H1 6473   7.122   0.478   3.222
 2176TIP3    H2 6474   7.187   0.344   3.250
 2177TIP3   OH2 6475   5.797   0.863   3.281
 2177TIP3    H1 6476   5.846   0.852   3.362
 2177TIP3    H2 6477   5.724   0.801   3.288
 2178TIP3   OH2 6478   6.972   0.240   3.206
 2178TIP3    H1 6479   6.944   0.271   3.293
 2178TIP3    H2 6480   6.954   0.314   3.148
 2179TIP3   OH2 6481   6.145   0.210   3.106
 2179TIP3    H1 6482   6.087   0.227   3.180
 2179TIP3    H2 6483   6.134   0.287   3.050
 2180TIP3   OH2 6484   6.010   0.091   2.611
 2180TIP3    H1 6485   5.918   0.069   2.626
 2180TIP3    H2 6486   6.027   0.063   2.521
 2181TIP3   OH2 6487   6.503   0.182   2.319
 2181TIP3    H1 6488   6.441   0.249   2.289
 2181TIP3    H2 6489   6.577   0.189   2.259
 2182TIP3   OH2 6490   6.687   0.476   3.402
 2182TIP3    H1 6491   6.660   0.399   3.452
 2182TIP3    H2 6492   6.779   0.489   3.425
 2183TIP3   OH2 6493   6.654   0.211   2.579
 2183TIP3    H1 6494   6.592   0.248   2.516
 2183TIP3    H2 6495   6.705   0.148   2.528
 2184TIP3   OH2 6496   5.946   0.236   3.299
 2184TIP3    H1 6497   5.972   0.298   3.367
 2184TIP3    H2 6498   5.932   0.153   3.346
 2185TIP3   OH2 6499   2.742   7.856   2.429
 2185TIP3    H1 6500   2.760   7.863   2.335
 2185TIP3    H2 6501   2.650   7.881   2.438
 2186TIP3   OH2 6502   6.661   0.448   2.989
 2186TIP3    H1 6503   6.698   0.382   2.930
 2186TIP3    H2 6504   6.639   0.399   3.068
 2187TIP3   OH2 6505   2.924   7.983   2.650
 2187TIP3    H1 6506   2.836   8.017   2.636
 2187TIP3    H2 6507   2.922   7.895   2.614
 2188TIP3   OH2 6508   3.214   8.000   2.359
 2188TIP3    H1 6509   3.300   7.970   2.329
 2188TIP3    H2 6510   3.156   7.985   2.284
 2189TIP3   OH2 6511   3.021   7.969   2.139
 2189TIP3    H1 6512   2.925   7.963   2.141
 2189TIP3    H2 6513   3.040   8.031   2.069
 2190TIP3   OH2 6514   6.994   1.698   3.085
 2190TIP3    H1 6515   6.998   1.712   2.990
 2190TIP3    H2 6516   7.077   1.733   3.118
 2191TIP3   OH2 6517   5.959   0.789   3.509
 2191TIP3    H1 6518   6.040   0.816   3.552
 2191TIP3    H2 6519   5.894   0.788   3.579
 2192TIP3   OH2 6520   6.415   0.234   2.757
 2192TIP3    H1 6521   6.501   0.206   2.724
 2192TIP3    H2 6522   6.415   0.209   2.849
 2193TIP3   OH2 6523   6.419   0.175   3.021
 2193TIP3    H1 6524   6.332   0.166   3.059
 2193TIP3    H2 6525   6.472   0.215   3.090
 2194TIP3   OH2 6526   6.129   0.527   2.148
 2194TIP3    H1 6527   6.058   0.464   2.136
 2194TIP3    H2 6528   6.117   0.561   2.237
 2195TIP3   OH2 6529   7.039   0.751   2.767
 2195TIP3    H1 6530   7.061   0.807   2.692
 2195TIP3    H2 6531   6.952   0.717   2.746
 2196TIP3   OH2 6532   6.525   0.842   3.145
 2196TIP3    H1 6533   6.572   0.828   3.227
 2196TIP3    H2 6534   6.496   0.933   3.150
 2197TIP3   OH2 6535   5.829   0.544   2.817
 2197TIP3    H1 6536   5.871   0.517   2.735
 2197TIP3    H2 6537   5.871   0.490   2.884
 2198TIP3   OH2 6538   6.285   0.684   1.988
 2198TIP3    H1 6539   6.240   0.769   1.990
 2198TIP3    H2 6540   6.232   0.628   2.046
 2199TIP3   OH2 6541   5.710   0.468   3.438
 2199TIP3    H1 6542   5.730   0.454   3.530
 2199TIP3    H2 6543   5.639   0.406   3.419
 2200TIP3   OH2 6544   6.438   0.585   3.458
 2200TIP3    H1 6545   6.376   0.534   3.406
 2200TIP3    H2 6546   6.524   0.559   3.426
 2201TIP3   OH2 6547   6.688   1.105   3.045
 2201TIP3    H1 6548   6.593   1.108   3.057
 2201TIP3    H2 6549   6.723   1.156   3.118
 2202TIP3   OH2 6550   6.784   1.008   1.913
 2202TIP3    H1 6551   6.791   0.939   1.980
 2202TIP3    H2 6552   6.788   0.961   1.830
 2203TIP3   OH2 6553   6.796   0.627   2.685
 2203TIP3    H1 6554   6.704   0.605   2.702
 2203TIP3    H2 6555   6.832   0.548   2.645
 2204TIP3   OH2 6556   5.494   0.162   2.167
 2204TIP3    H1 6557   5.536   0.247   2.181
 2204TIP3    H2 6558   5.415   0.165   2.221
 2205TIP3   OH2 6559   6.054   0.624   2.391
 2205TIP3    H1 6560   5.978   0.680   2.409
 2205TIP3    H2 6561   6.054   0.561   2.463
 2206TIP3   OH2 6562   6.210   1.193   2.926
 2206TIP3    H1 6563   6.244   1.263   2.871
 2206TIP3    H2 6564   6.287   1.157   2.970
 2207TIP3   OH2 6565   5.903   1.092   2.353
 2207TIP3    H1 6566   5.812   1.076   2.379
 2207TIP3    H2 6567   5.907   1.185   2.334
 2208TIP3   OH2 6568   6.589   0.831   2.879
 2208TIP3    H1 6569   6.571   0.829   2.973
 2208TIP3    H2 6570   6.673   0.785   2.869
 2209TIP3   OH2 6571   6.541   0.708   1.802
 2209TIP3    H1 6572   6.578   0.717   1.890
 2209TIP3    H2 6573   6.446   0.715   1.815
 2210TIP3   OH2 6574   6.821   1.373   2.936
 2210TIP3    H1 6575   6.755   1.305   2.922
 2210TIP3    H2 6576   6.818   1.426   2.856
 2211TIP3   OH2 6577   6.892   1.196   1.575
 2211TIP3    H1 6578   6.928   1.260   1.514
 2211TIP3    H2 6579   6.816   1.240   1.614
 2212TIP3   OH2 6580   6.701   0.678   2.025
 2212TIP3    H1 6581   6.692   0.597   2.075
 2212TIP3    H2 6582   6.794   0.686   2.007
 2213TIP3   OH2 6583   5.645   1.053   3.074
 2213TIP3    H1 6584   5.693   0.988   3.124
 2213TIP3    H2 6585   5.657   1.135   3.122
 2214TIP3   OH2 6586   5.930   0.709   1.760
 2214TIP3    H1 6587   5.932   0.631   1.706
 2214TIP3    H2 6588   5.898   0.679   1.845
 2215TIP3   OH2 6589   5.870   0.707   2.037
 2215TIP3    H1 6590   5.953   0.683   2.079
 2215TIP3    H2 6591   5.872   0.803   2.034
 2216TIP3   OH2 6592   5.604   0.409   2.237
 2216TIP3    H1 6593   5.538   0.450   2.293
 2216TIP3    H2 6594   5.616   0.471   2.165
 2217TIP3   OH2 6595   6.143   0.913   1.994
 2217TIP3    H1 6596   6.053   0.937   2.016
 2217TIP3    H2 6597   6.157   0.950   1.907
 2218TIP3   OH2 6598   6.379  -0.030   2.433
 2218TIP3    H1 6599   6.417   0.044   2.386
 2218TIP3    H2 6600   6.348   0.007   2.515
 2219TIP3   OH2 6601   6.611   0.290   3.204
 2219TIP3    H1 6602   6.607   0.354   3.275
 2219TIP3    H2 6603   6.661   0.217   3.240
 2220TIP3   OH2 6604   5.886   0.985   2.047
 2220TIP3    H1 6605   5.860   1.039   1.973
 2220TIP3    H2 6606   5.856   1.033   2.124
 2221TIP3   OH2 6607   6.886   0.384   2.575
 2221TIP3    H1 6608   6.811   0.327   2.592
 2221TIP3    H2 6609   6.959   0.341   2.620
 2222TIP3   OH2 6610   5.598   0.610   2.039
 2222TIP3    H1 6611   5.665   0.678   2.046
 2222TIP3    H2 6612   5.633   0.548   1.975
 2223TIP3   OH2 6613   2.755   7.923   2.158
 2223TIP3    H1 6614   2.716   8.010   2.160
 2223TIP3    H2 6615   2.687   7.867   2.120
 2224TIP3   OH2 6616   6.853   1.339   2.510
 2224TIP3    H1 6617   6.812   1.386   2.438
 2224TIP3    H2 6618   6.947   1.354   2.498
 2225TIP3   OH2 6619   5.461   0.823   2.420
 2225TIP3    H1 6620   5.402   0.852   2.489
 2225TIP3    H2 6621   5.429   0.865   2.340
 2226TIP3   OH2 6622   5.633   1.372   3.498
 2226TIP3    H1 6623   5.716   1.377   3.544
 2226TIP3    H2 6624   5.611   1.278   3.497
 2227TIP3   OH2 6625   6.106   1.326   3.542
 2227TIP3    H1 6626   6.200   1.314   3.551
 2227TIP3    H2 6627   6.081   1.266   3.471
 2228TIP3   OH2 6628   6.090   0.918   1.697
 2228TIP3    H1 6629   6.035   0.842   1.717
 2228TIP3    H2 6630   6.157   0.884   1.639
 2229TIP3   OH2 6631   6.749   1.237   3.280
 2229TIP3    H1 6632   6.741   1.169   3.347
 2229TIP3    H2 6633   6.828   1.286   3.304
 2230TIP3   OH2 6634   6.544   0.966   1.590
 2230TIP3    H1 6635   6.618   0.937   1.644
 2230TIP3    H2 6636   6.582   1.026   1.527
 2231TIP3   OH2 6637   5.756   0.772   3.697
 2231TIP3    H1 6638   5.773   0.678   3.704
 2231TIP3    H2 6639   5.671   0.778   3.652
 2232TIP3   OH2 6640   5.733   0.420   1.906
 2232TIP3    H1 6641   5.794   0.399   1.977
 2232TIP3    H2 6642   5.787   0.426   1.828
 2233TIP3   OH2 6643   6.363   0.859   3.472
 2233TIP3    H1 6644   6.328   0.881   3.385
 2233TIP3    H2 6645   6.396   0.769   3.462
 2234TIP3   OH2 6646   6.258   0.634   1.713
 2234TIP3    H1 6647   6.246   0.632   1.808
 2234TIP3    H2 6648   6.195   0.572   1.679
 2235TIP3   OH2 6649   6.843   0.870   3.080
 2235TIP3    H1 6650   6.920   0.901   3.033
 2235TIP3    H2 6651   6.779   0.940   3.068
 2236TIP3   OH2 6652   5.885   0.505   3.683
 2236TIP3    H1 6653   5.967   0.464   3.655
 2236TIP3    H2 6654   5.905   0.542   3.769
 2237TIP3   OH2 6655   5.940   0.326   2.122
 2237TIP3    H1 6656   5.911   0.307   2.211
 2237TIP3    H2 6657   5.997   0.253   2.099
 2238TIP3   OH2 6658   6.209   0.423   3.338
 2238TIP3    H1 6659   6.129   0.475   3.333
 2238TIP3    H2 6660   6.258   0.448   3.259
 2239TIP3   OH2 6661   6.731   0.795   3.475
 2239TIP3    H1 6662   6.805   0.766   3.421
 2239TIP3    H2 6663   6.722   0.728   3.542
 2240TIP3   OH2 6664   6.297   0.202   3.459
 2240TIP3    H1 6665   6.253   0.139   3.402
 2240TIP3    H2 6666   6.274   0.288   3.423
 2241TIP3   OH2 6667   6.372   0.509   3.141
 2241TIP3    H1 6668   6.457   0.516   3.098
 2241TIP3    H2 6669   6.317   0.573   3.097
 2242TIP3   OH2 6670   6.939   0.472   3.508
 2242TIP3    H1 6671   6.972   0.417   3.579
 2242TIP3    H2 6672   7.014   0.526   3.483
 2243TIP3   OH2 6673   6.989   0.725   3.256
 2243TIP3    H1 6674   6.925   0.776   3.206
 2243TIP3    H2 6675   7.074   0.751   3.220
 2244TIP3   OH2 6676   6.175   0.324   3.690
 2244TIP3    H1 6677   6.141   0.246   3.732
 2244TIP3    H2 6678   6.237   0.292   3.625
 2245TIP3   OH2 6679   6.578   0.252   3.500
 2245TIP3    H1 6680   6.605   0.221   3.586
 2245TIP3    H2 6681   6.482   0.242   3.500
 2246TIP3   OH2 6682   5.854   1.180   1.860
 2246TIP3    H1 6683   5.949   1.182   1.844
 2246TIP3    H2 6684   5.817   1.230   1.787
 2247TIP3   OH2 6685   5.331   0.568   2.083
 2247TIP3    H1 6686   5.422   0.592   2.064
 2247TIP3    H2 6687   5.319   0.483   2.040
 2248TIP3   OH2 6688   5.250   1.174   2.490
 2248TIP3    H1 6689   5.183   1.119   2.450
 2248TIP3    H2 6690   5.293   1.117   2.554
 2249TIP3   OH2 6691   5.385   1.022   2.678
 2249TIP3    H1 6692   5.366   0.953   2.741
 2249TIP3    H2 6693   5.431   1.089   2.729
 2250TIP3   OH2 6694   7.109   1.427   2.477
 2250TIP3    H1 6695   7.133   1.458   2.565
 2250TIP3    H2 6696   7.177   1.463   2.420
 2251TIP3   OH2 6697   7.135   1.453   2.757
 2251TIP3    H1 6698   7.084   1.373   2.744
 2251TIP3    H2 6699   7.194   1.432   2.829
 2252TIP3   OH2 6700   6.965   0.693   1.993
 2252TIP3    H1 6701   7.024   0.765   1.969
 2252TIP3    H2 6702   7.020   0.634   2.044
 2253TIP3   OH2 6703   7.116   0.527   2.155
 2253TIP3    H1 6704   7.053   0.469   2.197
 2253TIP3    H2 6705   7.182   0.543   2.223
 2254TIP3   OH2 6706   7.176   0.901   2.581
 2254TIP3    H1 6707   7.229   0.838   2.533
 2254TIP3    H2 6708   7.175   0.979   2.526
 2255TIP3   OH2 6709   7.011   1.216   2.764
 2255TIP3    H1 6710   6.962   1.215   2.846
 2255TIP3    H2 6711   6.972   1.146   2.712
 2256TIP3   OH2 6712   6.943   0.370   2.307
 2256TIP3    H1 6713   6.959   0.276   2.304
 2256TIP3    H2 6714   6.925   0.389   2.399
 2257TIP3   OH2 6715   5.569   0.435   3.048
 2257TIP3    H1 6716   5.563   0.406   2.957
 2257TIP3    H2 6717   5.663   0.438   3.066
 2258TIP3   OH2 6718   7.228   0.804   3.151
 2258TIP3    H1 6719   7.304   0.749   3.132
 2258TIP3    H2 6720   7.242   0.882   3.097
 2259TIP3   OH2 6721   7.406   0.587   3.176
 2259TIP3    H1 6722   7.332   0.539   3.214
 2259TIP3    H2 6723   7.481   0.529   3.189
 2260TIP3   OH2 6724   7.101   0.262   2.696
 2260TIP3    H1 6725   7.183   0.284   2.650
 2260TIP3    H2 6726   7.114   0.295   2.785
 2261TIP3   OH2 6727   7.158   0.406   2.926
 2261TIP3    H1 6728   7.083   0.441   2.973
 2261TIP3    H2 6729   7.194   0.481   2.878
 2262TIP3   OH2 6730   5.782   0.116   3.724
 2262TIP3    H1 6731   5.873   0.096   3.704
 2262TIP3    H2 6732   5.747   0.035   3.760
 2263TIP3   OH2 6733   5.546   0.088   3.123
 2263TIP3    H1 6734   5.590   0.089   3.038
 2263TIP3    H2 6735   5.575   0.169   3.166
 2264TIP3   OH2 6736   6.688   1.292   2.137
 2264TIP3    H1 6737   6.741   1.285   2.057
 2264TIP3    H2 6738   6.735   1.356   2.191
 2265TIP3   OH2 6739   5.792   1.099   3.514
 2265TIP3    H1 6740   5.700   1.076   3.501
 2265TIP3    H2 6741   5.807   1.086   3.608
 2266TIP3   OH2 6742   5.977   1.136   3.057
 2266TIP3    H1 6743   5.928   1.211   3.024
 2266TIP3    H2 6744   6.064   1.145   3.017
 2267TIP3   OH2 6745   6.417   1.380   3.202
 2267TIP3    H1 6746   6.456   1.376   3.290
 2267TIP3    H2 6747   6.481   1.428   3.149
 2268TIP3   OH2 6748   6.600   1.528   3.062
 2268TIP3    H1 6749   6.671   1.476   3.023
 2268TIP3    H2 6750   6.645   1.586   3.124
 2269TIP3   OH2 6751   5.645   1.388   3.095
 2269TIP3    H1 6752   5.557   1.415   3.070
 2269TIP3    H2 6753   5.664   1.440   3.173
 2270TIP3   OH2 6754   5.876   1.364   2.944
 2270TIP3    H1 6755   5.794   1.375   2.992
 2270TIP3    H2 6756   5.860   1.407   2.859
 2271TIP3   OH2 6757   6.307   1.403   2.744
 2271TIP3    H1 6758   6.252   1.436   2.673
 2271TIP3    H2 6759   6.326   1.481   2.797
 2272TIP3   OH2 6760   6.576   1.332   2.786
 2272TIP3    H1 6761   6.485   1.356   2.774
 2272TIP3    H2 6762   6.626   1.408   2.757
 2273TIP3   OH2 6763   6.781   1.523   2.706
 2273TIP3    H1 6764   6.771   1.607   2.661
 2273TIP3    H2 6765   6.810   1.462   2.638
 2274TIP3   OH2 6766   5.563   1.180   2.830
 2274TIP3    H1 6767   5.582   1.156   2.921
 2274TIP3    H2 6768   5.629   1.135   2.778
 2275TIP3   OH2 6769   5.764   1.048   2.702
 2275TIP3    H1 6770   5.770   0.959   2.735
 2275TIP3    H2 6771   5.835   1.095   2.745
 2276TIP3   OH2 6772   5.346   0.963   2.220
 2276TIP3    H1 6773   5.262   0.925   2.192
 2276TIP3    H2 6774   5.340   1.055   2.194
 2277TIP3   OH2 6775   6.123   1.157   1.813
 2277TIP3    H1 6776   6.208   1.180   1.775
 2277TIP3    H2 6777   6.095   1.080   1.763
 2278TIP3   OH2 6778   6.839   1.271   1.905
 2278TIP3    H1 6779   6.826   1.176   1.909
 2278TIP3    H2 6780   6.794   1.298   1.825
 2279TIP3   OH2 6781   5.426   0.978   1.859
 2279TIP3    H1 6782   5.424   1.002   1.951
 2279TIP3    H2 6783   5.511   0.935   1.847
 2280TIP3   OH2 6784   7.057   1.431   3.087
 2280TIP3    H1 6785   6.989   1.382   3.041
 2280TIP3    H2 6786   7.024   1.520   3.093
 2281TIP3   OH2 6787   7.583   1.073   2.356
 2281TIP3    H1 6788   7.540   0.999   2.312
 2281TIP3    H2 6789   7.675   1.068   2.329
 2282TIP3   OH2 6790   7.387   0.572   2.279
 2282TIP3    H1 6791   7.434   0.488   2.280
 2282TIP3    H2 6792   7.390   0.599   2.187
 2283TIP3   OH2 6793   7.166   0.861   1.939
 2283TIP3    H1 6794   7.210   0.810   1.870
 2283TIP3    H2 6795   7.213   0.944   1.942
 2284TIP3   OH2 6796   7.759   1.446   2.816
 2284TIP3    H1 6797   7.728   1.421   2.729
 2284TIP3    H2 6798   7.683   1.432   2.873
 2285TIP3   OH2 6799   7.425   0.926   2.737
 2285TIP3    H1 6800   7.331   0.920   2.723
 2285TIP3    H2 6801   7.442   0.868   2.811
 2286TIP3   OH2 6802   7.250   1.132   2.420
 2286TIP3    H1 6803   7.345   1.139   2.423
 2286TIP3    H2 6804   7.219   1.205   2.473
 2287TIP3   OH2 6805   7.398   1.350   1.946
 2287TIP3    H1 6806   7.458   1.351   2.021
 2287TIP3    H2 6807   7.366   1.260   1.943
 2288TIP3   OH2 6808   7.603   1.129   2.760
 2288TIP3    H1 6809   7.651   1.095   2.836
 2288TIP3    H2 6810   7.529   1.069   2.749
 2289TIP3   OH2 6811   7.746   1.019   2.968
 2289TIP3    H1 6812   7.815   1.082   2.988
 2289TIP3    H2 6813   7.700   1.006   3.051
 2290TIP3   OH2 6814   7.483   0.740   2.931
 2290TIP3    H1 6815   7.530   0.729   3.014
 2290TIP3    H2 6816   7.427   0.663   2.925
 2291TIP3   OH2 6817   7.437   1.311   2.560
 2291TIP3    H1 6818   7.486   1.241   2.603
 2291TIP3    H2 6819   7.456   1.389   2.613
 2292TIP3   OH2 6820   7.265   1.111   1.916
 2292TIP3    H1 6821   7.198   1.144   1.976
 2292TIP3    H2 6822   7.236   1.138   1.829
 2293TIP3   OH2 6823   7.428   1.628   2.986
 2293TIP3    H1 6824   7.514   1.620   3.027
 2293TIP3    H2 6825   7.388   1.541   2.997
 2294TIP3   OH2 6826   7.593   1.016   3.205
 2294TIP3    H1 6827   7.586   0.922   3.190
 2294TIP3    H2 6828   7.512   1.052   3.169
 2295TIP3   OH2 6829   7.671   0.752   3.172
 2295TIP3    H1 6830   7.745   0.693   3.154
 2295TIP3    H2 6831   7.695   0.796   3.253
 2296TIP3   OH2 6832   7.048   1.436   1.978
 2296TIP3    H1 6833   6.980   1.379   1.941
 2296TIP3    H2 6834   7.092   1.381   2.043
 2297TIP3   OH2 6835   7.171   1.282   2.171
 2297TIP3    H1 6836   7.165   1.210   2.233
 2297TIP3    H2 6837   7.226   1.347   2.215
 2298TIP3   OH2 6838   7.372   0.680   2.535
 2298TIP3    H1 6839   7.372   0.647   2.444
 2298TIP3    H2 6840   7.452   0.731   2.542
 2299TIP3   OH2 6841   7.577   0.373   3.211
 2299TIP3    H1 6842   7.672   0.360   3.213
 2299TIP3    H2 6843   7.541   0.291   3.245
 2300TIP3   OH2 6844   7.346   0.344   2.599
 2300TIP3    H1 6845   7.426   0.334   2.547
 2300TIP3    H2 6846   7.354   0.431   2.638
 2301TIP3   OH2 6847   7.579   1.338   3.016
 2301TIP3    H1 6848   7.514   1.273   2.987
 2301TIP3    H2 6849   7.577   1.333   3.111
 2302TIP3   OH2 6850   7.444   1.640   2.578
 2302TIP3    H1 6851   7.359   1.673   2.546
 2302TIP3    H2 6852   7.458   1.685   2.661
 2303TIP3   OH2 6853   7.703   1.632   2.436
 2303TIP3    H1 6854   7.619   1.626   2.481
 2303TIP3    H2 6855   7.682   1.671   2.351
 2304TIP3   OH2 6856   7.352   1.440   2.324
 2304TIP3    H1 6857   7.378   1.416   2.413
 2304TIP3    H2 6858   7.419   1.401   2.268
 2305TIP3   OH2 6859   7.541   1.308   2.182
 2305TIP3    H1 6860   7.544   1.221   2.222
 2305TIP3    H2 6861   7.630   1.323   2.151
 2306TIP3   OH2 6862   7.145   1.213   1.694
 2306TIP3    H1 6863   7.059   1.178   1.671
 2306TIP3    H2 6864   7.134   1.308   1.687
 2307TIP3   OH2 6865   7.215   1.270   1.375
 2307TIP3    H1 6866   7.197   1.282   1.469
 2307TIP3    H2 6867   7.273   1.194   1.372
 2308TIP3   OH2 6868   0.784   1.578   3.555
 2308TIP3    H1 6869   0.763   1.667   3.524
 2308TIP3    H2 6870   0.698   1.538   3.570
 2309TIP3   OH2 6871   0.762   1.563   3.933
 2309TIP3    H1 6872   0.810   1.545   4.014
 2309TIP3    H2 6873   0.736   1.477   3.901
 2310TIP3   OH2 6874   0.088   1.462   4.297
 2310TIP3    H1 6875   0.122   1.398   4.359
 2310TIP3    H2 6876   0.163   1.516   4.274
 2311TIP3   OH2 6877   1.024   1.875   3.613
 2311TIP3    H1 6878   1.022   1.800   3.672
 2311TIP3    H2 6879   1.062   1.945   3.665
 2312TIP3   OH2 6880   0.060   1.864   4.011
 2312TIP3    H1 6881   0.050   1.769   4.014
 2312TIP3    H2 6882   0.154   1.878   4.004
 2313TIP3   OH2 6883   0.677   2.327   3.628
 2313TIP3    H1 6884   0.719   2.262   3.571
 2313TIP3    H2 6885   0.676   2.286   3.715
 2314TIP3   OH2 6886   0.584   1.792   3.976
 2314TIP3    H1 6887   0.621   1.713   3.937
 2314TIP3    H2 6888   0.660   1.846   3.997
 2315TIP3   OH2 6889   1.600   1.113   3.972
 2315TIP3    H1 6890   1.625   1.195   4.013
 2315TIP3    H2 6891   1.613   1.127   3.878
 2316TIP3   OH2 6892   0.993   1.292   4.003
 2316TIP3    H1 6893   1.036   1.209   4.024
 2316TIP3    H2 6894   0.958   1.279   3.915
 2317TIP3   OH2 6895   1.024   1.055   3.608
 2317TIP3    H1 6896   1.102   1.033   3.661
 2317TIP3    H2 6897   1.059   1.073   3.521
 2318TIP3   OH2 6898   0.415   1.343   3.871
 2318TIP3    H1 6899   0.509   1.348   3.887
 2318TIP3    H2 6900   0.399   1.251   3.853
 2319TIP3   OH2 6901   1.669   1.326   4.139
 2319TIP3    H1 6902   1.593   1.374   4.109
 2319TIP3    H2 6903   1.683   1.355   4.229
 2320TIP3   OH2 6904   0.353   0.932   4.396
 2320TIP3    H1 6905   0.298   0.970   4.328
 2320TIP3    H2 6906   0.296   0.927   4.473
 2321TIP3   OH2 6907   0.650   1.778   3.414
 2321TIP3    H1 6908   0.680   1.791   3.325
 2321TIP3    H2 6909   0.612   1.862   3.440
 2322TIP3   OH2 6910   0.435   1.715   4.193
 2322TIP3    H1 6911   0.377   1.782   4.230
 2322TIP3    H2 6912   0.480   1.759   4.121
 2323TIP3   OH2 6913   1.242   1.046   3.773
 2323TIP3    H1 6914   1.221   1.005   3.857
 2323TIP3    H2 6915   1.288   1.127   3.796
 2324TIP3   OH2 6916   0.205   1.042   4.201
 2324TIP3    H1 6917   0.258   1.121   4.207
 2324TIP3    H2 6918   0.221   1.008   4.113
 2325TIP3   OH2 6919   0.260   1.912   4.297
 2325TIP3    H1 6920   0.241   1.998   4.259
 2325TIP3    H2 6921   0.185   1.892   4.352
 2326TIP3   OH2 6922   1.093   2.118   3.774
 2326TIP3    H1 6923   1.004   2.105   3.807
 2326TIP3    H2 6924   1.091   2.204   3.734
 2327TIP3   OH2 6925   1.389   1.011   4.135
 2327TIP3    H1 6926   1.302   1.037   4.104
 2327TIP3    H2 6927   1.449   1.042   4.067
 2328TIP3   OH2 6928   0.701   0.671   4.127
 2328TIP3    H1 6929   0.675   0.580   4.114
 2328TIP3    H2 6930   0.621   0.716   4.155
 2329TIP3   OH2 6931   0.794   2.161   3.441
 2329TIP3    H1 6932   0.837   2.076   3.427
 2329TIP3    H2 6933   0.855   2.225   3.405
 2330TIP3   OH2 6934   0.923   1.939   3.364
 2330TIP3    H1 6935   0.938   1.869   3.300
 2330TIP3    H2 6936   0.963   1.907   3.444
 2331TIP3   OH2 6937   0.953   1.495   3.351
 2331TIP3    H1 6938   0.905   1.524   3.429
 2331TIP3    H2 6939   1.041   1.475   3.383
 2332TIP3   OH2 6940   1.193   1.523   4.260
 2332TIP3    H1 6941   1.189   1.604   4.312
 2332TIP3    H2 6942   1.112   1.525   4.208
 2333TIP3   OH2 6943   0.192   1.488   3.763
 2333TIP3    H1 6944   0.173   1.447   3.678
 2333TIP3    H2 6945   0.271   1.443   3.793
 2334TIP3   OH2 6946   0.326   1.905   3.908
 2334TIP3    H1 6947   0.311   1.870   3.820
 2334TIP3    H2 6948   0.413   1.874   3.932
 2335TIP3   OH2 6949   0.323   1.478   4.110
 2335TIP3    H1 6950   0.362   1.449   4.027
 2335TIP3    H2 6951   0.370   1.558   4.133
 2336TIP3   OH2 6952   0.846   2.112   3.888
 2336TIP3    H1 6953   0.843   2.188   3.946
 2336TIP3    H2 6954   0.838   2.036   3.947
 2337TIP3   OH2 6955   0.466   2.024   4.442
 2337TIP3    H1 6956   0.409   2.086   4.487
 2337TIP3    H2 6957   0.406   1.971   4.390
 2338TIP3   OH2 6958   0.241   1.593   4.535
 2338TIP3    H1 6959   0.239   1.678   4.579
 2338TIP3    H2 6960   0.152   1.559   4.544
 2339TIP3   OH2 6961   0.548   2.042   3.440
 2339TIP3    H1 6962   0.634   2.082   3.450
 2339TIP3    H2 6963   0.489   2.116   3.427
 2340TIP3   OH2 6964   0.261   2.191   4.528
 2340TIP3    H1 6965   0.228   2.197   4.438
 2340TIP3    H2 6966   0.183   2.175   4.582
 2341TIP3   OH2 6967   1.134   1.981   2.774
 2341TIP3    H1 6968   1.131   2.075   2.760
 2341TIP3    H2 6969   1.218   1.954   2.738
 2342TIP3   OH2 6970   8.364   1.712   4.470
 2342TIP3    H1 6971   8.296   1.695   4.405
 2342TIP3    H2 6972   8.390   1.624   4.500
 2343TIP3   OH2 6973   8.207   1.941   4.088
 2343TIP3    H1 6974   8.291   1.896   4.076
 2343TIP3    H2 6975   8.222   2.000   4.161
 2344TIP3   OH2 6976   0.664   2.151   4.300
 2344TIP3    H1 6977   0.666   2.243   4.326
 2344TIP3    H2 6978   0.595   2.112   4.353
 2345TIP3   OH2 6979   0.423   2.284   3.262
 2345TIP3    H1 6980   0.351   2.266   3.203
 2345TIP3    H2 6981   0.399   2.366   3.305
 2346TIP3   OH2 6982   8.363   2.141   3.628
 2346TIP3    H1 6983   8.399   2.116   3.713
 2346TIP3    H2 6984   8.314   2.063   3.600
 2347TIP3   OH2 6985   0.620   2.159   2.908
 2347TIP3    H1 6986   0.677   2.097   2.862
 2347TIP3    H2 6987   0.665   2.175   2.991
 2348TIP3   OH2 6988   0.682   2.240   3.169
 2348TIP3    H1 6989   0.598   2.243   3.215
 2348TIP3    H2 6990   0.741   2.197   3.230
 2349TIP3   OH2 6991   1.442   1.495   4.432
 2349TIP3    H1 6992   1.369   1.500   4.370
 2349TIP3    H2 6993   1.466   1.403   4.434
 2350TIP3   OH2 6994   0.044   1.914   4.469
 2350TIP3    H1 6995   0.101   1.892   4.542
 2350TIP3    H2 6996  -0.024   1.846   4.469
 2351TIP3   OH2 6997   0.450   0.750   4.208
 2351TIP3    H1 6998   0.373   0.693   4.202
 2351TIP3    H2 6999   0.428   0.812   4.278
 2352TIP3   OH2 7000   1.018   0.849   4.430
 2352TIP3    H1 7001   1.082   0.819   4.495
 2352TIP3    H2 7002   0.933   0.834   4.470
 2353TIP3   OH2 7003   1.214   1.267   4.362
 2353TIP3    H1 7004   1.168   1.269   4.445
 2353TIP3    H2 7005   1.197   1.353   4.323
 2354TIP3   OH2 7006   0.375   1.254   4.255
 2354TIP3    H1 7007   0.332   1.273   4.339
 2354TIP3    H2 7008   0.360   1.333   4.203
 2355TIP3   OH2 7009   0.771   1.251   3.495
 2355TIP3    H1 7010   0.690   1.279   3.451
 2355TIP3    H2 7011   0.839   1.261   3.428
 2356TIP3   OH2 7012   0.929   1.494   4.596
 2356TIP3    H1 7013   0.903   1.422   4.654
 2356TIP3    H2 7014   1.022   1.507   4.615
 2357TIP3   OH2 7015   0.903   1.250   3.745
 2357TIP3    H1 7016   0.851   1.283   3.671
 2357TIP3    H2 7017   0.944   1.171   3.712
 2358TIP3   OH2 7018   0.201   1.285   4.471
 2358TIP3    H1 7019   0.249   1.341   4.532
 2358TIP3    H2 7020   0.195   1.201   4.517
 2359TIP3   OH2 7021   0.916   1.488   4.170
 2359TIP3    H1 7022   0.949   1.423   4.108
 2359TIP3    H2 7023   0.887   1.436   4.245
 2360TIP3   OH2 7024   0.581   0.985   3.865
 2360TIP3    H1 7025   0.524   0.913   3.893
 2360TIP3    H2 7026   0.669   0.956   3.889
 2361TIP3   OH2 7027   1.079   1.032   4.049
 2361TIP3    H1 7028   1.044   1.046   4.137
 2361TIP3    H2 7029   1.016   0.973   4.007
 2362TIP3   OH2 7030   1.261   2.716   4.264
 2362TIP3    H1 7031   1.252   2.743   4.172
 2362TIP3    H2 7032   1.337   2.763   4.296
 2363TIP3   OH2 7033   0.210   1.834   4.683
 2363TIP3    H1 7034   0.291   1.859   4.727
 2363TIP3    H2 7035   0.145   1.832   4.754
 2364TIP3   OH2 7036   0.673   1.291   3.939
 2364TIP3    H1 7037   0.734   1.246   3.881
 2364TIP3    H2 7038   0.672   1.238   4.019
 2365TIP3   OH2 7039   0.648   1.188   4.224
 2365TIP3    H1 7040   0.560   1.222   4.238
 2365TIP3    H2 7041   0.705   1.246   4.273
 2366TIP3   OH2 7042   0.798   1.893   4.322
 2366TIP3    H1 7043   0.806   1.868   4.414
 2366TIP3    H2 7044   0.749   1.975   4.324
 2367TIP3   OH2 7045   0.074   1.587   3.998
 2367TIP3    H1 7046   0.100   1.558   3.911
 2367TIP3    H2 7047   0.130   1.538   4.058
 2368TIP3   OH2 7048   0.512   1.704   3.143
 2368TIP3    H1 7049   0.487   1.796   3.137
 2368TIP3    H2 7050   0.491   1.680   3.233
 2369TIP3   OH2 7051   8.498   1.486   4.620
 2369TIP3    H1 7052   8.537   1.504   4.706
 2369TIP3    H2 7053   8.404   1.482   4.638
 2370TIP3   OH2 7054   0.689   1.630   4.627
 2370TIP3    H1 7055   0.628   1.570   4.585
 2370TIP3    H2 7056   0.776   1.596   4.605
 2371TIP3   OH2 7057   0.969   2.166   4.217
 2371TIP3    H1 7058   0.882   2.128   4.216
 2371TIP3    H2 7059   0.976   2.208   4.303
 2372TIP3   OH2 7060   1.353   1.196   3.133
 2372TIP3    H1 7061   1.279   1.141   3.108
 2372TIP3    H2 7062   1.334   1.281   3.095
 2373TIP3   OH2 7063   1.565   2.074   4.162
 2373TIP3    H1 7064   1.526   2.136   4.100
 2373TIP3    H2 7065   1.592   2.000   4.108
 2374TIP3   OH2 7066   1.052   2.039   3.034
 2374TIP3    H1 7067   1.037   1.960   3.087
 2374TIP3    H2 7068   1.075   2.005   2.947
 2375TIP3   OH2 7069   1.020   1.671   3.880
 2375TIP3    H1 7070   0.933   1.632   3.871
 2375TIP3    H2 7071   1.080   1.607   3.843
 2376TIP3   OH2 7072   0.173   1.900   3.623
 2376TIP3    H1 7073   0.173   1.988   3.586
 2376TIP3    H2 7074   0.089   1.894   3.668
 2377TIP3   OH2 7075   0.332   1.671   3.602
 2377TIP3    H1 7076   0.290   1.757   3.599
 2377TIP3    H2 7077   0.277   1.620   3.662
 2378TIP3   OH2 7078   0.451   2.240   4.091
 2378TIP3    H1 7079   0.491   2.312   4.042
 2378TIP3    H2 7080   0.524   2.200   4.138
 2379TIP3   OH2 7081   0.118   2.146   3.519
 2379TIP3    H1 7082   0.024   2.151   3.539
 2379TIP3    H2 7083   0.141   2.235   3.493
 2380TIP3   OH2 7084   0.835   1.878   4.046
 2380TIP3    H1 7085   0.837   1.868   4.141
 2380TIP3    H2 7086   0.904   1.820   4.014
 2381TIP3   OH2 7087   0.811   1.799   2.964
 2381TIP3    H1 7088   0.863   1.772   3.039
 2381TIP3    H2 7089   0.737   1.739   2.963
 2382TIP3   OH2 7090   1.080   2.421   4.103
 2382TIP3    H1 7091   1.013   2.352   4.097
 2382TIP3    H2 7092   1.062   2.478   4.028
 2383TIP3   OH2 7093   1.148   2.252   2.752
 2383TIP3    H1 7094   1.186   2.319   2.694
 2383TIP3    H2 7095   1.070   2.293   2.788
 2384TIP3   OH2 7096   0.957   1.727   3.190
 2384TIP3    H1 7097   0.938   1.640   3.224
 2384TIP3    H2 7098   1.052   1.729   3.180
 2385TIP3   OH2 7099   8.382   2.098   4.254
 2385TIP3    H1 7100   8.443   2.034   4.290
 2385TIP3    H2 7101   8.404   2.179   4.299
 2386TIP3   OH2 7102   1.004   1.095   4.309
 2386TIP3    H1 7103   1.089   1.135   4.330
 2386TIP3    H2 7104   1.005   1.011   4.354
 2387TIP3   OH2 7105   0.403   1.948   3.148
 2387TIP3    H1 7106   0.348   1.974   3.223
 2387TIP3    H2 7107   0.422   2.031   3.103
 2388TIP3   OH2 7108   0.844   1.327   4.377
 2388TIP3    H1 7109   0.874   1.374   4.455
 2388TIP3    H2 7110   0.895   1.247   4.376
 2389TIP3   OH2 7111   1.482   1.232   4.359
 2389TIP3    H1 7112   1.387   1.228   4.368
 2389TIP3    H2 7113   1.499   1.195   4.272
 2390TIP3   OH2 7114   1.135   1.425   3.748
 2390TIP3    H1 7115   1.060   1.367   3.759
 2390TIP3    H2 7116   1.207   1.381   3.793
 2391TIP3   OH2 7117   1.107   2.391   3.692
 2391TIP3    H1 7118   1.063   2.434   3.619
 2391TIP3    H2 7119   1.200   2.411   3.680
 2392TIP3   OH2 7120   8.406   2.433   4.647
 2392TIP3    H1 7121   8.481   2.442   4.705
 2392TIP3    H2 7122   8.369   2.347   4.667
 2393TIP3   OH2 7123   0.356   2.371   4.719
 2393TIP3    H1 7124   0.450   2.356   4.727
 2393TIP3    H2 7125   0.329   2.314   4.647
 2394TIP3   OH2 7126   1.014   2.277   4.460
 2394TIP3    H1 7127   0.996   2.213   4.529
 2394TIP3    H2 7128   1.076   2.339   4.501
 2395TIP3   OH2 7129   0.784   1.990   2.761
 2395TIP3    H1 7130   0.809   1.923   2.825
 2395TIP3    H2 7131   0.853   1.987   2.695
 2396TIP3   OH2 7132   8.503   1.809   4.869
 2396TIP3    H1 7133   8.537   1.719   4.871
 2396TIP3    H2 7134   8.408   1.798   4.862
 2397TIP3   OH2 7135   0.614   1.905   4.647
 2397TIP3    H1 7136   0.573   1.925   4.563
 2397TIP3    H2 7137   0.645   1.815   4.638
 2398TIP3   OH2 7138   0.115   1.556   4.865
 2398TIP3    H1 7139   0.178   1.486   4.851
 2398TIP3    H2 7140   0.125   1.580   4.957
 2399TIP3   OH2 7141   0.460   1.432   4.509
 2399TIP3    H1 7142   0.391   1.498   4.516
 2399TIP3    H2 7143   0.518   1.465   4.440
 2400TIP3   OH2 7144   0.983   1.839   4.653
 2400TIP3    H1 7145   1.068   1.812   4.617
 2400TIP3    H2 7146   0.967   1.776   4.724
 2401TIP3   OH2 7147   0.583   1.219   4.633
 2401TIP3    H1 7148   0.596   1.145   4.573
 2401TIP3    H2 7149   0.544   1.287   4.578
 2402TIP3   OH2 7150   0.607   1.020   4.445
 2402TIP3    H1 7151   0.631   1.059   4.361
 2402TIP3    H2 7152   0.520   0.983   4.430
 2403TIP3   OH2 7153   0.611   1.548   4.324
 2403TIP3    H1 7154   0.698   1.554   4.283
 2403TIP3    H2 7155   0.558   1.612   4.277
 2404TIP3   OH2 7156   1.196   1.512   4.704
 2404TIP3    H1 7157   1.232   1.425   4.719
 2404TIP3    H2 7158   1.270   1.563   4.671
 2405TIP3   OH2 7159   1.228   1.780   4.439
 2405TIP3    H1 7160   1.166   1.812   4.373
 2405TIP3    H2 7161   1.314   1.796   4.400
 2406TIP3   OH2 7162   0.494   1.335   4.869
 2406TIP3    H1 7163   0.402   1.320   4.893
 2406TIP3    H2 7164   0.504   1.290   4.785
 2407TIP3   OH2 7165   0.758   0.799   4.498
 2407TIP3    H1 7166   0.712   0.880   4.481
 2407TIP3    H2 7167   0.690   0.732   4.500
 2408TIP3   OH2 7168   0.838   1.278   4.738
 2408TIP3    H1 7169   0.831   1.263   4.832
 2408TIP3    H2 7170   0.753   1.253   4.702
 2409TIP3   OH2 7171   1.084   1.235   4.597
 2409TIP3    H1 7172   1.010   1.230   4.656
 2409TIP3    H2 7173   1.158   1.201   4.647
 2410TIP3   OH2 7174   1.312   1.168   4.741
 2410TIP3    H1 7175   1.326   1.074   4.757
 2410TIP3    H2 7176   1.308   1.207   4.828
 2411TIP3   OH2 7177   0.800   0.764   4.765
 2411TIP3    H1 7178   0.877   0.707   4.770
 2411TIP3    H2 7179   0.788   0.781   4.672
 2412TIP3   OH2 7180   0.879   0.999   4.912
 2412TIP3    H1 7181   0.846   0.925   4.861
 2412TIP3    H2 7182   0.803   1.057   4.923
 2413TIP3   OH2 7183   8.106   2.094   3.870
 2413TIP3    H1 7184   8.120   2.014   3.920
 2413TIP3    H2 7185   8.167   2.158   3.908
 2414TIP3   OH2 7186   1.364   2.484   3.672
 2414TIP3    H1 7187   1.431   2.473   3.739
 2414TIP3    H2 7188   1.402   2.545   3.609
 2415TIP3   OH2 7189   1.369   2.192   4.455
 2415TIP3    H1 7190   1.331   2.172   4.541
 2415TIP3    H2 7191   1.440   2.253   4.474
 2416TIP3   OH2 7192   1.223   1.718   3.173
 2416TIP3    H1 7193   1.256   1.714   3.083
 2416TIP3    H2 7194   1.285   1.666   3.223
 2417TIP3   OH2 7195   1.381   1.538   3.325
 2417TIP3    H1 7196   1.312   1.503   3.381
 2417TIP3    H2 7197   1.440   1.585   3.385
 2418TIP3   OH2 7198   1.249   2.188   4.042
 2418TIP3    H1 7199   1.212   2.273   4.021
 2418TIP3    H2 7200   1.231   2.134   3.965
 2419TIP3   OH2 7201   1.271   1.413   3.001
 2419TIP3    H1 7202   1.208   1.445   2.936
 2419TIP3    H2 7203   1.322   1.491   3.024
 2420TIP3   OH2 7204   1.188   1.410   3.477
 2420TIP3    H1 7205   1.181   1.316   3.464
 2420TIP3    H2 7206   1.175   1.423   3.571
 2421TIP3   OH2 7207   8.325   1.474   4.241
 2421TIP3    H1 7208   8.322   1.493   4.147
 2421TIP3    H2 7209   8.418   1.476   4.263
 2422TIP3   OH2 7210   1.476   1.841   4.331
 2422TIP3    H1 7211   1.533   1.764   4.328
 2422TIP3    H2 7212   1.476   1.875   4.241
 2423TIP3   OH2 7213   1.662   1.640   4.364
 2423TIP3    H1 7214   1.584   1.589   4.386
 2423TIP3    H2 7215   1.734   1.577   4.370
 2424TIP3   OH2 7216   1.187   1.143   3.392
 2424TIP3    H1 7217   1.225   1.062   3.425
 2424TIP3    H2 7218   1.243   1.169   3.319
 2425TIP3   OH2 7219   1.352   1.295   3.869
 2425TIP3    H1 7220   1.433   1.316   3.823
 2425TIP3    H2 7221   1.360   1.338   3.954
 2426TIP3   OH2 7222   1.416   1.448   4.091
 2426TIP3    H1 7223   1.337   1.469   4.140
 2426TIP3    H2 7224   1.450   1.532   4.063
 2427TIP3   OH2 7225   1.868   1.034   4.649
 2427TIP3    H1 7226   1.928   0.970   4.611
 2427TIP3    H2 7227   1.839   1.087   4.575
 2428TIP3   OH2 7228   1.308   0.914   3.448
 2428TIP3    H1 7229   1.338   0.866   3.525
 2428TIP3    H2 7230   1.278   0.846   3.388
 2429TIP3   OH2 7231   1.737   1.172   4.453
 2429TIP3    H1 7232   1.656   1.216   4.478
 2429TIP3    H2 7233   1.709   1.099   4.399
 2430TIP3   OH2 7234   0.938   2.349   3.307
 2430TIP3    H1 7235   0.986   2.330   3.226
 2430TIP3    H2 7236   0.998   2.405   3.357
 2431TIP3   OH2 7237   0.042   2.146   4.700
 2431TIP3    H1 7238  -0.015   2.072   4.677
 2431TIP3    H2 7239   0.056   2.136   4.794
 2432TIP3   OH2 7240   0.223   2.183   4.238
 2432TIP3    H1 7241   0.174   2.257   4.203
 2432TIP3    H2 7242   0.309   2.191   4.197
 2433TIP3   OH2 7243   0.664   2.422   4.379
 2433TIP3    H1 7244   0.703   2.419   4.466
 2433TIP3    H2 7245   0.727   2.473   4.326
 2434TIP3   OH2 7246   0.844   2.576   4.241
 2434TIP3    H1 7247   0.910   2.525   4.194
 2434TIP3    H2 7248   0.896   2.632   4.300
 2435TIP3   OH2 7249   1.639   0.933   4.337
 2435TIP3    H1 7250   1.550   0.928   4.301
 2435TIP3    H2 7251   1.673   0.844   4.330
 2436TIP3   OH2 7252   8.391   2.435   4.268
 2436TIP3    H1 7253   8.301   2.462   4.248
 2436TIP3    H2 7254   8.410   2.476   4.353
 2437TIP3   OH2 7255   0.130   2.416   4.127
 2437TIP3    H1 7256   0.045   2.426   4.170
 2437TIP3    H2 7257   0.115   2.443   4.036
 2438TIP3   OH2 7258   0.557   2.441   3.924
 2438TIP3    H1 7259   0.490   2.457   3.857
 2438TIP3    H2 7260   0.570   2.526   3.966
 2439TIP3   OH2 7261   0.827   2.381   3.976
 2439TIP3    H1 7262   0.735   2.396   3.956
 2439TIP3    H2 7263   0.873   2.451   3.929
 2440TIP3   OH2 7264   1.032   2.571   3.882
 2440TIP3    H1 7265   1.022   2.655   3.836
 2440TIP3    H2 7266   1.061   2.510   3.813
 2441TIP3   OH2 7267   8.314   2.227   4.003
 2441TIP3    H1 7268   8.325   2.203   4.095
 2441TIP3    H2 7269   8.381   2.176   3.957
 2442TIP3   OH2 7270   0.005   2.089   3.865
 2442TIP3    H1 7271   0.019   2.011   3.919
 2442TIP3    H2 7272   0.091   2.131   3.861
 2443TIP3   OH2 7273   0.272   2.191   3.878
 2443TIP3    H1 7274   0.301   2.102   3.860
 2443TIP3    H2 7275   0.318   2.217   3.958
 2444TIP3   OH2 7276   0.843   0.858   3.957
 2444TIP3    H1 7277   0.803   0.791   4.013
 2444TIP3    H2 7278   0.913   0.812   3.910
 2445TIP3   OH2 7279   1.364   0.735   3.876
 2445TIP3    H1 7280   1.407   0.778   3.802
 2445TIP3    H2 7281   1.271   0.748   3.860
 2446TIP3   OH2 7282   1.483   0.823   3.645
 2446TIP3    H1 7283   1.549   0.773   3.597
 2446TIP3    H2 7284   1.504   0.914   3.626
 2447TIP3   OH2 7285   1.080   0.734   3.838
 2447TIP3    H1 7286   1.089   0.703   3.748
 2447TIP3    H2 7287   1.071   0.654   3.890
 2448TIP3   OH2 7288   0.377   2.278   2.950
 2448TIP3    H1 7289   0.459   2.230   2.936
 2448TIP3    H2 7290   0.309   2.219   2.920
 2449TIP3   OH2 7291   1.083   2.303   3.078
 2449TIP3    H1 7292   1.078   2.208   3.069
 2449TIP3    H2 7293   1.046   2.337   2.996
 2450TIP3   OH2 7294   1.382   0.899   4.774
 2450TIP3    H1 7295   1.398   0.870   4.864
 2450TIP3    H2 7296   1.468   0.896   4.732
 2451TIP3   OH2 7297   1.281   2.429   4.276
 2451TIP3    H1 7298   1.209   2.427   4.213
 2451TIP3    H2 7299   1.306   2.521   4.283
 2452TIP3   OH2 7300   2.580   1.824   3.021
 2452TIP3    H1 7301   2.549   1.913   3.004
 2452TIP3    H2 7302   2.503   1.769   3.006
 2453TIP3   OH2 7303   2.545   1.820   3.412
 2453TIP3    H1 7304   2.609   1.817   3.483
 2453TIP3    H2 7305   2.529   1.728   3.390
 2454TIP3   OH2 7306   1.962   1.723   3.762
 2454TIP3    H1 7307   1.957   1.636   3.801
 2454TIP3    H2 7308   1.871   1.753   3.758
 2455TIP3   OH2 7309   1.907   2.155   3.546
 2455TIP3    H1 7310   1.838   2.089   3.543
 2455TIP3    H2 7311   1.966   2.132   3.475
 2456TIP3   OH2 7312   1.558   1.327   3.280
 2456TIP3    H1 7313   1.511   1.409   3.298
 2456TIP3    H2 7314   1.491   1.268   3.247
 2457TIP3   OH2 7315   1.617   1.622   3.452
 2457TIP3    H1 7316   1.661   1.548   3.494
 2457TIP3    H2 7317   1.668   1.639   3.373
 2458TIP3   OH2 7318   2.473   2.584   3.113
 2458TIP3    H1 7319   2.511   2.519   3.054
 2458TIP3    H2 7320   2.482   2.546   3.200
 2459TIP3   OH2 7321   2.371   2.045   3.446
 2459TIP3    H1 7322   2.406   1.964   3.410
 2459TIP3    H2 7323   2.448   2.091   3.481
 2460TIP3   OH2 7324   3.397   1.368   3.457
 2460TIP3    H1 7325   3.423   1.452   3.496
 2460TIP3    H2 7326   3.413   1.379   3.363
 2461TIP3   OH2 7327   2.783   1.539   3.493
 2461TIP3    H1 7328   2.830   1.457   3.505
 2461TIP3    H2 7329   2.749   1.534   3.403
 2462TIP3   OH2 7330   2.122   1.213   3.460
 2462TIP3    H1 7331   2.110   1.283   3.396
 2462TIP3    H2 7332   2.081   1.136   3.421
 2463TIP3   OH2 7333   2.829   1.318   3.107
 2463TIP3    H1 7334   2.911   1.297   3.151
 2463TIP3    H2 7335   2.846   1.302   3.014
 2464TIP3   OH2 7336   1.763   1.415   3.563
 2464TIP3    H1 7337   1.835   1.379   3.615
 2464TIP3    H2 7338   1.766   1.365   3.481
 2465TIP3   OH2 7339   2.195   1.600   3.366
 2465TIP3    H1 7340   2.288   1.583   3.377
 2465TIP3    H2 7341   2.160   1.519   3.328
 2466TIP3   OH2 7342   3.467   1.581   3.629
 2466TIP3    H1 7343   3.385   1.623   3.603
 2466TIP3    H2 7344   3.482   1.611   3.719
 2467TIP3   OH2 7345   2.124   1.198   3.891
 2467TIP3    H1 7346   2.067   1.233   3.823
 2467TIP3    H2 7347   2.074   1.208   3.972
 2468TIP3   OH2 7348   2.463   2.045   2.898
 2468TIP3    H1 7349   2.429   2.032   2.810
 2468TIP3    H2 7350   2.422   2.127   2.928
 2469TIP3   OH2 7351   3.052   1.299   3.259
 2469TIP3    H1 7352   3.022   1.260   3.341
 2469TIP3    H2 7353   3.092   1.382   3.285
 2470TIP3   OH2 7354   1.993   1.313   3.676
 2470TIP3    H1 7355   2.035   1.398   3.682
 2470TIP3    H2 7356   2.039   1.268   3.605
 2471TIP3   OH2 7357   2.053   2.157   3.769
 2471TIP3    H1 7358   1.990   2.156   3.698
 2471TIP3    H2 7359   2.000   2.156   3.849
 2472TIP3   OH2 7360   1.534   1.868   3.064
 2472TIP3    H1 7361   1.455   1.838   3.019
 2472TIP3    H2 7362   1.520   1.962   3.078
 2473TIP3   OH2 7363   3.185   1.269   3.622
 2473TIP3    H1 7364   3.098   1.291   3.590
 2473TIP3    H2 7365   3.245   1.299   3.554
 2474TIP3   OH2 7366   2.475   0.906   3.609
 2474TIP3    H1 7367   2.461   0.812   3.623
 2474TIP3    H2 7368   2.402   0.948   3.654
 2475TIP3   OH2 7369   2.586   2.417   2.920
 2475TIP3    H1 7370   2.633   2.335   2.905
 2475TIP3    H2 7371   2.645   2.485   2.887
 2476TIP3   OH2 7372   2.729   2.199   2.846
 2476TIP3    H1 7373   2.702   2.126   2.791
 2476TIP3    H2 7374   2.777   2.158   2.918
 2477TIP3   OH2 7375   3.176   2.268   3.601
 2477TIP3    H1 7376   3.126   2.202   3.553
 2477TIP3    H2 7377   3.135   2.351   3.579
 2478TIP3   OH2 7378   2.405   1.669   2.856
 2478TIP3    H1 7379   2.329   1.725   2.842
 2478TIP3    H2 7380   2.458   1.681   2.777
 2479TIP3   OH2 7381   2.402   1.410   2.606
 2479TIP3    H1 7382   2.434   1.484   2.659
 2479TIP3    H2 7383   2.450   1.417   2.523
 2480TIP3   OH2 7384   3.327   1.918   3.447
 2480TIP3    H1 7385   3.240   1.958   3.451
 2480TIP3    H2 7386   3.358   1.936   3.358
 2481TIP3   OH2 7387   2.758   1.752   2.829
 2481TIP3    H1 7388   2.703   1.774   2.904
 2481TIP3    H2 7389   2.842   1.727   2.867
 2482TIP3   OH2 7390   2.989   1.805   3.740
 2482TIP3    H1 7391   2.967   1.891   3.775
 2482TIP3    H2 7392   2.912   1.778   3.690
 2483TIP3   OH2 7393   1.992   1.753   3.255
 2483TIP3    H1 7394   1.953   1.698   3.187
 2483TIP3    H2 7395   2.064   1.701   3.290
 2484TIP3   OH2 7396   2.141   2.180   3.405
 2484TIP3    H1 7397   2.116   2.161   3.314
 2484TIP3    H2 7398   2.221   2.129   3.420
 2485TIP3   OH2 7399   2.260   2.281   3.936
 2485TIP3    H1 7400   2.201   2.343   3.980
 2485TIP3    H2 7401   2.204   2.235   3.874
 2486TIP3   OH2 7402   2.591   1.625   2.651
 2486TIP3    H1 7403   2.650   1.676   2.706
 2486TIP3    H2 7404   2.620   1.642   2.561
 2487TIP3   OH2 7405   2.027   1.872   3.992
 2487TIP3    H1 7406   2.038   1.943   4.056
 2487TIP3    H2 7407   1.953   1.821   4.026
 2488TIP3   OH2 7408   2.341   2.296   2.936
 2488TIP3    H1 7409   2.425   2.342   2.938
 2488TIP3    H2 7410   2.282   2.354   2.888
 2489TIP3   OH2 7411   2.049   2.442   4.015
 2489TIP3    H1 7412   1.990   2.457   3.941
 2489TIP3    H2 7413   1.990   2.425   4.089
 2490TIP3   OH2 7414   3.112   0.858   2.712
 2490TIP3    H1 7415   3.030   0.879   2.756
 2490TIP3    H2 7416   3.129   0.934   2.656
 2491TIP3   OH2 7417   1.863   1.599   3.052
 2491TIP3    H1 7418   1.801   1.649   2.998
 2491TIP3    H2 7419   1.819   1.515   3.068
 2492TIP3   OH2 7420   2.917   2.222   2.260
 2492TIP3    H1 7421   2.927   2.315   2.239
 2492TIP3    H2 7422   3.005   2.186   2.246
 2493TIP3   OH2 7423   1.532   2.221   3.581
 2493TIP3    H1 7424   1.565   2.135   3.603
 2493TIP3    H2 7425   1.496   2.255   3.663
 2494TIP3   OH2 7426   3.350   2.624   3.646
 2494TIP3    H1 7427   3.308   2.559   3.589
 2494TIP3    H2 7428   3.280   2.653   3.705
 2495TIP3   OH2 7429   2.441   2.415   3.779
 2495TIP3    H1 7430   2.454   2.503   3.813
 2495TIP3    H2 7431   2.390   2.370   3.846
 2496TIP3   OH2 7432   2.223   2.537   2.738
 2496TIP3    H1 7433   2.179   2.520   2.654
 2496TIP3    H2 7434   2.193   2.624   2.763
 2497TIP3   OH2 7435   1.663   2.390   3.120
 2497TIP3    H1 7436   1.698   2.365   3.205
 2497TIP3    H2 7437   1.608   2.315   3.094
 2498TIP3   OH2 7438   2.426   2.441   2.375
 2498TIP3    H1 7439   2.482   2.373   2.337
 2498TIP3    H2 7440   2.460   2.453   2.464
 2499TIP3   OH2 7441   2.475   2.491   2.646
 2499TIP3    H1 7442   2.388   2.500   2.685
 2499TIP3    H2 7443   2.529   2.457   2.717
 2500TIP3   OH2 7444   3.229   1.755   3.912
 2500TIP3    H1 7445   3.150   1.756   3.858
 2500TIP3    H2 7446   3.258   1.664   3.910
 2501TIP3   OH2 7447   1.856   2.127   3.945
 2501TIP3    H1 7448   1.888   2.123   4.035
 2501TIP3    H2 7449   1.783   2.189   3.948
 2502TIP3   OH2 7450   2.239   0.989   3.738
 2502TIP3    H1 7451   2.156   0.954   3.704
 2502TIP3    H2 7452   2.213   1.067   3.787
 2503TIP3   OH2 7453   2.777   1.104   3.930
 2503TIP3    H1 7454   2.845   1.075   3.990
 2503TIP3    H2 7455   2.695   1.082   3.974
 2504TIP3   OH2 7456   3.011   1.535   3.848
 2504TIP3    H1 7457   2.962   1.531   3.931
 2504TIP3    H2 7458   2.983   1.618   3.809
 2505TIP3   OH2 7459   2.673   1.659   2.397
 2505TIP3    H1 7460   2.640   1.637   2.310
 2505TIP3    H2 7461   2.758   1.700   2.380
 2506TIP3   OH2 7462   2.364   1.065   2.705
 2506TIP3    H1 7463   2.416   1.047   2.783
 2506TIP3    H2 7464   2.330   0.980   2.678
 2507TIP3   OH2 7465   2.053   1.385   3.266
 2507TIP3    H1 7466   1.963   1.361   3.285
 2507TIP3    H2 7467   2.072   1.345   3.182
 2508TIP3   OH2 7468   2.557   1.481   2.995
 2508TIP3    H1 7469   2.502   1.546   2.950
 2508TIP3    H2 7470   2.615   1.447   2.927
 2509TIP3   OH2 7471   2.724   1.748   4.081
 2509TIP3    H1 7472   2.701   1.676   4.141
 2509TIP3    H2 7473   2.817   1.763   4.097
 2510TIP3   OH2 7474   2.692   1.508   3.236
 2510TIP3    H1 7475   2.634   1.533   3.164
 2510TIP3    H2 7476   2.738   1.431   3.203
 2511TIP3   OH2 7477   2.027   1.533   3.978
 2511TIP3    H1 7478   1.985   1.598   4.034
 2511TIP3    H2 7479   2.008   1.449   4.020
 2512TIP3   OH2 7480   2.042   0.996   2.683
 2512TIP3    H1 7481   2.043   0.995   2.778
 2512TIP3    H2 7482   1.974   1.058   2.660
 2513TIP3   OH2 7483   1.588   1.050   3.548
 2513TIP3    H1 7484   1.662   1.084   3.598
 2513TIP3    H2 7485   1.625   1.026   3.463
 2514TIP3   OH2 7486   1.589   1.058   3.070
 2514TIP3    H1 7487   1.625   1.080   2.983
 2514TIP3    H2 7488   1.519   1.121   3.083
 2515TIP3   OH2 7489   2.738   1.737   3.667
 2515TIP3    H1 7490   2.754   1.671   3.599
 2515TIP3    H2 7491   2.679   1.693   3.729
 2516TIP3   OH2 7492   2.377   1.202   3.327
 2516TIP3    H1 7493   2.304   1.208   3.389
 2516TIP3    H2 7494   2.455   1.202   3.383
 2517TIP3   OH2 7495   1.817   1.268   3.337
 2517TIP3    H1 7496   1.726   1.276   3.307
 2517TIP3    H2 7497   1.842   1.178   3.314
 2518TIP3   OH2 7498   2.088   1.254   3.034
 2518TIP3    H1 7499   2.181   1.272   3.023
 2518TIP3    H2 7500   2.048   1.287   2.954
 2519TIP3   OH2 7501   2.877   1.283   3.540
 2519TIP3    H1 7502   2.838   1.301   3.625
 2519TIP3    H2 7503   2.816   1.222   3.498
 2520TIP3   OH2 7504   1.937   1.305   2.812
 2520TIP3    H1 7505   1.857   1.263   2.780
 2520TIP3    H2 7506   1.982   1.335   2.734
 2521TIP3   OH2 7507   3.053   2.975   3.750
 2521TIP3    H1 7508   3.045   3.000   3.658
 2521TIP3    H2 7509   3.129   3.022   3.782
 2522TIP3   OH2 7510   2.010   2.085   4.181
 2522TIP3    H1 7511   2.088   2.116   4.227
 2522TIP3    H2 7512   1.943   2.079   4.249
 2523TIP3   OH2 7513   2.468   1.535   3.421
 2523TIP3    H1 7514   2.537   1.506   3.361
 2523TIP3    H2 7515   2.485   1.486   3.502
 2524TIP3   OH2 7516   1.987   1.025   3.312
 2524TIP3    H1 7517   1.949   0.951   3.359
 2524TIP3    H2 7518   2.037   0.985   3.241
 2525TIP3   OH2 7519   2.449   1.431   3.722
 2525TIP3    H1 7520   2.373   1.482   3.751
 2525TIP3    H2 7521   2.524   1.478   3.757
 2526TIP3   OH2 7522   2.178   1.827   2.812
 2526TIP3    H1 7523   2.111   1.760   2.798
 2526TIP3    H2 7524   2.160   1.861   2.899
 2527TIP3   OH2 7525   3.097   2.049   3.454
 2527TIP3    H1 7526   3.088   2.121   3.391
 2527TIP3    H2 7527   3.010   2.010   3.457
 2528TIP3   OH2 7528   2.632   1.170   2.675
 2528TIP3    H1 7529   2.635   1.105   2.745
 2528TIP3    H2 7530   2.685   1.243   2.708
 2529TIP3   OH2 7531   2.565   2.144   3.836
 2529TIP3    H1 7532   2.617   2.158   3.916
 2529TIP3    H2 7533   2.553   2.232   3.801
 2530TIP3   OH2 7534   2.723   1.401   2.780
 2530TIP3    H1 7535   2.817   1.401   2.800
 2530TIP3    H2 7536   2.712   1.477   2.723
 2531TIP3   OH2 7537   1.905   1.863   3.495
 2531TIP3    H1 7538   1.935   1.844   3.406
 2531TIP3    H2 7539   1.863   1.782   3.524
 2532TIP3   OH2 7540   2.322   1.976   2.633
 2532TIP3    H1 7541   2.278   2.061   2.633
 2532TIP3    H2 7542   2.271   1.923   2.694
 2533TIP3   OH2 7543   1.802   1.747   4.097
 2533TIP3    H1 7544   1.784   1.739   4.191
 2533TIP3    H2 7545   1.716   1.744   4.056
 2534TIP3   OH2 7546   2.490   1.889   4.120
 2534TIP3    H1 7547   2.431   1.833   4.069
 2534TIP3    H2 7548   2.578   1.859   4.097
 2535TIP3   OH2 7549   2.738   2.377   3.739
 2535TIP3    H1 7550   2.660   2.404   3.692
 2535TIP3    H2 7551   2.757   2.450   3.798
 2536TIP3   OH2 7552   3.146   1.485   2.608
 2536TIP3    H1 7553   3.084   1.437   2.553
 2536TIP3    H2 7554   3.147   1.573   2.572
 2537TIP3   OH2 7555   2.849   2.297   2.520
 2537TIP3    H1 7556   2.826   2.223   2.576
 2537TIP3    H2 7557   2.867   2.258   2.435
 2538TIP3   OH2 7558   2.864   1.888   3.400
 2538TIP3    H1 7559   2.777   1.925   3.385
 2538TIP3    H2 7560   2.881   1.832   3.325
 2539TIP3   OH2 7561   1.969   2.162   3.123
 2539TIP3    H1 7562   1.971   2.237   3.064
 2539TIP3    H2 7563   1.886   2.117   3.103
 2540TIP3   OH2 7564   1.554   1.468   2.829
 2540TIP3    H1 7565   1.619   1.538   2.837
 2540TIP3    H2 7566   1.470   1.511   2.846
 2541TIP3   OH2 7567   2.100   1.919   3.053
 2541TIP3    H1 7568   2.078   2.009   3.079
 2541TIP3    H2 7569   2.072   1.866   3.127
 2542TIP3   OH2 7570   2.217   2.474   3.558
 2542TIP3    H1 7571   2.246   2.553   3.512
 2542TIP3    H2 7572   2.283   2.459   3.625
 2543TIP3   OH2 7573   1.895   2.397   2.965
 2543TIP3    H1 7574   1.809   2.407   3.006
 2543TIP3    H2 7575   1.932   2.486   2.965
 2544TIP3   OH2 7576   2.618   2.124   3.530
 2544TIP3    H1 7577   2.643   2.113   3.622
 2544TIP3    H2 7578   2.695   2.165   3.490
 2545TIP3   OH2 7579   2.607   2.028   2.430
 2545TIP3    H1 7580   2.663   2.003   2.504
 2545TIP3    H2 7581   2.519   2.002   2.457
 2546TIP3   OH2 7582   2.877   2.663   3.586
 2546TIP3    H1 7583   2.797   2.613   3.570
 2546TIP3    H2 7584   2.872   2.736   3.524
 2547TIP3   OH2 7585   2.945   2.500   2.240
 2547TIP3    H1 7586   2.984   2.570   2.187
 2547TIP3    H2 7587   2.865   2.539   2.275
 2548TIP3   OH2 7588   1.962   1.270   4.106
 2548TIP3    H1 7589   1.867   1.277   4.114
 2548TIP3    H2 7590   1.988   1.214   4.179
 2549TIP3   OH2 7591   2.770   1.960   2.645
 2549TIP3    H1 7592   2.758   1.890   2.709
 2549TIP3    H2 7593   2.864   1.957   2.624
 2550TIP3   OH2 7594   1.970   2.002   2.420
 2550TIP3    H1 7595   1.985   1.911   2.394
 2550TIP3    H2 7596   1.950   1.998   2.513
 2551TIP3   OH2 7597   1.921   2.014   2.692
 2551TIP3    H1 7598   1.990   1.983   2.751
 2551TIP3    H2 7599   1.923   2.109   2.698
 2552TIP3   OH2 7600   1.674   1.707   2.887
 2552TIP3    H1 7601   1.608   1.734   2.950
 2552TIP3    H2 7602   1.675   1.778   2.822
 2553TIP3   OH2 7603   2.792   1.352   3.802
 2553TIP3    H1 7604   2.880   1.382   3.824
 2553TIP3    H2 7605   2.784   1.268   3.848
 2554TIP3   OH2 7606   2.184   2.210   2.642
 2554TIP3    H1 7607   2.098   2.231   2.678
 2554TIP3    H2 7608   2.202   2.281   2.581
 2555TIP3   OH2 7609   2.357   1.286   3.057
 2555TIP3    H1 7610   2.434   1.341   3.041
 2555TIP3    H2 7611   2.371   1.249   3.144
 2556TIP3   OH2 7612   2.628   1.580   3.867
 2556TIP3    H1 7613   2.661   1.636   3.937
 2556TIP3    H2 7614   2.688   1.505   3.865
 2557TIP3   OH2 7615   1.931   2.285   2.713
 2557TIP3    H1 7616   1.902   2.350   2.648
 2557TIP3    H2 7617   1.914   2.327   2.797
 2558TIP3   OH2 7618   2.044   1.002   2.955
 2558TIP3    H1 7619   2.047   1.092   2.987
 2558TIP3    H2 7620   2.127   0.964   2.985
 2559TIP3   OH2 7621   3.278   1.489   3.846
 2559TIP3    H1 7622   3.182   1.490   3.856
 2559TIP3    H2 7623   3.293   1.448   3.761
 2560TIP3   OH2 7624   2.933   1.672   3.224
 2560TIP3    H1 7625   2.853   1.621   3.239
 2560TIP3    H2 7626   3.000   1.628   3.276
 2561TIP3   OH2 7627   1.655   1.921   2.702
 2561TIP3    H1 7628   1.728   1.982   2.710
 2561TIP3    H2 7629   1.685   1.855   2.639
 2562TIP3   OH2 7630   1.624   1.195   2.804
 2562TIP3    H1 7631   1.613   1.286   2.830
 2562TIP3    H2 7632   1.536   1.166   2.781
 2563TIP3   OH2 7633   2.900   2.675   3.190
 2563TIP3    H1 7634   2.859   2.709   3.111
 2563TIP3    H2 7635   2.992   2.661   3.166
 2564TIP3   OH2 7636   1.977   0.906   3.709
 2564TIP3    H1 7637   1.946   0.876   3.624
 2564TIP3    H2 7638   1.966   0.830   3.766
 2565TIP3   OH2 7639   1.512   2.159   3.094
 2565TIP3    H1 7640   1.441   2.179   3.154
 2565TIP3    H2 7641   1.478   2.182   3.007
 2566TIP3   OH2 7642   1.674   2.679   4.156
 2566TIP3    H1 7643   1.757   2.673   4.204
 2566TIP3    H2 7644   1.669   2.598   4.105
 2567TIP3   OH2 7645   2.152   2.624   4.208
 2567TIP3    H1 7646   2.247   2.620   4.213
 2567TIP3    H2 7647   2.130   2.568   4.133
 2568TIP3   OH2 7648   2.134   2.205   2.330
 2568TIP3    H1 7649   2.079   2.136   2.367
 2568TIP3    H2 7650   2.211   2.159   2.297
 2569TIP3   OH2 7651   2.785   2.550   3.952
 2569TIP3    H1 7652   2.783   2.477   4.014
 2569TIP3    H2 7653   2.866   2.597   3.974
 2570TIP3   OH2 7654   2.569   2.244   2.246
 2570TIP3    H1 7655   2.612   2.183   2.305
 2570TIP3    H2 7656   2.623   2.242   2.166
 2571TIP3   OH2 7657   1.789   2.066   4.358
 2571TIP3    H1 7658   1.818   1.975   4.364
 2571TIP3    H2 7659   1.709   2.062   4.306
 2572TIP3   OH2 7660   1.790   1.732   2.565
 2572TIP3    H1 7661   1.845   1.705   2.639
 2572TIP3    H2 7662   1.851   1.734   2.491
 2573TIP3   OH2 7663   2.411   2.166   4.139
 2573TIP3    H1 7664   2.374   2.191   4.054
 2573TIP3    H2 7665   2.447   2.078   4.125
 2574TIP3   OH2 7666   2.289   1.929   2.364
 2574TIP3    H1 7667   2.294   1.940   2.459
 2574TIP3    H2 7668   2.289   1.835   2.350
 2575TIP3   OH2 7669   2.916   2.174   3.739
 2575TIP3    H1 7670   2.944   2.191   3.649
 2575TIP3    H2 7671   2.844   2.235   3.754
 2576TIP3   OH2 7672   1.927   1.826   4.356
 2576TIP3    H1 7673   1.987   1.756   4.330
 2576TIP3    H2 7674   1.956   1.850   4.445
 2577TIP3   OH2 7675   1.990   1.627   2.780
 2577TIP3    H1 7676   1.956   1.599   2.864
 2577TIP3    H2 7677   2.019   1.547   2.737
 2578TIP3   OH2 7678   2.087   1.416   2.613
 2578TIP3    H1 7679   2.061   1.430   2.522
 2578TIP3    H2 7680   2.182   1.417   2.611
 2579TIP3   OH2 7681   2.773   2.093   4.143
 2579TIP3    H1 7682   2.842   2.062   4.084
 2579TIP3    H2 7683   2.771   2.028   4.213
 2580TIP3   OH2 7684   2.905   1.753   2.283
 2580TIP3    H1 7685   2.902   1.709   2.198
 2580TIP3    H2 7686   2.876   1.843   2.265
 2581TIP3   OH2 7687   2.376   1.473   4.126
 2581TIP3    H1 7688   2.397   1.387   4.091
 2581TIP3    H2 7689   2.312   1.509   4.065
 2582TIP3   OH2 7690   2.385   1.263   3.941
 2582TIP3    H1 7691   2.419   1.292   3.857
 2582TIP3    H2 7692   2.293   1.241   3.924
 2583TIP3   OH2 7693   2.995   1.769   4.191
 2583TIP3    H1 7694   3.034   1.682   4.190
 2583TIP3    H2 7695   3.063   1.827   4.157
 2584TIP3   OH2 7696   3.044   2.039   3.938
 2584TIP3    H1 7697   2.995   2.095   3.879
 2584TIP3    H2 7698   3.112   2.000   3.884
 2585TIP3   OH2 7699   2.262   1.585   4.359
 2585TIP3    H1 7700   2.191   1.525   4.381
 2585TIP3    H2 7701   2.296   1.552   4.276
 2586TIP3   OH2 7702   2.514   1.029   4.008
 2586TIP3    H1 7703   2.466   1.110   3.988
 2586TIP3    H2 7704   2.449   0.960   3.997
 2587TIP3   OH2 7705   2.638   1.532   4.226
 2587TIP3    H1 7706   2.627   1.519   4.320
 2587TIP3    H2 7707   2.553   1.511   4.188
 2588TIP3   OH2 7708   2.884   1.492   4.084
 2588TIP3    H1 7709   2.808   1.488   4.141
 2588TIP3    H2 7710   2.956   1.458   4.136
 2589TIP3   OH2 7711   3.113   1.427   4.230
 2589TIP3    H1 7712   3.125   1.332   4.240
 2589TIP3    H2 7713   3.110   1.461   4.319
 2590TIP3   OH2 7714   2.098   1.369   4.417
 2590TIP3    H1 7715   2.097   1.279   4.384
 2590TIP3    H2 7716   2.134   1.361   4.506
 2591TIP3   OH2 7717   2.611   1.041   4.263
 2591TIP3    H1 7718   2.676   0.971   4.261
 2591TIP3    H2 7719   2.570   1.038   4.177
 2592TIP3   OH2 7720   2.675   1.257   4.420
 2592TIP3    H1 7721   2.657   1.186   4.359
 2592TIP3    H2 7722   2.597   1.313   4.416
 2593TIP3   OH2 7723   1.901   2.487   2.524
 2593TIP3    H1 7724   1.995   2.478   2.506
 2593TIP3    H2 7725   1.867   2.536   2.449
 2594TIP3   OH2 7726   1.380   1.912   2.671
 2594TIP3    H1 7727   1.472   1.931   2.685
 2594TIP3    H2 7728   1.364   1.831   2.720
 2595TIP3   OH2 7729   1.288   2.476   3.155
 2595TIP3    H1 7730   1.225   2.417   3.114
 2595TIP3    H2 7731   1.334   2.421   3.219
 2596TIP3   OH2 7732   1.415   2.330   3.347
 2596TIP3    H1 7733   1.428   2.252   3.401
 2596TIP3    H2 7734   1.447   2.403   3.401
 2597TIP3   OH2 7735   3.167   2.718   3.138
 2597TIP3    H1 7736   3.176   2.757   3.225
 2597TIP3    H2 7737   3.222   2.771   3.081
 2598TIP3   OH2 7738   3.174   2.755   3.416
 2598TIP3    H1 7739   3.128   2.671   3.415
 2598TIP3    H2 7740   3.256   2.737   3.462
 2599TIP3   OH2 7741   3.046   1.941   2.616
 2599TIP3    H1 7742   3.109   2.004   2.580
 2599TIP3    H2 7743   3.092   1.902   2.691
 2600TIP3   OH2 7744   3.176   1.807   2.820
 2600TIP3    H1 7745   3.109   1.764   2.873
 2600TIP3    H2 7746   3.237   1.844   2.883
 2601TIP3   OH2 7747   3.255   2.212   3.265
 2601TIP3    H1 7748   3.283   2.140   3.209
 2601TIP3    H2 7749   3.202   2.268   3.208
 2602TIP3   OH2 7750   3.071   2.505   3.463
 2602TIP3    H1 7751   2.997   2.549   3.505
 2602TIP3    H2 7752   3.031   2.434   3.412
 2603TIP3   OH2 7753   3.108   1.718   2.463
 2603TIP3    H1 7754   3.041   1.714   2.395
 2603TIP3    H2 7755   3.083   1.793   2.517
 2604TIP3   OH2 7756   2.976   1.393   2.422
 2604TIP3    H1 7757   2.949   1.426   2.336
 2604TIP3    H2 7758   2.950   1.301   2.421
 2605TIP3   OH2 7759   2.986   1.661   2.957
 2605TIP3    H1 7760   2.990   1.566   2.944
 2605TIP3    H2 7761   2.971   1.672   3.051
 2606TIP3   OH2 7762   3.442   1.919   3.869
 2606TIP3    H1 7763   3.366   1.862   3.882
 2606TIP3    H2 7764   3.517   1.860   3.874
 2607TIP3   OH2 7765   2.915   1.130   2.430
 2607TIP3    H1 7766   3.000   1.094   2.457
 2607TIP3    H2 7767   2.859   1.053   2.418
 2608TIP3   OH2 7768   2.991   1.382   2.846
 2608TIP3    H1 7769   3.026   1.295   2.868
 2608TIP3    H2 7770   3.048   1.413   2.776
 2609TIP3   OH2 7771   3.148   1.549   3.359
 2609TIP3    H1 7772   3.228   1.572   3.313
 2609TIP3    H2 7773   3.156   1.589   3.445
 2610TIP3   OH2 7774   3.216   1.703   3.583
 2610TIP3    H1 7775   3.137   1.737   3.624
 2610TIP3    H2 7776   3.252   1.778   3.535
 2611TIP3   OH2 7777   1.832   1.426   4.389
 2611TIP3    H1 7778   1.928   1.423   4.390
 2611TIP3    H2 7779   1.805   1.341   4.423
 2612TIP3   OH2 7780   3.665   1.292   4.136
 2612TIP3    H1 7781   3.725   1.229   4.098
 2612TIP3    H2 7782   3.635   1.345   4.062
 2613TIP3   OH2 7783   3.090   1.129   2.899
 2613TIP3    H1 7784   3.137   1.113   2.980
 2613TIP3    H2 7785   3.024   1.059   2.895
 2614TIP3   OH2 7786   1.796   1.115   3.716
 2614TIP3    H1 7787   1.853   1.038   3.723
 2614TIP3    H2 7788   1.857   1.189   3.713
 2615TIP3   OH2 7789   1.594   1.398   3.795
 2615TIP3    H1 7790   1.642   1.404   3.712
 2615TIP3    H2 7791   1.585   1.489   3.824
 2616TIP3   OH2 7792   3.531   1.428   3.940
 2616TIP3    H1 7793   3.446   1.471   3.953
 2616TIP3    H2 7794   3.510   1.352   3.885
 2617TIP3   OH2 7795   3.175   1.058   2.528
 2617TIP3    H1 7796   3.209   0.991   2.469
 2617TIP3    H2 7797   3.237   1.131   2.521
 2618TIP3   OH2 7798   1.580   0.904   3.293
 2618TIP3    H1 7799   1.491   0.910   3.327
 2618TIP3    H2 7800   1.578   0.955   3.212
 2619TIP3   OH2 7801   2.737   2.601   2.793
 2619TIP3    H1 7802   2.789   2.590   2.714
 2619TIP3    H2 7803   2.787   2.661   2.848
 2620TIP3   OH2 7804   1.797   0.971   4.103
 2620TIP3    H1 7805   1.749   0.968   4.186
 2620TIP3    H2 7806   1.736   1.011   4.041
 2621TIP3   OH2 7807   1.840   2.393   4.176
 2621TIP3    H1 7808   1.762   2.376   4.123
 2621TIP3    H2 7809   1.812   2.377   4.266
 2622TIP3   OH2 7810   2.459   2.678   3.867
 2622TIP3    H1 7811   2.498   2.678   3.954
 2622TIP3    H2 7812   2.520   2.729   3.814
 2623TIP3   OH2 7813   2.633   2.836   3.730
 2623TIP3    H1 7814   2.691   2.787   3.673
 2623TIP3    H2 7815   2.692   2.887   3.787
 2624TIP3   OH2 7816   3.435   1.189   3.824
 2624TIP3    H1 7817   3.346   1.184   3.788
 2624TIP3    H2 7818   3.468   1.099   3.816
 2625TIP3   OH2 7819   1.698   2.695   3.734
 2625TIP3    H1 7820   1.613   2.739   3.733
 2625TIP3    H2 7821   1.689   2.629   3.803
 2626TIP3   OH2 7822   2.343   2.696   3.413
 2626TIP3    H1 7823   2.293   2.731   3.339
 2626TIP3    H2 7824   2.372   2.773   3.461
 2627TIP3   OH2 7825   2.624   2.657   3.477
 2627TIP3    H1 7826   2.534   2.655   3.445
 2627TIP3    H2 7827   2.670   2.714   3.415
 2628TIP3   OH2 7828   2.835   2.844   3.385
 2628TIP3    H1 7829   2.817   2.924   3.335
 2628TIP3    H2 7830   2.861   2.780   3.319
 2629TIP3   OH2 7831   1.608   2.477   3.505
 2629TIP3    H1 7832   1.638   2.502   3.593
 2629TIP3    H2 7833   1.610   2.382   3.506
 2630TIP3   OH2 7834   2.647   1.113   3.465
 2630TIP3    H1 7835   2.599   1.040   3.504
 2630TIP3    H2 7836   2.703   1.072   3.398
 2631TIP3   OH2 7837   3.162   0.990   3.351
 2631TIP3    H1 7838   3.198   1.039   3.277
 2631TIP3    H2 7839   3.068   1.004   3.345
 2632TIP3   OH2 7840   3.260   1.081   3.112
 2632TIP3    H1 7841   3.331   1.031   3.072
 2632TIP3    H2 7842   3.286   1.173   3.101
 2633TIP3   OH2 7843   1.885   0.817   3.467
 2633TIP3    H1 7844   1.796   0.786   3.452
 2633TIP3    H2 7845   1.940   0.739   3.457
 2634TIP3   OH2 7846   1.779   0.737   3.197
 2634TIP3    H1 7847   1.741   0.733   3.109
 2634TIP3    H2 7848   1.722   0.799   3.244
 2635TIP3   OH2 7849   2.325   0.846   3.348
 2635TIP3    H1 7850   2.370   0.892   3.277
 2635TIP3    H2 7851   2.358   0.887   3.428
 2636TIP3   OH2 7852   2.883   0.996   3.324
 2636TIP3    H1 7853   2.865   0.970   3.234
 2636TIP3    H2 7854   2.866   0.917   3.376
 2637TIP3   OH2 7855   2.897   0.921   2.891
 2637TIP3    H1 7856   2.807   0.953   2.888
 2637TIP3    H2 7857   2.891   0.835   2.933
 2638TIP3   OH2 7858   1.390   2.267   2.880
 2638TIP3    H1 7859   1.311   2.223   2.850
 2638TIP3    H2 7860   1.381   2.357   2.849
 2639TIP3   OH2 7861   1.797   0.868   2.900
 2639TIP3    H1 7862   1.861   0.799   2.914
 2639TIP3    H2 7863   1.836   0.945   2.942
 2640TIP3   OH2 7864   2.168   2.439   2.468
 2640TIP3    H1 7865   2.254   2.465   2.436
 2640TIP3    H2 7866   2.141   2.367   2.411
 2641TIP3   OH2 7867   2.884   2.563   2.563
 2641TIP3    H1 7868   2.878   2.468   2.555
 2641TIP3    H2 7869   2.841   2.596   2.484
 2642TIP3   OH2 7870   2.098   1.096   4.356
 2642TIP3    H1 7871   2.059   1.026   4.408
 2642TIP3    H2 7872   2.190   1.096   4.381
 2643TIP3   OH2 7873   2.349   1.090   4.472
 2643TIP3    H1 7874   2.432   1.060   4.433
 2643TIP3    H2 7875   2.330   1.025   4.540
 2644TIP3   OH2 7876   1.473   2.282   2.526
 2644TIP3    H1 7877   1.471   2.300   2.620
 2644TIP3    H2 7878   1.557   2.239   2.511
 2645TIP3   OH2 7879   3.176   1.156   4.258
 2645TIP3    H1 7880   3.191   1.125   4.347
 2645TIP3    H2 7881   3.262   1.151   4.216
 2646TIP3   OH2 7882   3.105   2.706   3.745
 2646TIP3    H1 7883   3.029   2.675   3.696
 2646TIP3    H2 7884   3.092   2.800   3.754
 2647TIP3   OH2 7885   4.374   2.082   2.512
 2647TIP3    H1 7886   4.347   2.172   2.493
 2647TIP3    H2 7887   4.302   2.028   2.479
 2648TIP3   OH2 7888   4.380   2.079   2.900
 2648TIP3    H1 7889   4.411   2.056   2.987
 2648TIP3    H2 7890   4.335   2.000   2.869
 2649TIP3   OH2 7891   3.679   1.979   3.273
 2649TIP3    H1 7892   3.709   1.904   3.324
 2649TIP3    H2 7893   3.759   2.021   3.243
 2650TIP3   OH2 7894   4.623   2.383   2.582
 2650TIP3    H1 7895   4.602   2.317   2.648
 2650TIP3    H2 7896   4.651   2.459   2.633
 2651TIP3   OH2 7897   3.653   2.385   2.989
 2651TIP3    H1 7898   3.640   2.290   2.988
 2651TIP3    H2 7899   3.747   2.396   2.975
 2652TIP3   OH2 7900   3.350   1.586   2.769
 2652TIP3    H1 7901   3.304   1.669   2.786
 2652TIP3    H2 7902   3.285   1.533   2.723
 2653TIP3   OH2 7903   3.414   1.873   2.947
 2653TIP3    H1 7904   3.461   1.796   2.977
 2653TIP3    H2 7905   3.464   1.905   2.872
 2654TIP3   OH2 7906   4.273   2.844   2.598
 2654TIP3    H1 7907   4.314   2.774   2.546
 2654TIP3    H2 7908   4.260   2.805   2.684
 2655TIP3   OH2 7909   4.175   2.305   2.947
 2655TIP3    H1 7910   4.211   2.231   2.898
 2655TIP3    H2 7911   4.253   2.354   2.975
 2656TIP3   OH2 7912   5.193   1.627   2.945
 2656TIP3    H1 7913   5.219   1.708   2.988
 2656TIP3    H2 7914   5.208   1.643   2.852
 2657TIP3   OH2 7915   4.587   1.802   2.975
 2657TIP3    H1 7916   4.629   1.719   2.996
 2657TIP3    H2 7917   4.554   1.790   2.886
 2658TIP3   OH2 7918   3.928   1.466   2.938
 2658TIP3    H1 7919   3.908   1.539   2.880
 2658TIP3    H2 7920   3.883   1.391   2.899
 2659TIP3   OH2 7921   4.625   1.559   2.563
 2659TIP3    H1 7922   4.692   1.544   2.629
 2659TIP3    H2 7923   4.673   1.594   2.488
 2660TIP3   OH2 7924   3.560   1.665   3.050
 2660TIP3    H1 7925   3.641   1.647   3.098
 2660TIP3    H2 7926   3.568   1.613   2.970
 2661TIP3   OH2 7927   3.997   1.862   2.849
 2661TIP3    H1 7928   4.090   1.841   2.858
 2661TIP3    H2 7929   3.958   1.782   2.813
 2662TIP3   OH2 7930   5.261   1.836   3.116
 2662TIP3    H1 7931   5.179   1.880   3.095
 2662TIP3    H2 7932   5.285   1.870   3.203
 2663TIP3   OH2 7933   3.919   1.452   3.379
 2663TIP3    H1 7934   3.863   1.486   3.308
 2663TIP3    H2 7935   3.868   1.468   3.458
 2664TIP3   OH2 7936   4.265   2.303   2.381
 2664TIP3    H1 7937   4.224   2.284   2.297
 2664TIP3    H2 7938   4.222   2.382   2.412
 2665TIP3   OH2 7939   4.028   2.228   3.168
 2665TIP3    H1 7940   3.969   2.295   3.204
 2665TIP3    H2 7941   4.071   2.271   3.095
 2666TIP3   OH2 7942   4.828   1.563   2.744
 2666TIP3    H1 7943   4.805   1.522   2.827
 2666TIP3    H2 7944   4.878   1.641   2.768
 2667TIP3   OH2 7945   3.798   1.564   3.159
 2667TIP3    H1 7946   3.856   1.636   3.184
 2667TIP3    H2 7947   3.842   1.523   3.084
 2668TIP3   OH2 7948   3.857   2.425   3.269
 2668TIP3    H1 7949   3.836   2.509   3.228
 2668TIP3    H2 7950   3.780   2.404   3.322
 2669TIP3   OH2 7951   3.244   2.109   2.505
 2669TIP3    H1 7952   3.209   2.123   2.417
 2669TIP3    H2 7953   3.276   2.195   2.532
 2670TIP3   OH2 7954   4.687   2.629   2.743
 2670TIP3    H1 7955   4.601   2.617   2.784
 2670TIP3    H2 7956   4.681   2.713   2.699
 2671TIP3   OH2 7957   4.982   1.522   3.107
 2671TIP3    H1 7958   4.895   1.550   3.078
 2671TIP3    H2 7959   5.042   1.555   3.040
 2672TIP3   OH2 7960   4.275   1.167   3.097
 2672TIP3    H1 7961   4.259   1.073   3.107
 2672TIP3    H2 7962   4.200   1.208   3.140
 2673TIP3   OH2 7963   4.392   2.670   2.415
 2673TIP3    H1 7964   4.437   2.588   2.399
 2673TIP3    H2 7965   4.449   2.737   2.378
 2674TIP3   OH2 7966   4.534   2.454   2.331
 2674TIP3    H1 7967   4.489   2.377   2.295
 2674TIP3    H2 7968   4.572   2.423   2.413
 2675TIP3   OH2 7969   4.913   2.536   3.088
 2675TIP3    H1 7970   4.901   2.460   3.031
 2675TIP3    H2 7971   4.895   2.611   3.032
 2676TIP3   OH2 7972   4.207   1.933   2.348
 2676TIP3    H1 7973   4.127   1.984   2.333
 2676TIP3    H2 7974   4.250   1.929   2.263
 2677TIP3   OH2 7975   4.168   1.718   2.061
 2677TIP3    H1 7976   4.231   1.772   2.108
 2677TIP3    H2 7977   4.222   1.655   2.013
 2678TIP3   OH2 7978   5.109   2.177   2.934
 2678TIP3    H1 7979   5.027   2.226   2.941
 2678TIP3    H2 7980   5.142   2.200   2.847
 2679TIP3   OH2 7981   4.555   2.015   2.320
 2679TIP3    H1 7982   4.499   2.039   2.394
 2679TIP3    H2 7983   4.639   1.992   2.360
 2680TIP3   OH2 7984   4.787   2.053   3.235
 2680TIP3    H1 7985   4.788   2.134   3.285
 2680TIP3    H2 7986   4.703   2.055   3.189
 2681TIP3   OH2 7987   3.785   2.008   2.736
 2681TIP3    H1 7988   3.742   1.954   2.670
 2681TIP3    H2 7989   3.860   1.957   2.765
 2682TIP3   OH2 7990   3.915   2.420   2.883
 2682TIP3    H1 7991   3.895   2.390   2.794
 2682TIP3    H2 7992   4.003   2.386   2.900
 2683TIP3   OH2 7993   3.921   1.983   3.093
 2683TIP3    H1 7994   3.950   1.957   3.006
 2683TIP3    H2 7995   3.964   2.067   3.108
 2684TIP3   OH2 7996   4.450   2.620   2.868
 2684TIP3    H1 7997   4.435   2.701   2.917
 2684TIP3    H2 7998   4.431   2.550   2.931
 2685TIP3   OH2 7999   4.060   2.537   3.416
 2685TIP3    H1 8000   4.003   2.600   3.460
 2685TIP3    H2 8001   4.000   2.485   3.362
 2686TIP3   OH2 8002   4.396   1.873   2.144
 2686TIP3    H1 8003   4.451   1.932   2.195
 2686TIP3    H2 8004   4.419   1.891   2.053
 2687TIP3   OH2 8005   3.818   2.091   3.526
 2687TIP3    H1 8006   3.824   2.177   3.568
 2687TIP3    H2 8007   3.724   2.077   3.512
 2688TIP3   OH2 8008   4.142   2.548   2.422
 2688TIP3    H1 8009   4.221   2.601   2.430
 2688TIP3    H2 8010   4.080   2.606   2.377
 2689TIP3   OH2 8011   3.853   2.699   3.501
 2689TIP3    H1 8012   3.822   2.708   3.411
 2689TIP3    H2 8013   3.776   2.670   3.551
 2690TIP3   OH2 8014   4.909   1.112   2.196
 2690TIP3    H1 8015   4.829   1.132   2.244
 2690TIP3    H2 8016   4.927   1.191   2.144
 2691TIP3   OH2 8017   3.649   1.854   2.542
 2691TIP3    H1 8018   3.587   1.904   2.488
 2691TIP3    H2 8019   3.611   1.766   2.547
 2692TIP3   OH2 8020   4.712   2.480   1.742
 2692TIP3    H1 8021   4.717   2.575   1.728
 2692TIP3    H2 8022   4.802   2.449   1.730
 2693TIP3   OH2 8023   3.427   2.250   3.459
 2693TIP3    H1 8024   3.364   2.251   3.387
 2693TIP3    H2 8025   3.475   2.168   3.449
 2694TIP3   OH2 8026   3.287   2.443   3.064
 2694TIP3    H1 8027   3.382   2.435   3.071
 2694TIP3    H2 8028   3.264   2.517   3.120
 2695TIP3   OH2 8029   5.152   2.884   3.141
 2695TIP3    H1 8030   5.152   2.789   3.154
 2695TIP3    H2 8031   5.071   2.913   3.183
 2696TIP3   OH2 8032   4.257   2.667   3.274
 2696TIP3    H1 8033   4.257   2.759   3.302
 2696TIP3    H2 8034   4.189   2.626   3.326
 2697TIP3   OH2 8035   4.023   2.798   2.222
 2697TIP3    H1 8036   3.974   2.777   2.143
 2697TIP3    H2 8037   3.988   2.882   2.250
 2698TIP3   OH2 8038   3.458   2.643   2.611
 2698TIP3    H1 8039   3.503   2.636   2.695
 2698TIP3    H2 8040   3.408   2.562   2.603
 2699TIP3   OH2 8041   4.222   2.699   1.862
 2699TIP3    H1 8042   4.278   2.630   1.826
 2699TIP3    H2 8043   4.253   2.710   1.951
 2700TIP3   OH2 8044   4.272   2.747   2.132
 2700TIP3    H1 8045   4.185   2.758   2.169
 2700TIP3    H2 8046   4.323   2.708   2.203
 2701TIP3   OH2 8047   5.040   2.010   3.412
 2701TIP3    H1 8048   4.958   2.025   3.365
 2701TIP3    H2 8049   5.056   1.916   3.403
 2702TIP3   OH2 8050   3.639   2.416   3.431
 2702TIP3    H1 8051   3.684   2.411   3.516
 2702TIP3    H2 8052   3.559   2.365   3.444
 2703TIP3   OH2 8053   4.035   1.245   3.224
 2703TIP3    H1 8054   3.951   1.212   3.193
 2703TIP3    H2 8055   4.014   1.326   3.271
 2704TIP3   OH2 8056   4.573   1.357   3.418
 2704TIP3    H1 8057   4.640   1.331   3.480
 2704TIP3    H2 8058   4.490   1.340   3.463
 2705TIP3   OH2 8059   4.807   1.790   3.335
 2705TIP3    H1 8060   4.759   1.787   3.417
 2705TIP3    H2 8061   4.786   1.876   3.298
 2706TIP3   OH2 8062   4.475   1.913   1.889
 2706TIP3    H1 8063   4.434   1.893   1.804
 2706TIP3    H2 8064   4.555   1.960   1.866
 2707TIP3   OH2 8065   4.184   1.286   2.195
 2707TIP3    H1 8066   4.148   1.287   2.284
 2707TIP3    H2 8067   4.143   1.210   2.154
 2708TIP3   OH2 8068   3.970   1.761   3.240
 2708TIP3    H1 8069   3.922   1.780   3.321
 2708TIP3    H2 8070   3.958   1.840   3.187
 2709TIP3   OH2 8071   3.852   1.644   2.752
 2709TIP3    H1 8072   3.761   1.623   2.772
 2709TIP3    H2 8073   3.867   1.607   2.665
 2710TIP3   OH2 8074   4.345   1.733   2.482
 2710TIP3    H1 8075   4.293   1.803   2.441
 2710TIP3    H2 8076   4.398   1.698   2.411
 2711TIP3   OH2 8077   4.520   2.005   3.566
 2711TIP3    H1 8078   4.496   1.935   3.627
 2711TIP3    H2 8079   4.612   2.024   3.587
 2712TIP3   OH2 8080   4.498   1.757   2.716
 2712TIP3    H1 8081   4.436   1.790   2.650
 2712TIP3    H2 8082   4.536   1.678   2.676
 2713TIP3   OH2 8083   3.790   1.790   3.450
 2713TIP3    H1 8084   3.826   1.851   3.514
 2713TIP3    H2 8085   3.778   1.708   3.499
 2714TIP3   OH2 8086   3.842   1.271   2.160
 2714TIP3    H1 8087   3.828   1.266   2.255
 2714TIP3    H2 8088   3.766   1.319   2.127
 2715TIP3   OH2 8089   3.382   1.306   3.035
 2715TIP3    H1 8090   3.458   1.340   3.082
 2715TIP3    H2 8091   3.416   1.281   2.949
 2716TIP3   OH2 8092   3.348   1.296   2.549
 2716TIP3    H1 8093   3.392   1.327   2.470
 2716TIP3    H2 8094   3.284   1.365   2.570
 2717TIP3   OH2 8095   4.511   2.000   3.141
 2717TIP3    H1 8096   4.545   1.933   3.082
 2717TIP3    H2 8097   4.480   1.951   3.217
 2718TIP3   OH2 8098   4.185   1.462   2.816
 2718TIP3    H1 8099   4.102   1.464   2.863
 2718TIP3    H2 8100   4.252   1.466   2.884
 2719TIP3   OH2 8101   3.612   1.525   2.821
 2719TIP3    H1 8102   3.521   1.536   2.794
 2719TIP3    H2 8103   3.634   1.435   2.796
 2720TIP3   OH2 8104   3.882   1.521   2.511
 2720TIP3    H1 8105   3.973   1.537   2.486
 2720TIP3    H2 8106   3.832   1.542   2.433
 2721TIP3   OH2 8107   4.671   1.541   3.017
 2721TIP3    H1 8108   4.644   1.558   3.107
 2721TIP3    H2 8109   4.604   1.483   2.982
 2722TIP3   OH2 8110   3.733   1.554   2.289
 2722TIP3    H1 8111   3.660   1.509   2.247
 2722TIP3    H2 8112   3.784   1.590   2.216
 2723TIP3   OH2 8113   4.848   3.233   3.237
 2723TIP3    H1 8114   4.843   3.259   3.145
 2723TIP3    H2 8115   4.924   3.280   3.271
 2724TIP3   OH2 8116   3.802   2.335   3.662
 2724TIP3    H1 8117   3.887   2.370   3.689
 2724TIP3    H2 8118   3.748   2.338   3.741
 2725TIP3   OH2 8119   4.264   1.795   2.912
 2725TIP3    H1 8120   4.338   1.760   2.862
 2725TIP3    H2 8121   4.271   1.753   2.997
 2726TIP3   OH2 8122   3.788   1.280   2.793
 2726TIP3    H1 8123   3.749   1.207   2.840
 2726TIP3    H2 8124   3.816   1.243   2.710
 2727TIP3   OH2 8125   4.240   1.696   3.204
 2727TIP3    H1 8126   4.151   1.730   3.216
 2727TIP3    H2 8127   4.295   1.757   3.251
 2728TIP3   OH2 8128   3.977   2.083   2.301
 2728TIP3    H1 8129   3.909   2.017   2.286
 2728TIP3    H2 8130   3.958   2.118   2.388
 2729TIP3   OH2 8131   4.874   2.319   2.921
 2729TIP3    H1 8132   4.899   2.370   2.844
 2729TIP3    H2 8133   4.792   2.278   2.897
 2730TIP3   OH2 8134   4.434   1.393   2.167
 2730TIP3    H1 8135   4.341   1.372   2.172
 2730TIP3    H2 8136   4.440   1.486   2.188
 2731TIP3   OH2 8137   4.372   2.402   3.296
 2731TIP3    H1 8138   4.408   2.390   3.384
 2731TIP3    H2 8139   4.338   2.491   3.297
 2732TIP3   OH2 8140   4.503   1.646   2.266
 2732TIP3    H1 8141   4.597   1.653   2.279
 2732TIP3    H2 8142   4.480   1.724   2.215
 2733TIP3   OH2 8143   3.673   2.109   2.970
 2733TIP3    H1 8144   3.705   2.084   2.883
 2733TIP3    H2 8145   3.714   2.045   3.029
 2734TIP3   OH2 8146   4.120   2.235   2.123
 2734TIP3    H1 8147   4.075   2.319   2.124
 2734TIP3    H2 8148   4.068   2.179   2.181
 2735TIP3   OH2 8149   3.507   2.048   3.621
 2735TIP3    H1 8150   3.561   2.021   3.695
 2735TIP3    H2 8151   3.479   1.965   3.581
 2736TIP3   OH2 8152   4.279   2.139   3.605
 2736TIP3    H1 8153   4.217   2.085   3.557
 2736TIP3    H2 8154   4.365   2.108   3.577
 2737TIP3   OH2 8155   4.534   2.658   3.196
 2737TIP3    H1 8156   4.438   2.660   3.204
 2737TIP3    H2 8157   4.565   2.712   3.268
 2738TIP3   OH2 8158   4.942   1.739   2.095
 2738TIP3    H1 8159   4.883   1.692   2.036
 2738TIP3    H2 8160   4.942   1.829   2.061
 2739TIP3   OH2 8161   5.163   2.592   3.176
 2739TIP3    H1 8162   5.068   2.589   3.172
 2739TIP3    H2 8163   5.192   2.563   3.090
 2740TIP3   OH2 8164   4.651   2.553   2.009
 2740TIP3    H1 8165   4.618   2.487   2.070
 2740TIP3    H2 8166   4.659   2.507   1.925
 2741TIP3   OH2 8167   4.641   2.181   2.840
 2741TIP3    H1 8168   4.548   2.160   2.856
 2741TIP3    H2 8169   4.675   2.104   2.795
 2742TIP3   OH2 8170   3.770   2.414   2.599
 2742TIP3    H1 8171   3.769   2.493   2.544
 2742TIP3    H2 8172   3.678   2.390   2.609
 2743TIP3   OH2 8173   3.338   1.712   2.303
 2743TIP3    H1 8174   3.378   1.798   2.312
 2743TIP3    H2 8175   3.257   1.717   2.354
 2744TIP3   OH2 8176   3.904   2.176   2.544
 2744TIP3    H1 8177   3.872   2.265   2.559
 2744TIP3    H2 8178   3.867   2.124   2.615
 2745TIP3   OH2 8179   4.044   2.754   3.065
 2745TIP3    H1 8180   4.081   2.827   3.015
 2745TIP3    H2 8181   4.118   2.717   3.112
 2746TIP3   OH2 8182   3.688   2.652   2.452
 2746TIP3    H1 8183   3.603   2.658   2.497
 2746TIP3    H2 8184   3.721   2.742   2.452
 2747TIP3   OH2 8185   4.424   2.387   3.029
 2747TIP3    H1 8186   4.413   2.385   3.124
 2747TIP3    H2 8187   4.505   2.337   3.014
 2748TIP3   OH2 8188   4.404   2.284   1.910
 2748TIP3    H1 8189   4.457   2.259   1.986
 2748TIP3    H2 8190   4.315   2.254   1.931
 2749TIP3   OH2 8191   4.673   2.918   3.071
 2749TIP3    H1 8192   4.594   2.865   3.067
 2749TIP3    H2 8193   4.662   2.984   3.003
 2750TIP3   OH2 8194   4.740   2.757   1.726
 2750TIP3    H1 8195   4.779   2.828   1.675
 2750TIP3    H2 8196   4.660   2.795   1.763
 2751TIP3   OH2 8197   3.756   1.532   3.592
 2751TIP3    H1 8198   3.661   1.535   3.599
 2751TIP3    H2 8199   3.783   1.474   3.663
 2752TIP3   OH2 8200   4.567   2.212   2.123
 2752TIP3    H1 8201   4.553   2.150   2.193
 2752TIP3    H2 8202   4.662   2.212   2.109
 2753TIP3   OH2 8203   3.479   2.615   3.225
 2753TIP3    H1 8204   3.536   2.546   3.257
 2753TIP3    H2 8205   3.510   2.694   3.269
 2754TIP3   OH2 8206   3.768   2.257   1.910
 2754TIP3    H1 8207   3.776   2.167   1.881
 2754TIP3    H2 8208   3.744   2.251   2.003
 2755TIP3   OH2 8209   3.711   2.273   2.181
 2755TIP3    H1 8210   3.782   2.242   2.238
 2755TIP3    H2 8211   3.716   2.369   2.189
 2756TIP3   OH2 8212   3.450   1.966   2.386
 2756TIP3    H1 8213   3.380   2.004   2.440
 2756TIP3    H2 8214   3.459   2.028   2.313
 2757TIP3   OH2 8215   4.604   1.593   3.276
 2757TIP3    H1 8216   4.680   1.635   3.316
 2757TIP3    H2 8217   4.589   1.515   3.329
 2758TIP3   OH2 8218   4.484   1.343   2.444
 2758TIP3    H1 8219   4.466   1.362   2.352
 2758TIP3    H2 8220   4.520   1.425   2.479
 2759TIP3   OH2 8221   3.980   2.467   2.129
 2759TIP3    H1 8222   3.895   2.487   2.167
 2759TIP3    H2 8223   3.995   2.537   2.066
 2760TIP3   OH2 8224   4.171   1.528   2.545
 2760TIP3    H1 8225   4.231   1.601   2.526
 2760TIP3    H2 8226   4.172   1.519   2.640
 2761TIP3   OH2 8227   4.437   1.843   3.351
 2761TIP3    H1 8228   4.461   1.898   3.426
 2761TIP3    H2 8229   4.489   1.764   3.362
 2762TIP3   OH2 8230   4.310   1.251   2.644
 2762TIP3    H1 8231   4.292   1.329   2.697
 2762TIP3    H2 8232   4.371   1.282   2.577
 2763TIP3   OH2 8233   3.729   2.545   2.199
 2763TIP3    H1 8234   3.697   2.611   2.137
 2763TIP3    H2 8235   3.711   2.583   2.285
 2764TIP3   OH2 8236   3.826   1.256   2.438
 2764TIP3    H1 8237   3.818   1.346   2.470
 2764TIP3    H2 8238   3.920   1.238   2.441
 2765TIP3   OH2 8239   5.073   1.743   3.332
 2765TIP3    H1 8240   4.977   1.743   3.342
 2765TIP3    H2 8241   5.089   1.708   3.245
 2766TIP3   OH2 8242   4.728   1.936   2.720
 2766TIP3    H1 8243   4.651   1.881   2.731
 2766TIP3    H2 8244   4.797   1.891   2.768
 2767TIP3   OH2 8245   3.445   2.167   2.188
 2767TIP3    H1 8246   3.514   2.233   2.196
 2767TIP3    H2 8247   3.479   2.103   2.125
 2768TIP3   OH2 8248   3.381   1.444   2.322
 2768TIP3    H1 8249   3.380   1.540   2.321
 2768TIP3    H2 8250   3.315   1.419   2.257
 2769TIP3   OH2 8251   4.698   2.899   2.664
 2769TIP3    H1 8252   4.653   2.943   2.592
 2769TIP3    H2 8253   4.791   2.915   2.647
 2770TIP3   OH2 8254   3.774   1.162   3.192
 2770TIP3    H1 8255   3.744   1.133   3.106
 2770TIP3    H2 8256   3.761   1.087   3.249
 2771TIP3   OH2 8257   3.310   2.386   2.571
 2771TIP3    H1 8258   3.248   2.412   2.639
 2771TIP3    H2 8259   3.276   2.426   2.491
 2772TIP3   OH2 8260   3.473   2.932   3.648
 2772TIP3    H1 8261   3.555   2.938   3.696
 2772TIP3    H2 8262   3.450   2.839   3.651
 2773TIP3   OH2 8263   3.943   2.883   3.696
 2773TIP3    H1 8264   4.038   2.883   3.702
 2773TIP3    H2 8265   3.923   2.823   3.624
 2774TIP3   OH2 8266   3.930   2.460   1.819
 2774TIP3    H1 8267   3.873   2.392   1.857
 2774TIP3    H2 8268   4.006   2.411   1.786
 2775TIP3   OH2 8269   4.591   2.793   3.427
 2775TIP3    H1 8270   4.582   2.727   3.495
 2775TIP3    H2 8271   4.664   2.848   3.455
 2776TIP3   OH2 8272   4.368   2.502   1.734
 2776TIP3    H1 8273   4.404   2.437   1.794
 2776TIP3    H2 8274   4.424   2.497   1.657
 2777TIP3   OH2 8275   3.595   1.992   2.054
 2777TIP3    H1 8276   3.649   1.950   2.121
 2777TIP3    H2 8277   3.648   1.990   1.975
 2778TIP3   OH2 8278   4.203   2.417   3.622
 2778TIP3    H1 8279   4.166   2.441   3.537
 2778TIP3    H2 8280   4.236   2.328   3.609
 2779TIP3   OH2 8281   4.098   2.181   1.853
 2779TIP3    H1 8282   4.093   2.195   1.948
 2779TIP3    H2 8283   4.094   2.086   1.843
 2780TIP3   OH2 8284   4.698   2.432   3.228
 2780TIP3    H1 8285   4.776   2.471   3.186
 2780TIP3    H2 8286   4.629   2.497   3.215
 2781TIP3   OH2 8287   3.728   2.043   3.825
 2781TIP3    H1 8288   3.818   2.016   3.804
 2781TIP3    H2 8289   3.736   2.094   3.905
 2782TIP3   OH2 8290   3.792   1.882   2.267
 2782TIP3    H1 8291   3.754   1.843   2.346
 2782TIP3    H2 8292   3.824   1.808   2.216
 2783TIP3   OH2 8293   4.053   1.950   3.489
 2783TIP3    H1 8294   3.977   2.008   3.494
 2783TIP3    H2 8295   4.105   1.983   3.416
 2784TIP3   OH2 8296   3.888   1.680   2.100
 2784TIP3    H1 8297   3.858   1.688   2.010
 2784TIP3    H2 8298   3.983   1.684   2.095
 2785TIP3   OH2 8299   4.570   2.350   3.626
 2785TIP3    H1 8300   4.648   2.325   3.577
 2785TIP3    H2 8301   4.565   2.288   3.698
 2786TIP3   OH2 8302   4.705   2.010   1.767
 2786TIP3    H1 8303   4.686   1.963   1.686
 2786TIP3    H2 8304   4.674   2.099   1.751
 2787TIP3   OH2 8305   4.176   1.740   3.615
 2787TIP3    H1 8306   4.178   1.662   3.559
 2787TIP3    H2 8307   4.135   1.807   3.561
 2788TIP3   OH2 8308   4.179   1.526   3.425
 2788TIP3    H1 8309   4.209   1.568   3.344
 2788TIP3    H2 8310   4.087   1.504   3.408
 2789TIP3   OH2 8311   4.203   2.062   3.299
 2789TIP3    H1 8312   4.289   2.075   3.259
 2789TIP3    H2 8313   4.146   2.125   3.255
 2790TIP3   OH2 8314   4.787   2.027   3.676
 2790TIP3    H1 8315   4.836   1.946   3.687
 2790TIP3    H2 8316   4.851   2.089   3.642
 2791TIP3   OH2 8317   4.828   2.282   3.410
 2791TIP3    H1 8318   4.768   2.335   3.356
 2791TIP3    H2 8319   4.915   2.302   3.375
 2792TIP3   OH2 8320   4.053   1.844   3.850
 2792TIP3    H1 8321   3.987   1.777   3.865
 2792TIP3    H2 8322   4.088   1.824   3.763
 2793TIP3   OH2 8323   4.309   1.288   3.494
 2793TIP3    H1 8324   4.263   1.369   3.471
 2793TIP3    H2 8325   4.243   1.219   3.483
 2794TIP3   OH2 8326   4.436   1.788   3.710
 2794TIP3    H1 8327   4.425   1.776   3.805
 2794TIP3    H2 8328   4.350   1.767   3.673
 2795TIP3   OH2 8329   4.675   1.739   3.565
 2795TIP3    H1 8330   4.601   1.743   3.625
 2795TIP3    H2 8331   4.749   1.712   3.619
 2796TIP3   OH2 8332   4.905   1.683   3.715
 2796TIP3    H1 8333   4.918   1.589   3.730
 2796TIP3    H2 8334   4.901   1.721   3.803
 2797TIP3   OH2 8335   3.889   1.626   3.906
 2797TIP3    H1 8336   3.891   1.538   3.869
 2797TIP3    H2 8337   3.927   1.616   3.994
 2798TIP3   OH2 8338   4.404   1.295   3.752
 2798TIP3    H1 8339   4.470   1.226   3.747
 2798TIP3    H2 8340   4.363   1.295   3.665
 2799TIP3   OH2 8341   4.469   1.512   3.911
 2799TIP3    H1 8342   4.451   1.442   3.848
 2799TIP3    H2 8343   4.394   1.570   3.904
 2800TIP3   OH2 8344   3.697   2.748   2.010
 2800TIP3    H1 8345   3.790   2.735   1.992
 2800TIP3    H2 8346   3.664   2.795   1.934
 2801TIP3   OH2 8347   3.174   2.117   2.237
 2801TIP3    H1 8348   3.263   2.140   2.212
 2801TIP3    H2 8349   3.146   2.054   2.170
 2802TIP3   OH2 8350   3.089   2.733   2.643
 2802TIP3    H1 8351   3.024   2.676   2.602
 2802TIP3    H2 8352   3.134   2.677   2.706
 2803TIP3   OH2 8353   3.223   2.583   2.831
 2803TIP3    H1 8354   3.214   2.512   2.894
 2803TIP3    H2 8355   3.274   2.649   2.877
 2804TIP3   OH2 8356   4.955   2.983   2.629
 2804TIP3    H1 8357   4.975   3.015   2.717
 2804TIP3    H2 8358   5.015   3.032   2.571
 2805TIP3   OH2 8359   4.979   3.003   2.910
 2805TIP3    H1 8360   4.934   2.919   2.905
 2805TIP3    H2 8361   5.054   2.987   2.967
 2806TIP3   OH2 8362   5.026   2.684   3.484
 2806TIP3    H1 8363   4.955   2.692   3.547
 2806TIP3    H2 8364   5.069   2.769   3.485
 2807TIP3   OH2 8365   4.846   2.194   2.101
 2807TIP3    H1 8366   4.908   2.261   2.070
 2807TIP3    H2 8367   4.888   2.158   2.179
 2808TIP3   OH2 8368   4.972   2.061   2.307
 2808TIP3    H1 8369   4.905   2.021   2.362
 2808TIP3    H2 8370   5.034   2.100   2.368
 2809TIP3   OH2 8371   5.029   2.458   2.736
 2809TIP3    H1 8372   5.079   2.391   2.690
 2809TIP3    H2 8373   5.023   2.531   2.675
 2810TIP3   OH2 8374   4.852   2.756   2.931
 2810TIP3    H1 8375   4.784   2.800   2.982
 2810TIP3    H2 8376   4.805   2.711   2.861
 2811TIP3   OH2 8377   4.905   1.973   1.950
 2811TIP3    H1 8378   4.837   1.972   1.882
 2811TIP3    H2 8379   4.881   2.046   2.007
 2812TIP3   OH2 8380   4.781   1.641   1.901
 2812TIP3    H1 8381   4.732   1.682   1.829
 2812TIP3    H2 8382   4.758   1.548   1.894
 2813TIP3   OH2 8383   4.783   1.922   2.451
 2813TIP3    H1 8384   4.789   1.827   2.442
 2813TIP3    H2 8385   4.768   1.935   2.545
 2814TIP3   OH2 8386   3.415   1.978   3.199
 2814TIP3    H1 8387   3.406   1.951   3.108
 2814TIP3    H2 8388   3.509   1.987   3.213
 2815TIP3   OH2 8389   5.075   2.346   3.308
 2815TIP3    H1 8390   5.144   2.281   3.297
 2815TIP3    H2 8391   5.097   2.416   3.247
 2816TIP3   OH2 8392   5.255   2.143   3.316
 2816TIP3    H1 8393   5.181   2.100   3.357
 2816TIP3    H2 8394   5.330   2.085   3.332
 2817TIP3   OH2 8395   4.722   1.376   1.887
 2817TIP3    H1 8396   4.789   1.344   1.947
 2817TIP3    H2 8397   4.645   1.322   1.906
 2818TIP3   OH2 8398   4.784   1.637   2.343
 2818TIP3    H1 8399   4.822   1.550   2.359
 2818TIP3    H2 8400   4.837   1.673   2.272
 2819TIP3   OH2 8401   4.943   1.807   2.843
 2819TIP3    H1 8402   5.024   1.830   2.798
 2819TIP3    H2 8403   4.952   1.845   2.930
 2820TIP3   OH2 8404   5.011   1.957   3.070
 2820TIP3    H1 8405   4.935   1.988   3.119
 2820TIP3    H2 8406   5.045   2.035   3.026
 2821TIP3   OH2 8407   3.619   1.690   3.878
 2821TIP3    H1 8408   3.715   1.688   3.874
 2821TIP3    H2 8409   3.594   1.605   3.915
 2822TIP3   OH2 8410   5.463   1.548   3.625
 2822TIP3    H1 8411   5.522   1.485   3.585
 2822TIP3    H2 8412   5.430   1.600   3.551
 2823TIP3   OH2 8413   4.891   1.386   2.384
 2823TIP3    H1 8414   4.937   1.372   2.466
 2823TIP3    H2 8415   4.828   1.314   2.379
 2824TIP3   OH2 8416   3.592   1.373   3.206
 2824TIP3    H1 8417   3.651   1.298   3.211
 2824TIP3    H2 8418   3.651   1.448   3.195
 2825TIP3   OH2 8419   3.391   1.647   3.277
 2825TIP3    H1 8420   3.437   1.638   3.193
 2825TIP3    H2 8421   3.407   1.737   3.303
 2826TIP3   OH2 8422   5.327   1.682   3.431
 2826TIP3    H1 8423   5.247   1.729   3.456
 2826TIP3    H2 8424   5.297   1.612   3.374
 2827TIP3   OH2 8425   4.970   1.317   2.020
 2827TIP3    H1 8426   5.005   1.250   1.962
 2827TIP3    H2 8427   5.032   1.390   2.014
 2828TIP3   OH2 8428   3.375   1.155   2.780
 2828TIP3    H1 8429   3.283   1.144   2.804
 2828TIP3    H2 8430   3.372   1.209   2.701
 2829TIP3   OH2 8431   4.536   2.855   2.282
 2829TIP3    H1 8432   4.586   2.845   2.201
 2829TIP3    H2 8433   4.584   2.921   2.332
 2830TIP3   OH2 8434   3.594   1.228   3.590
 2830TIP3    H1 8435   3.544   1.224   3.672
 2830TIP3    H2 8436   3.533   1.268   3.528
 2831TIP3   OH2 8437   3.633   2.631   3.679
 2831TIP3    H1 8438   3.539   2.618   3.669
 2831TIP3    H2 8439   3.643   2.674   3.764
 2832TIP3   OH2 8440   3.816   2.697   3.212
 2832TIP3    H1 8441   3.765   2.769   3.177
 2832TIP3    H2 8442   3.902   2.706   3.171
 2833TIP3   OH2 8443   4.256   2.934   3.350
 2833TIP3    H1 8444   4.294   2.933   3.438
 2833TIP3    H2 8445   4.318   2.986   3.299
 2834TIP3   OH2 8446   4.437   3.089   3.215
 2834TIP3    H1 8447   4.506   3.038   3.172
 2834TIP3    H2 8448   4.483   3.146   3.276
 2835TIP3   OH2 8449   5.231   1.446   3.310
 2835TIP3    H1 8450   5.142   1.443   3.275
 2835TIP3    H2 8451   5.263   1.356   3.301
 2836TIP3   OH2 8452   3.487   2.949   3.246
 2836TIP3    H1 8453   3.399   2.974   3.219
 2836TIP3    H2 8454   3.505   3.004   3.322
 2837TIP3   OH2 8455   3.722   2.926   3.098
 2837TIP3    H1 8456   3.638   2.938   3.143
 2837TIP3    H2 8457   3.706   2.957   3.009
 2838TIP3   OH2 8458   4.149   2.953   2.896
 2838TIP3    H1 8459   4.081   2.970   2.831
 2838TIP3    H2 8460   4.163   3.038   2.939
 2839TIP3   OH2 8461   4.419   2.891   2.947
 2839TIP3    H1 8462   4.326   2.908   2.930
 2839TIP3    H2 8463   4.465   2.965   2.906
 2840TIP3   OH2 8464   4.625   3.083   2.858
 2840TIP3    H1 8465   4.612   3.167   2.814
 2840TIP3    H2 8466   4.652   3.023   2.788
 2841TIP3   OH2 8467   3.407   2.743   2.982
 2841TIP3    H1 8468   3.424   2.714   3.071
 2841TIP3    H2 8469   3.474   2.699   2.929
 2842TIP3   OH2 8470   3.599   2.611   2.844
 2842TIP3    H1 8471   3.611   2.530   2.893
 2842TIP3    H2 8472   3.687   2.648   2.838
 2843TIP3   OH2 8473   3.866   2.704   2.849
 2843TIP3    H1 8474   3.893   2.614   2.834
 2843TIP3    H2 8475   3.910   2.730   2.930
 2844TIP3   OH2 8476   4.443   1.364   2.941
 2844TIP3    H1 8477   4.395   1.295   2.987
 2844TIP3    H2 8478   4.511   1.317   2.891
 2845TIP3   OH2 8479   4.957   1.243   2.834
 2845TIP3    H1 8480   4.993   1.294   2.762
 2845TIP3    H2 8481   4.863   1.261   2.832
 2846TIP3   OH2 8482   5.056   1.340   2.599
 2846TIP3    H1 8483   5.127   1.289   2.559
 2846TIP3    H2 8484   5.084   1.431   2.587
 2847TIP3   OH2 8485   3.683   1.069   2.947
 2847TIP3    H1 8486   3.591   1.042   2.947
 2847TIP3    H2 8487   3.732   0.987   2.940
 2848TIP3   OH2 8488   3.489   0.943   2.599
 2848TIP3    H1 8489   3.511   0.995   2.521
 2848TIP3    H2 8490   3.451   1.007   2.659
 2849TIP3   OH2 8491   4.137   1.098   2.829
 2849TIP3    H1 8492   4.189   1.147   2.764
 2849TIP3    H2 8493   4.149   1.146   2.911
 2850TIP3   OH2 8494   4.675   1.249   2.811
 2850TIP3    H1 8495   4.669   1.215   2.722
 2850TIP3    H2 8496   4.662   1.172   2.867
 2851TIP3   OH2 8497   4.704   1.176   2.376
 2851TIP3    H1 8498   4.622   1.223   2.390
 2851TIP3    H2 8499   4.690   1.090   2.417
 2852TIP3   OH2 8500   3.186   2.519   2.371
 2852TIP3    H1 8501   3.104   2.479   2.341
 2852TIP3    H2 8502   3.178   2.612   2.347
 2853TIP3   OH2 8503   3.597   1.094   2.379
 2853TIP3    H1 8504   3.627   1.039   2.307
 2853TIP3    H2 8505   3.673   1.147   2.402
 2854TIP3   OH2 8506   4.102   1.279   2.459
 2854TIP3    H1 8507   4.160   1.229   2.517
 2854TIP3    H2 8508   4.121   1.370   2.479
 2855TIP3   OH2 8509   3.963   2.696   1.953
 2855TIP3    H1 8510   4.049   2.721   1.920
 2855TIP3    H2 8511   3.936   2.623   1.897
 2856TIP3   OH2 8512   4.682   2.820   2.049
 2856TIP3    H1 8513   4.676   2.724   2.042
 2856TIP3    H2 8514   4.636   2.852   1.972
 2857TIP3   OH2 8515   3.892   1.350   3.841
 2857TIP3    H1 8516   3.855   1.280   3.895
 2857TIP3    H2 8517   3.985   1.353   3.866
 2858TIP3   OH2 8518   4.143   1.348   3.958
 2858TIP3    H1 8519   4.227   1.328   3.917
 2858TIP3    H2 8520   4.130   1.279   4.023
 2859TIP3   OH2 8521   3.271   2.544   2.014
 2859TIP3    H1 8522   3.266   2.550   2.109
 2859TIP3    H2 8523   3.352   2.497   1.996
 2860TIP3   OH2 8524   4.971   1.411   3.745
 2860TIP3    H1 8525   4.986   1.382   3.835
 2860TIP3    H2 8526   5.058   1.408   3.704
 2861TIP3   OH2 8527   4.903   2.964   3.234
 2861TIP3    H1 8528   4.826   2.932   3.186
 2861TIP3    H2 8529   4.887   3.059   3.243
 2862TIP3   OH2 8530   6.168   2.337   2.004
 2862TIP3    H1 8531   6.142   2.427   1.984
 2862TIP3    H2 8532   6.097   2.284   1.968
 2863TIP3   OH2 8533   6.175   2.337   2.388
 2863TIP3    H1 8534   6.207   2.313   2.475
 2863TIP3    H2 8535   6.132   2.258   2.355
 2864TIP3   OH2 8536   5.472   2.229   2.750
 2864TIP3    H1 8537   5.499   2.160   2.811
 2864TIP3    H2 8538   5.547   2.288   2.746
 2865TIP3   OH2 8539   6.419   2.640   2.069
 2865TIP3    H1 8540   6.399   2.573   2.134
 2865TIP3    H2 8541   6.447   2.716   2.120
 2866TIP3   OH2 8542   5.446   2.640   2.470
 2866TIP3    H1 8543   5.434   2.545   2.472
 2866TIP3    H2 8544   5.540   2.652   2.466
 2867TIP3   OH2 8545   5.147   1.842   2.254
 2867TIP3    H1 8546   5.104   1.924   2.276
 2867TIP3    H2 8547   5.080   1.790   2.210
 2868TIP3   OH2 8548   5.208   2.130   2.435
 2868TIP3    H1 8549   5.256   2.054   2.468
 2868TIP3    H2 8550   5.267   2.168   2.369
 2869TIP3   OH2 8551   6.069   3.100   2.085
 2869TIP3    H1 8552   6.109   3.031   2.033
 2869TIP3    H2 8553   6.057   3.062   2.171
 2870TIP3   OH2 8554   5.972   2.563   2.433
 2870TIP3    H1 8555   6.008   2.487   2.386
 2870TIP3    H2 8556   6.050   2.612   2.461
 2871TIP3   OH2 8557   6.987   1.883   2.430
 2871TIP3    H1 8558   7.015   1.964   2.473
 2871TIP3    H2 8559   7.009   1.896   2.338
 2872TIP3   OH2 8560   6.381   2.059   2.461
 2872TIP3    H1 8561   6.425   1.977   2.484
 2872TIP3    H2 8562   6.351   2.045   2.372
 2873TIP3   OH2 8563   5.724   1.722   2.425
 2873TIP3    H1 8564   5.705   1.796   2.368
 2873TIP3    H2 8565   5.677   1.649   2.385
 2874TIP3   OH2 8566   6.420   1.814   2.051
 2874TIP3    H1 8567   6.488   1.800   2.117
 2874TIP3    H2 8568   6.467   1.850   1.976
 2875TIP3   OH2 8569   5.356   1.922   2.536
 2875TIP3    H1 8570   5.436   1.907   2.586
 2875TIP3    H2 8571   5.367   1.870   2.457
 2876TIP3   OH2 8572   5.795   2.120   2.331
 2876TIP3    H1 8573   5.888   2.098   2.343
 2876TIP3    H2 8574   5.756   2.039   2.298
 2877TIP3   OH2 8575   7.058   2.094   2.600
 2877TIP3    H1 8576   6.976   2.136   2.577
 2877TIP3    H2 8577   7.072   2.117   2.692
 2878TIP3   OH2 8578   5.714   1.706   2.864
 2878TIP3    H1 8579   5.660   1.743   2.795
 2878TIP3    H2 8580   5.665   1.722   2.945
 2879TIP3   OH2 8581   6.052   2.554   1.875
 2879TIP3    H1 8582   6.024   2.543   1.784
 2879TIP3    H2 8583   6.014   2.637   1.902
 2880TIP3   OH2 8584   5.824   2.484   2.655
 2880TIP3    H1 8585   5.764   2.550   2.692
 2880TIP3    H2 8586   5.867   2.529   2.583
 2881TIP3   OH2 8587   6.624   1.819   2.232
 2881TIP3    H1 8588   6.603   1.782   2.317
 2881TIP3    H2 8589   6.675   1.898   2.251
 2882TIP3   OH2 8590   5.593   1.822   2.646
 2882TIP3    H1 8591   5.649   1.895   2.672
 2882TIP3    H2 8592   5.639   1.781   2.572
 2883TIP3   OH2 8593   5.651   2.680   2.756
 2883TIP3    H1 8594   5.631   2.766   2.719
 2883TIP3    H2 8595   5.576   2.659   2.811
 2884TIP3   OH2 8596   5.044   2.369   1.991
 2884TIP3    H1 8597   5.002   2.394   1.908
 2884TIP3    H2 8598   5.075   2.452   2.028
 2885TIP3   OH2 8599   6.483   2.885   2.231
 2885TIP3    H1 8600   6.397   2.874   2.271
 2885TIP3    H2 8601   6.477   2.970   2.187
 2886TIP3   OH2 8602   6.779   1.781   2.594
 2886TIP3    H1 8603   6.693   1.809   2.564
 2886TIP3    H2 8604   6.839   1.813   2.527
 2887TIP3   OH2 8605   6.070   1.448   2.575
 2887TIP3    H1 8606   6.076   1.360   2.612
 2887TIP3    H2 8607   5.994   1.487   2.618
 2888TIP3   OH2 8608   6.186   2.927   1.902
 2888TIP3    H1 8609   6.230   2.843   1.885
 2888TIP3    H2 8610   6.244   2.993   1.865
 2889TIP3   OH2 8611   6.327   2.710   1.817
 2889TIP3    H1 8612   6.311   2.630   1.766
 2889TIP3    H2 8613   6.364   2.678   1.899
 2890TIP3   OH2 8614   6.710   2.792   2.575
 2890TIP3    H1 8615   6.698   2.716   2.518
 2890TIP3    H2 8616   6.692   2.867   2.518
 2891TIP3   OH2 8617   6.006   2.188   1.829
 2891TIP3    H1 8618   5.926   2.239   1.816
 2891TIP3    H2 8619   6.051   2.192   1.745
 2892TIP3   OH2 8620   5.967   1.974   1.545
 2892TIP3    H1 8621   6.028   2.031   1.592
 2892TIP3    H2 8622   6.023   1.913   1.497
 2893TIP3   OH2 8623   6.906   2.437   2.423
 2893TIP3    H1 8624   6.822   2.483   2.430
 2893TIP3    H2 8625   6.937   2.457   2.335
 2894TIP3   OH2 8626   6.348   2.269   1.809
 2894TIP3    H1 8627   6.295   2.294   1.885
 2894TIP3    H2 8628   6.433   2.247   1.845
 2895TIP3   OH2 8629   6.583   2.310   2.722
 2895TIP3    H1 8630   6.583   2.390   2.773
 2895TIP3    H2 8631   6.499   2.312   2.676
 2896TIP3   OH2 8632   5.583   2.264   2.223
 2896TIP3    H1 8633   5.542   2.210   2.156
 2896TIP3    H2 8634   5.658   2.214   2.253
 2897TIP3   OH2 8635   5.714   2.679   2.369
 2897TIP3    H1 8636   5.693   2.646   2.282
 2897TIP3    H2 8637   5.801   2.644   2.387
 2898TIP3   OH2 8638   5.722   2.239   2.576
 2898TIP3    H1 8639   5.753   2.216   2.488
 2898TIP3    H2 8640   5.762   2.324   2.594
 2899TIP3   OH2 8641   6.246   2.877   2.356
 2899TIP3    H1 8642   6.231   2.957   2.405
 2899TIP3    H2 8643   6.227   2.807   2.418
 2900TIP3   OH2 8644   5.855   2.794   2.902
 2900TIP3    H1 8645   5.799   2.856   2.948
 2900TIP3    H2 8646   5.795   2.741   2.850
 2901TIP3   OH2 8647   6.206   2.138   1.615
 2901TIP3    H1 8648   6.250   2.190   1.682
 2901TIP3    H2 8649   6.265   2.139   1.540
 2902TIP3   OH2 8650   5.611   2.349   3.008
 2902TIP3    H1 8651   5.620   2.437   3.046
 2902TIP3    H2 8652   5.519   2.328   3.019
 2903TIP3   OH2 8653   5.937   2.807   1.907
 2903TIP3    H1 8654   6.019   2.856   1.915
 2903TIP3    H2 8655   5.876   2.868   1.866
 2904TIP3   OH2 8656   5.650   2.959   2.988
 2904TIP3    H1 8657   5.617   2.964   2.899
 2904TIP3    H2 8658   5.573   2.938   3.042
 2905TIP3   OH2 8659   6.704   1.366   1.681
 2905TIP3    H1 8660   6.624   1.388   1.729
 2905TIP3    H2 8661   6.724   1.445   1.630
 2906TIP3   OH2 8662   5.448   2.110   2.023
 2906TIP3    H1 8663   5.383   2.157   1.971
 2906TIP3    H2 8664   5.409   2.024   2.038
 2907TIP3   OH2 8665   6.509   2.735   1.228
 2907TIP3    H1 8666   6.514   2.830   1.216
 2907TIP3    H2 8667   6.599   2.705   1.218
 2908TIP3   OH2 8668   5.228   2.494   2.935
 2908TIP3    H1 8669   5.162   2.476   2.869
 2908TIP3    H2 8670   5.267   2.408   2.954
 2909TIP3   OH2 8671   5.085   2.689   2.568
 2909TIP3    H1 8672   5.181   2.685   2.559
 2909TIP3    H2 8673   5.069   2.767   2.621
 2910TIP3   OH2 8674   6.948   3.141   2.628
 2910TIP3    H1 8675   6.948   3.046   2.641
 2910TIP3    H2 8676   6.867   3.170   2.670
 2911TIP3   OH2 8677   6.053   2.924   2.761
 2911TIP3    H1 8678   6.052   3.016   2.789
 2911TIP3    H2 8679   5.984   2.882   2.812
 2912TIP3   OH2 8680   5.818   3.053   1.709
 2912TIP3    H1 8681   5.770   3.035   1.628
 2912TIP3    H2 8682   5.785   3.138   1.738
 2913TIP3   OH2 8683   5.254   2.900   2.098
 2913TIP3    H1 8684   5.301   2.894   2.181
 2913TIP3    H2 8685   5.201   2.820   2.095
 2914TIP3   OH2 8686   6.020   2.953   1.348
 2914TIP3    H1 8687   6.076   2.884   1.313
 2914TIP3    H2 8688   6.051   2.966   1.437
 2915TIP3   OH2 8689   6.068   3.004   1.618
 2915TIP3    H1 8690   5.981   3.014   1.658
 2915TIP3    H2 8691   6.121   2.965   1.688
 2916TIP3   OH2 8692   6.837   2.268   2.898
 2916TIP3    H1 8693   6.754   2.282   2.852
 2916TIP3    H2 8694   6.855   2.175   2.889
 2917TIP3   OH2 8695   5.434   2.675   2.919
 2917TIP3    H1 8696   5.482   2.663   3.001
 2917TIP3    H2 8697   5.360   2.616   2.926
 2918TIP3   OH2 8698   5.831   1.503   2.709
 2918TIP3    H1 8699   5.745   1.470   2.680
 2918TIP3    H2 8700   5.811   1.584   2.755
 2919TIP3   OH2 8701   6.372   1.611   2.906
 2919TIP3    H1 8702   6.442   1.587   2.967
 2919TIP3    H2 8703   6.291   1.596   2.955
 2920TIP3   OH2 8704   6.603   2.046   2.822
 2920TIP3    H1 8705   6.555   2.042   2.904
 2920TIP3    H2 8706   6.582   2.132   2.785
 2921TIP3   OH2 8707   5.977   1.545   1.681
 2921TIP3    H1 8708   5.944   1.545   1.771
 2921TIP3    H2 8709   5.940   1.466   1.642
 2922TIP3   OH2 8710   5.765   2.019   2.727
 2922TIP3    H1 8711   5.717   2.037   2.808
 2922TIP3    H2 8712   5.752   2.097   2.674
 2923TIP3   OH2 8713   5.649   1.900   2.239
 2923TIP3    H1 8714   5.558   1.879   2.260
 2923TIP3    H2 8715   5.662   1.863   2.152
 2924TIP3   OH2 8716   6.140   1.987   1.965
 2924TIP3    H1 8717   6.090   2.058   1.925
 2924TIP3    H2 8718   6.197   1.956   1.894
 2925TIP3   OH2 8719   6.316   2.261   3.053
 2925TIP3    H1 8720   6.292   2.191   3.113
 2925TIP3    H2 8721   6.408   2.280   3.074
 2926TIP3   OH2 8722   6.294   2.013   2.203
 2926TIP3    H1 8723   6.233   2.047   2.137
 2926TIP3    H2 8724   6.331   1.934   2.163
 2927TIP3   OH2 8725   5.586   2.045   2.936
 2927TIP3    H1 8726   5.610   2.112   2.999
 2927TIP3    H2 8727   5.574   1.965   2.988
 2928TIP3   OH2 8728   5.634   1.525   1.647
 2928TIP3    H1 8729   5.624   1.523   1.743
 2928TIP3    H2 8730   5.560   1.577   1.616
 2929TIP3   OH2 8731   5.178   1.563   2.519
 2929TIP3    H1 8732   5.252   1.597   2.570
 2929TIP3    H2 8733   5.217   1.539   2.435
 2930TIP3   OH2 8734   5.144   1.551   2.034
 2930TIP3    H1 8735   5.189   1.583   1.956
 2930TIP3    H2 8736   5.082   1.620   2.057
 2931TIP3   OH2 8737   6.306   2.257   2.628
 2931TIP3    H1 8738   6.340   2.190   2.569
 2931TIP3    H2 8739   6.276   2.208   2.704
 2932TIP3   OH2 8740   5.980   1.713   2.302
 2932TIP3    H1 8741   5.898   1.721   2.351
 2932TIP3    H2 8742   6.049   1.726   2.367
 2933TIP3   OH2 8743   5.409   1.782   2.307
 2933TIP3    H1 8744   5.317   1.793   2.280
 2933TIP3    H2 8745   5.430   1.692   2.284
 2934TIP3   OH2 8746   5.677   1.775   1.998
 2934TIP3    H1 8747   5.769   1.793   1.976
 2934TIP3    H2 8748   5.629   1.798   1.918
 2935TIP3   OH2 8749   6.468   1.799   2.503
 2935TIP3    H1 8750   6.442   1.814   2.594
 2935TIP3    H2 8751   6.399   1.743   2.468
 2936TIP3   OH2 8752   5.528   1.809   1.773
 2936TIP3    H1 8753   5.456   1.765   1.727
 2936TIP3    H2 8754   5.580   1.848   1.703
 2937TIP3   OH2 8755   6.645   3.489   2.723
 2937TIP3    H1 8756   6.638   3.515   2.631
 2937TIP3    H2 8757   6.720   3.538   2.757
 2938TIP3   OH2 8758   5.598   2.598   3.146
 2938TIP3    H1 8759   5.678   2.629   3.190
 2938TIP3    H2 8760   5.531   2.598   3.214
 2939TIP3   OH2 8761   6.059   2.049   2.397
 2939TIP3    H1 8762   6.136   2.019   2.349
 2939TIP3    H2 8763   6.068   2.010   2.484
 2940TIP3   OH2 8764   5.583   1.537   2.281
 2940TIP3    H1 8765   5.544   1.463   2.327
 2940TIP3    H2 8766   5.611   1.501   2.197
 2941TIP3   OH2 8767   6.035   1.953   2.692
 2941TIP3    H1 8768   5.947   1.989   2.703
 2941TIP3    H2 8769   6.092   2.014   2.738
 2942TIP3   OH2 8770   5.772   2.338   1.785
 2942TIP3    H1 8771   5.702   2.275   1.770
 2942TIP3    H2 8772   5.755   2.374   1.872
 2943TIP3   OH2 8773   6.670   2.576   2.408
 2943TIP3    H1 8774   6.694   2.628   2.331
 2943TIP3    H2 8775   6.587   2.535   2.385
 2944TIP3   OH2 8776   6.231   1.650   1.658
 2944TIP3    H1 8777   6.137   1.633   1.660
 2944TIP3    H2 8778   6.239   1.744   1.674
 2945TIP3   OH2 8779   6.170   2.659   2.783
 2945TIP3    H1 8780   6.201   2.644   2.872
 2945TIP3    H2 8781   6.132   2.747   2.786
 2946TIP3   OH2 8782   6.301   1.908   1.748
 2946TIP3    H1 8783   6.395   1.908   1.765
 2946TIP3    H2 8784   6.287   1.980   1.687
 2947TIP3   OH2 8785   5.467   2.363   2.458
 2947TIP3    H1 8786   5.503   2.336   2.373
 2947TIP3    H2 8787   5.508   2.305   2.521
 2948TIP3   OH2 8788   5.916   2.490   1.606
 2948TIP3    H1 8789   5.870   2.575   1.608
 2948TIP3    H2 8790   5.866   2.435   1.666
 2949TIP3   OH2 8791   5.349   2.279   3.073
 2949TIP3    H1 8792   5.366   2.268   3.166
 2949TIP3    H2 8793   5.277   2.218   3.054
 2950TIP3   OH2 8794   6.075   2.397   3.090
 2950TIP3    H1 8795   6.012   2.340   3.047
 2950TIP3    H2 8796   6.161   2.364   3.063
 2951TIP3   OH2 8797   6.330   2.917   2.681
 2951TIP3    H1 8798   6.234   2.916   2.691
 2951TIP3    H2 8799   6.361   2.969   2.755
 2952TIP3   OH2 8800   6.726   1.980   1.577
 2952TIP3    H1 8801   6.663   1.925   1.530
 2952TIP3    H2 8802   6.698   2.069   1.560
 2953TIP3   OH2 8803   6.960   2.850   2.662
 2953TIP3    H1 8804   6.864   2.846   2.659
 2953TIP3    H2 8805   6.988   2.820   2.576
 2954TIP3   OH2 8806   6.445   2.809   1.495
 2954TIP3    H1 8807   6.420   2.741   1.557
 2954TIP3    H2 8808   6.455   2.763   1.411
 2955TIP3   OH2 8809   6.437   2.438   2.327
 2955TIP3    H1 8810   6.345   2.418   2.342
 2955TIP3    H2 8811   6.471   2.360   2.282
 2956TIP3   OH2 8812   5.567   2.669   2.083
 2956TIP3    H1 8813   5.566   2.749   2.029
 2956TIP3    H2 8814   5.475   2.650   2.099
 2957TIP3   OH2 8815   5.133   1.972   1.795
 2957TIP3    H1 8816   5.177   2.055   1.812
 2957TIP3    H2 8817   5.055   1.973   1.850
 2958TIP3   OH2 8818   5.697   2.431   2.027
 2958TIP3    H1 8819   5.667   2.520   2.043
 2958TIP3    H2 8820   5.663   2.381   2.101
 2959TIP3   OH2 8821   5.839   3.011   2.551
 2959TIP3    H1 8822   5.878   3.084   2.502
 2959TIP3    H2 8823   5.913   2.974   2.600
 2960TIP3   OH2 8824   5.483   2.909   1.936
 2960TIP3    H1 8825   5.400   2.914   1.983
 2960TIP3    H2 8826   5.517   2.998   1.939
 2961TIP3   OH2 8827   6.221   2.643   2.516
 2961TIP3    H1 8828   6.209   2.644   2.611
 2961TIP3    H2 8829   6.301   2.593   2.502
 2962TIP3   OH2 8830   6.204   2.537   1.397
 2962TIP3    H1 8831   6.260   2.517   1.472
 2962TIP3    H2 8832   6.115   2.514   1.426
 2963TIP3   OH2 8833   6.470   3.175   2.558
 2963TIP3    H1 8834   6.392   3.120   2.555
 2963TIP3    H2 8835   6.457   3.240   2.490
 2964TIP3   OH2 8836   6.537   3.015   1.214
 2964TIP3    H1 8837   6.579   3.087   1.167
 2964TIP3    H2 8838   6.457   3.052   1.249
 2965TIP3   OH2 8839   5.554   1.785   3.079
 2965TIP3    H1 8840   5.459   1.792   3.090
 2965TIP3    H2 8841   5.584   1.733   3.154
 2966TIP3   OH2 8842   6.359   2.478   1.619
 2966TIP3    H1 8843   6.347   2.406   1.681
 2966TIP3    H2 8844   6.453   2.477   1.600
 2967TIP3   OH2 8845   5.276   2.871   2.711
 2967TIP3    H1 8846   5.330   2.801   2.748
 2967TIP3    H2 8847   5.296   2.948   2.764
 2968TIP3   OH2 8848   5.562   2.517   1.396
 2968TIP3    H1 8849   5.577   2.427   1.368
 2968TIP3    H2 8850   5.542   2.510   1.490
 2969TIP3   OH2 8851   5.509   2.526   1.668
 2969TIP3    H1 8852   5.582   2.496   1.723
 2969TIP3    H2 8853   5.510   2.621   1.675
 2970TIP3   OH2 8854   5.241   2.219   1.872
 2970TIP3    H1 8855   5.175   2.260   1.929
 2970TIP3    H2 8856   5.256   2.283   1.803
 2971TIP3   OH2 8857   6.401   1.847   2.763
 2971TIP3    H1 8858   6.477   1.891   2.801
 2971TIP3    H2 8859   6.388   1.770   2.817
 2972TIP3   OH2 8860   6.278   1.600   1.932
 2972TIP3    H1 8861   6.262   1.619   1.840
 2972TIP3    H2 8862   6.316   1.681   1.967
 2973TIP3   OH2 8863   5.773   2.721   1.614
 2973TIP3    H1 8864   5.688   2.742   1.653
 2973TIP3    H2 8865   5.792   2.795   1.557
 2974TIP3   OH2 8866   5.963   1.785   2.032
 2974TIP3    H1 8867   6.024   1.856   2.011
 2974TIP3    H2 8868   5.968   1.777   2.127
 2975TIP3   OH2 8869   6.235   2.099   2.837
 2975TIP3    H1 8870   6.256   2.155   2.913
 2975TIP3    H2 8871   6.287   2.020   2.851
 2976TIP3   OH2 8872   6.107   1.504   2.129
 2976TIP3    H1 8873   6.091   1.579   2.187
 2976TIP3    H2 8874   6.167   1.536   2.063
 2977TIP3   OH2 8875   5.520   2.798   1.686
 2977TIP3    H1 8876   5.491   2.865   1.624
 2977TIP3    H2 8877   5.505   2.837   1.772
 2978TIP3   OH2 8878   5.622   1.512   1.925
 2978TIP3    H1 8879   5.614   1.602   1.957
 2978TIP3    H2 8880   5.715   1.493   1.928
 2979TIP3   OH2 8881   6.869   2.002   2.816
 2979TIP3    H1 8882   6.774   2.003   2.828
 2979TIP3    H2 8883   6.882   1.956   2.733
 2980TIP3   OH2 8884   6.523   2.194   2.207
 2980TIP3    H1 8885   6.447   2.138   2.218
 2980TIP3    H2 8886   6.593   2.149   2.254
 2981TIP3   OH2 8887   5.241   2.420   1.674
 2981TIP3    H1 8888   5.307   2.489   1.686
 2981TIP3    H2 8889   5.279   2.362   1.608
 2982TIP3   OH2 8890   5.177   1.701   1.809
 2982TIP3    H1 8891   5.181   1.796   1.810
 2982TIP3    H2 8892   5.097   1.680   1.761
 2983TIP3   OH2 8893   6.494   3.156   2.151
 2983TIP3    H1 8894   6.449   3.200   2.079
 2983TIP3    H2 8895   6.587   3.172   2.134
 2984TIP3   OH2 8896   5.571   1.418   2.677
 2984TIP3    H1 8897   5.538   1.389   2.593
 2984TIP3    H2 8898   5.557   1.344   2.736
 2985TIP3   OH2 8899   5.101   2.638   2.058
 2985TIP3    H1 8900   5.042   2.667   2.127
 2985TIP3    H2 8901   5.069   2.680   1.978
 2986TIP3   OH2 8902   5.269   3.186   3.133
 2986TIP3    H1 8903   5.352   3.191   3.180
 2986TIP3    H2 8904   5.247   3.092   3.134
 2987TIP3   OH2 8905   5.743   3.139   3.180
 2987TIP3    H1 8906   5.838   3.130   3.186
 2987TIP3    H2 8907   5.717   3.081   3.110
 2988TIP3   OH2 8908   5.726   2.717   1.304
 2988TIP3    H1 8909   5.669   2.650   1.343
 2988TIP3    H2 8910   5.803   2.669   1.274
 2989TIP3   OH2 8911   6.387   3.051   2.913
 2989TIP3    H1 8912   6.379   2.984   2.981
 2989TIP3    H2 8913   6.460   3.105   2.942
 2990TIP3   OH2 8914   6.165   2.753   1.221
 2990TIP3    H1 8915   6.198   2.685   1.280
 2990TIP3    H2 8916   6.225   2.750   1.146
 2991TIP3   OH2 8917   5.394   2.587   3.333
 2991TIP3    H1 8918   5.410   2.493   3.341
 2991TIP3    H2 8919   5.309   2.593   3.289
 2992TIP3   OH2 8920   5.377   2.235   1.530
 2992TIP3    H1 8921   5.430   2.206   1.604
 2992TIP3    H2 8922   5.439   2.241   1.458
 2993TIP3   OH2 8923   6.002   2.675   3.107
 2993TIP3    H1 8924   5.960   2.697   3.024
 2993TIP3    H2 8925   6.032   2.585   3.096
 2994TIP3   OH2 8926   5.886   2.435   1.338
 2994TIP3    H1 8927   5.888   2.450   1.432
 2994TIP3    H2 8928   5.890   2.340   1.328
 2995TIP3   OH2 8929   6.494   2.688   2.715
 2995TIP3    H1 8930   6.571   2.728   2.673
 2995TIP3    H2 8931   6.424   2.752   2.702
 2996TIP3   OH2 8932   5.516   2.323   3.322
 2996TIP3    H1 8933   5.594   2.276   3.291
 2996TIP3    H2 8934   5.542   2.358   3.407
 2997TIP3   OH2 8935   5.578   2.142   1.748
 2997TIP3    H1 8936   5.550   2.105   1.832
 2997TIP3    H2 8937   5.616   2.069   1.700
 2998TIP3   OH2 8938   5.851   2.208   2.977
 2998TIP3    H1 8939   5.773   2.264   2.980
 2998TIP3    H2 8940   5.901   2.241   2.902
 2999TIP3   OH2 8941   5.686   1.938   1.588
 2999TIP3    H1 8942   5.657   1.946   1.497
 2999TIP3    H2 8943   5.781   1.940   1.583
 3000TIP3   OH2 8944   6.367   2.607   3.112
 3000TIP3    H1 8945   6.445   2.580   3.064
 3000TIP3    H2 8946   6.361   2.545   3.185
 3001TIP3   OH2 8947   5.973   1.997   3.100
 3001TIP3    H1 8948   5.974   1.919   3.045
 3001TIP3    H2 8949   5.931   2.064   3.047
 3002TIP3   OH2 8950   5.975   1.781   2.910
 3002TIP3    H1 8951   6.004   1.826   2.831
 3002TIP3    H2 8952   5.883   1.761   2.894
 3003TIP3   OH2 8953   5.999   2.317   2.783
 3003TIP3    H1 8954   6.085   2.333   2.745
 3003TIP3    H2 8955   5.942   2.381   2.740
 3004TIP3   OH2 8956   6.583   2.282   3.163
 3004TIP3    H1 8957   6.630   2.200   3.177
 3004TIP3    H2 8958   6.648   2.342   3.128
 3005TIP3   OH2 8959   6.625   2.539   2.898
 3005TIP3    H1 8960   6.565   2.591   2.844
 3005TIP3    H2 8961   6.711   2.558   2.862
 3006TIP3   OH2 8962   5.852   2.100   3.337
 3006TIP3    H1 8963   5.784   2.035   3.354
 3006TIP3    H2 8964   5.885   2.079   3.250
 3007TIP3   OH2 8965   6.104   1.543   2.980
 3007TIP3    H1 8966   6.059   1.625   2.958
 3007TIP3    H2 8967   6.038   1.475   2.970
 3008TIP3   OH2 8968   6.231   2.045   3.198
 3008TIP3    H1 8969   6.222   2.034   3.292
 3008TIP3    H2 8970   6.145   2.024   3.162
 3009TIP3   OH2 8971   6.471   1.995   3.052
 3009TIP3    H1 8972   6.398   1.999   3.113
 3009TIP3    H2 8973   6.546   1.968   3.105
 3010TIP3   OH2 8974   6.702   1.940   3.201
 3010TIP3    H1 8975   6.714   1.846   3.215
 3010TIP3    H2 8976   6.697   1.977   3.289
 3011TIP3   OH2 8977   5.690   1.880   3.392
 3011TIP3    H1 8978   5.695   1.791   3.358
 3011TIP3    H2 8979   5.727   1.874   3.481
 3012TIP3   OH2 8980   6.201   1.552   3.238
 3012TIP3    H1 8981   6.268   1.485   3.235
 3012TIP3    H2 8982   6.160   1.549   3.151
 3013TIP3   OH2 8983   6.266   1.769   3.397
 3013TIP3    H1 8984   6.246   1.699   3.335
 3013TIP3    H2 8985   6.190   1.827   3.391
 3014TIP3   OH2 8986   5.493   3.001   1.495
 3014TIP3    H1 8987   5.586   2.989   1.479
 3014TIP3    H2 8988   5.461   3.051   1.420
 3015TIP3   OH2 8989   4.970   2.380   1.709
 3015TIP3    H1 8990   5.063   2.402   1.697
 3015TIP3    H2 8991   4.961   2.293   1.670
 3016TIP3   OH2 8992   4.886   2.990   2.128
 3016TIP3    H1 8993   4.820   2.933   2.089
 3016TIP3    H2 8994   4.931   2.933   2.192
 3017TIP3   OH2 8995   5.022   2.838   2.316
 3017TIP3    H1 8996   5.005   2.768   2.380
 3017TIP3    H2 8997   5.072   2.903   2.364
 3018TIP3   OH2 8998   6.751   3.240   2.115
 3018TIP3    H1 8999   6.771   3.273   2.203
 3018TIP3    H2 9000   6.811   3.287   2.057
 3019TIP3   OH2 9001   6.774   3.260   2.397
 3019TIP3    H1 9002   6.729   3.176   2.392
 3019TIP3    H2 9003   6.850   3.243   2.454
 3020TIP3   OH2 9004   6.823   2.941   2.971
 3020TIP3    H1 9005   6.751   2.948   3.034
 3020TIP3    H2 9006   6.865   3.027   2.972
 3021TIP3   OH2 9007   6.633   2.472   1.598
 3021TIP3    H1 9008   6.705   2.524   1.561
 3021TIP3    H2 9009   6.675   2.411   1.658
 3022TIP3   OH2 9010   6.769   2.312   1.787
 3022TIP3    H1 9011   6.698   2.276   1.840
 3022TIP3    H2 9012   6.824   2.359   1.849
 3023TIP3   OH2 9013   6.826   2.716   2.224
 3023TIP3    H1 9014   6.875   2.648   2.178
 3023TIP3    H2 9015   6.819   2.788   2.161
 3024TIP3   OH2 9016   6.648   3.012   2.418
 3024TIP3    H1 9017   6.580   3.056   2.469
 3024TIP3    H2 9018   6.601   2.968   2.347
 3025TIP3   OH2 9019   6.580   2.180   1.938
 3025TIP3    H1 9020   6.583   2.085   1.929
 3025TIP3    H2 9021   6.565   2.194   2.031
 3026TIP3   OH2 9022   5.207   2.247   2.686
 3026TIP3    H1 9023   5.200   2.216   2.595
 3026TIP3    H2 9024   5.301   2.250   2.703
 3027TIP3   OH2 9025   6.871   2.603   2.795
 3027TIP3    H1 9026   6.940   2.537   2.783
 3027TIP3    H2 9027   6.893   2.672   2.732
 3028TIP3   OH2 9028   7.053   2.401   2.803
 3028TIP3    H1 9029   6.977   2.358   2.842
 3028TIP3    H2 9030   7.126   2.342   2.820
 3029TIP3   OH2 9031   6.528   1.606   1.358
 3029TIP3    H1 9032   6.589   1.606   1.431
 3029TIP3    H2 9033   6.445   1.578   1.396
 3030TIP3   OH2 9034   6.578   1.893   1.834
 3030TIP3    H1 9035   6.618   1.807   1.848
 3030TIP3    H2 9036   6.627   1.931   1.761
 3031TIP3   OH2 9037   6.739   2.065   2.328
 3031TIP3    H1 9038   6.820   2.087   2.284
 3031TIP3    H2 9039   6.748   2.101   2.416
 3032TIP3   OH2 9040   6.807   2.214   2.556
 3032TIP3    H1 9041   6.732   2.244   2.606
 3032TIP3    H2 9042   6.841   2.293   2.513
 3033TIP3   OH2 9043   5.424   1.931   3.356
 3033TIP3    H1 9044   5.519   1.931   3.361
 3033TIP3    H2 9045   5.398   1.849   3.397
 3034TIP3   OH2 9046   7.264   1.814   3.109
 3034TIP3    H1 9047   7.319   1.746   3.071
 3034TIP3    H2 9048   7.228   1.861   3.034
 3035TIP3   OH2 9049   6.688   1.643   1.869
 3035TIP3    H1 9050   6.736   1.630   1.950
 3035TIP3    H2 9051   6.626   1.570   1.865
 3036TIP3   OH2 9052   5.389   1.629   2.688
 3036TIP3    H1 9053   5.449   1.555   2.697
 3036TIP3    H2 9054   5.446   1.706   2.681
 3037TIP3   OH2 9055   5.187   1.901   2.762
 3037TIP3    H1 9056   5.235   1.899   2.679
 3037TIP3    H2 9057   5.207   1.987   2.799
 3038TIP3   OH2 9058   7.124   1.940   2.914
 3038TIP3    H1 9059   7.043   1.984   2.940
 3038TIP3    H2 9060   7.095   1.868   2.858
 3039TIP3   OH2 9061   6.770   1.574   1.511
 3039TIP3    H1 9062   6.801   1.507   1.450
 3039TIP3    H2 9063   6.833   1.646   1.502
 3040TIP3   OH2 9064   5.171   1.406   2.262
 3040TIP3    H1 9065   5.080   1.400   2.292
 3040TIP3    H2 9066   5.167   1.464   2.186
 3041TIP3   OH2 9067   6.331   3.112   1.768
 3041TIP3    H1 9068   6.382   3.101   1.688
 3041TIP3    H2 9069   6.380   3.176   1.819
 3042TIP3   OH2 9070   5.388   1.479   3.073
 3042TIP3    H1 9071   5.343   1.480   3.158
 3042TIP3    H2 9072   5.327   1.523   3.014
 3043TIP3   OH2 9073   5.430   2.910   3.153
 3043TIP3    H1 9074   5.338   2.891   3.137
 3043TIP3    H2 9075   5.441   2.901   3.248
 3044TIP3   OH2 9076   5.613   2.952   2.699
 3044TIP3    H1 9077   5.561   3.024   2.664
 3044TIP3    H2 9078   5.698   2.962   2.657
 3045TIP3   OH2 9079   6.053   3.190   2.838
 3045TIP3    H1 9080   6.091   3.189   2.926
 3045TIP3    H2 9081   6.115   3.242   2.786
 3046TIP3   OH2 9082   6.233   3.346   2.702
 3046TIP3    H1 9083   6.301   3.294   2.658
 3046TIP3    H2 9084   6.281   3.403   2.762
 3047TIP3   OH2 9085   7.025   1.703   2.797
 3047TIP3    H1 9086   6.935   1.695   2.765
 3047TIP3    H2 9087   7.061   1.614   2.788
 3048TIP3   OH2 9088   5.283   3.205   2.729
 3048TIP3    H1 9089   5.195   3.233   2.705
 3048TIP3    H2 9090   5.302   3.252   2.810
 3049TIP3   OH2 9091   5.519   3.183   2.584
 3049TIP3    H1 9092   5.435   3.194   2.629
 3049TIP3    H2 9093   5.503   3.215   2.495
 3050TIP3   OH2 9094   5.946   3.211   2.383
 3050TIP3    H1 9095   5.877   3.227   2.318
 3050TIP3    H2 9096   5.960   3.295   2.425
 3051TIP3   OH2 9097   6.216   3.148   2.434
 3051TIP3    H1 9098   6.123   3.165   2.417
 3051TIP3    H2 9099   6.262   3.221   2.392
 3052TIP3   OH2 9100   6.421   3.340   2.345
 3052TIP3    H1 9101   6.408   3.424   2.301
 3052TIP3    H2 9102   6.448   3.280   2.275
 3053TIP3   OH2 9103   5.200   2.995   2.470
 3053TIP3    H1 9104   5.220   2.970   2.560
 3053TIP3    H2 9105   5.269   2.954   2.417
 3054TIP3   OH2 9106   5.395   2.868   2.330
 3054TIP3    H1 9107   5.406   2.786   2.379
 3054TIP3    H2 9108   5.483   2.905   2.326
 3055TIP3   OH2 9109   5.662   2.960   2.337
 3055TIP3    H1 9110   5.688   2.869   2.323
 3055TIP3    H2 9111   5.706   2.987   2.417
 3056TIP3   OH2 9112   6.241   1.626   2.420
 3056TIP3    H1 9113   6.191   1.559   2.465
 3056TIP3    H2 9114   6.311   1.579   2.376
 3057TIP3   OH2 9115   6.749   1.498   2.317
 3057TIP3    H1 9116   6.789   1.549   2.246
 3057TIP3    H2 9117   6.657   1.525   2.317
 3058TIP3   OH2 9118   6.853   1.600   2.085
 3058TIP3    H1 9119   6.924   1.547   2.049
 3058TIP3    H2 9120   6.882   1.690   2.073
 3059TIP3   OH2 9121   5.480   1.322   2.432
 3059TIP3    H1 9122   5.388   1.297   2.435
 3059TIP3    H2 9123   5.528   1.240   2.425
 3060TIP3   OH2 9124   5.279   1.202   2.087
 3060TIP3    H1 9125   5.301   1.254   2.010
 3060TIP3    H2 9126   5.244   1.265   2.150
 3061TIP3   OH2 9127   5.942   1.354   2.317
 3061TIP3    H1 9128   5.985   1.403   2.246
 3061TIP3    H2 9129   5.941   1.415   2.391
 3062TIP3   OH2 9130   6.461   1.501   2.300
 3062TIP3    H1 9131   6.471   1.468   2.211
 3062TIP3    H2 9132   6.450   1.422   2.354
 3063TIP3   OH2 9133   6.501   1.433   1.861
 3063TIP3    H1 9134   6.418   1.480   1.874
 3063TIP3    H2 9135   6.487   1.348   1.904
 3064TIP3   OH2 9136   4.983   2.774   1.857
 3064TIP3    H1 9137   4.899   2.738   1.828
 3064TIP3    H2 9138   4.978   2.867   1.836
 3065TIP3   OH2 9139   5.389   1.354   1.845
 3065TIP3    H1 9140   5.433   1.292   1.786
 3065TIP3    H2 9141   5.460   1.408   1.880
 3066TIP3   OH2 9142   5.898   1.536   1.947
 3066TIP3    H1 9143   5.961   1.488   2.001
 3066TIP3    H2 9144   5.914   1.628   1.967
 3067TIP3   OH2 9145   5.760   2.952   1.441
 3067TIP3    H1 9146   5.846   2.977   1.408
 3067TIP3    H2 9147   5.733   2.879   1.384
 3068TIP3   OH2 9148   6.477   3.075   1.536
 3068TIP3    H1 9149   6.471   2.980   1.529
 3068TIP3    H2 9150   6.432   3.108   1.458
 3069TIP3   OH2 9151   5.690   1.604   3.324
 3069TIP3    H1 9152   5.651   1.537   3.380
 3069TIP3    H2 9153   5.782   1.607   3.351
 3070TIP3   OH2 9154   5.939   1.603   3.444
 3070TIP3    H1 9155   6.024   1.583   3.405
 3070TIP3    H2 9156   5.926   1.535   3.510
 3071TIP3   OH2 9157   5.062   2.792   1.498
 3071TIP3    H1 9158   5.060   2.812   1.592
 3071TIP3    H2 9159   5.147   2.751   1.484
 3072TIP3   OH2 9160   6.762   1.669   3.235
 3072TIP3    H1 9161   6.781   1.635   3.322
 3072TIP3    H2 9162   6.846   1.671   3.190
 3073TIP3   OH2 9163   6.699   3.221   2.721
 3073TIP3    H1 9164   6.623   3.188   2.673
 3073TIP3    H2 9165   6.683   3.315   2.730
 3074TIP3   OH2 9166   7.269   2.484   2.233
 3074TIP3    H1 9167   7.291   2.415   2.296
 3074TIP3    H2 9168   7.340   2.547   2.240
 3075TIP3   OH2 9169   7.239   2.899   1.960
 3075TIP3    H1 9170   7.228   2.804   1.962
 3075TIP3    H2 9171   7.333   2.913   1.951
 3076TIP3   OH2 9172   6.942   2.097   1.736
 3076TIP3    H1 9173   6.897   2.178   1.758
 3076TIP3    H2 9174   6.874   2.041   1.698
 3077TIP3   OH2 9175   7.005   2.388   1.923
 3077TIP3    H1 9176   7.052   2.311   1.956
 3077TIP3    H2 9177   7.058   2.418   1.849
 3078TIP3   OH2 9178   7.875   3.317   1.554
 3078TIP3    H1 9179   7.968   3.293   1.549
 3078TIP3    H2 9180   7.859   3.333   1.647
 3079TIP3   OH2 9181   7.781   2.801   1.921
 3079TIP3    H1 9182   7.784   2.782   1.828
 3079TIP3    H2 9183   7.854   2.861   1.936
 3080TIP3   OH2 9184   7.499   1.980   1.926
 3080TIP3    H1 9185   7.506   2.048   1.858
 3080TIP3    H2 9186   7.462   1.905   1.880
 3081TIP3   OH2 9187   7.153   2.179   2.021
 3081TIP3    H1 9188   7.230   2.161   2.075
 3081TIP3    H2 9189   7.166   2.126   1.943
 3082TIP3   OH2 9190   7.578   2.377   1.813
 3082TIP3    H1 9191   7.668   2.347   1.827
 3082TIP3    H2 9192   7.531   2.299   1.783
 3083TIP3   OH2 9193   7.514   1.971   2.361
 3083TIP3    H1 9194   7.459   2.004   2.289
 3083TIP3    H2 9195   7.461   1.986   2.440
 3084TIP3   OH2 9196   7.623   2.739   2.154
 3084TIP3    H1 9197   7.560   2.803   2.188
 3084TIP3    H2 9198   7.668   2.784   2.083
 3085TIP3   OH2 9199   7.382   2.081   2.144
 3085TIP3    H1 9200   7.442   2.152   2.166
 3085TIP3    H2 9201   7.422   2.038   2.069
 3086TIP3   OH2 9202   7.449   2.936   2.243
 3086TIP3    H1 9203   7.429   3.021   2.205
 3086TIP3    H2 9204   7.372   2.914   2.296
 3087TIP3   OH2 9205   6.846   2.625   1.477
 3087TIP3    H1 9206   6.797   2.652   1.399
 3087TIP3    H2 9207   6.875   2.707   1.516
 3088TIP3   OH2 9208   7.367   2.522   1.707
 3088TIP3    H1 9209   7.330   2.468   1.638
 3088TIP3    H2 9210   7.444   2.474   1.737
 3089TIP3   OH2 9211   7.498   2.938   1.853
 3089TIP3    H1 9212   7.474   2.909   1.765
 3089TIP3    H2 9213   7.582   2.896   1.870
 3090TIP3   OH2 9214   7.523   2.493   2.063
 3090TIP3    H1 9215   7.544   2.473   1.972
 3090TIP3    H2 9216   7.557   2.582   2.077
 3091TIP3   OH2 9217   7.647   3.046   2.400
 3091TIP3    H1 9218   7.591   3.111   2.441
 3091TIP3    H2 9219   7.588   2.995   2.344
 3092TIP3   OH2 9220   7.401   2.613   2.492
 3092TIP3    H1 9221   7.408   2.700   2.533
 3092TIP3    H2 9222   7.310   2.588   2.507
 3093TIP3   OH2 9223   7.741   3.104   1.426
 3093TIP3    H1 9224   7.770   3.189   1.460
 3093TIP3    H2 9225   7.682   3.126   1.354
 3094TIP3   OH2 9226   7.445   3.216   2.475
 3094TIP3    H1 9227   7.412   3.222   2.386
 3094TIP3    H2 9228   7.368   3.195   2.528
 3095TIP3   OH2 9229   7.246   2.365   1.505
 3095TIP3    H1 9230   7.179   2.411   1.453
 3095TIP3    H2 9231   7.202   2.284   1.534
 3096TIP3   OH2 9232   7.026   2.751   2.421
 3096TIP3    H1 9233   6.958   2.734   2.356
 3096TIP3    H2 9234   7.062   2.664   2.441
 3097TIP3   OH2 9235   6.882   2.946   2.054
 3097TIP3    H1 9236   6.977   2.943   2.046
 3097TIP3    H2 9237   6.865   3.024   2.107
 3098TIP3   OH2 9238   7.837   3.162   2.239
 3098TIP3    H1 9239   7.849   3.253   2.266
 3098TIP3    H2 9240   7.769   3.128   2.297
 3099TIP3   OH2 9241   7.614   3.306   1.196
 3099TIP3    H1 9242   7.570   3.291   1.112
 3099TIP3    H2 9243   7.584   3.392   1.224
 3100TIP3   OH2 9244   7.050   3.156   1.584
 3100TIP3    H1 9245   7.096   3.151   1.667
 3100TIP3    H2 9246   6.997   3.077   1.581
 3101TIP3   OH2 9247   7.879   3.269   1.129
 3101TIP3    H1 9248   7.789   3.286   1.155
 3101TIP3    H2 9249   7.895   3.178   1.152
 3102TIP3   OH2 9250   7.232   2.931   2.405
 3102TIP3    H1 9251   7.278   2.920   2.488
 3102TIP3    H2 9252   7.157   2.872   2.411
 3103TIP3   OH2 9253   7.629   1.768   2.212
 3103TIP3    H1 9254   7.558   1.730   2.160
 3103TIP3    H2 9255   7.587   1.839   2.261
 3104TIP3   OH2 9256   7.559   2.277   2.217
 3104TIP3    H1 9257   7.506   2.293   2.295
 3104TIP3    H2 9258   7.546   2.355   2.163
 3105TIP3   OH2 9259   7.445   2.156   1.722
 3105TIP3    H1 9260   7.357   2.128   1.746
 3105TIP3    H2 9261   7.460   2.117   1.636
 3106TIP3   OH2 9262   7.373   2.297   2.422
 3106TIP3    H1 9263   7.409   2.358   2.486
 3106TIP3    H2 9264   7.361   2.215   2.470
 3107TIP3   OH2 9265   7.393   1.730   1.127
 3107TIP3    H1 9266   7.418   1.749   1.217
 3107TIP3    H2 9267   7.352   1.810   1.096
 3108TIP3   OH2 9268   6.976   1.822   2.002
 3108TIP3    H1 9269   7.047   1.854   2.057
 3108TIP3    H2 9270   7.020   1.788   1.924
 3109TIP3   OH2 9271   6.942   1.809   1.518
 3109TIP3    H1 9272   6.990   1.846   1.443
 3109TIP3    H2 9273   6.877   1.875   1.540
 3110TIP3   OH2 9274   7.206   2.041   1.789
 3110TIP3    H1 9275   7.114   2.047   1.764
 3110TIP3    H2 9276   7.229   1.949   1.776
 3111TIP3   OH2 9277   7.485   2.041   1.474
 3111TIP3    H1 9278   7.568   2.058   1.429
 3111TIP3    H2 9279   7.418   2.051   1.405
 3112TIP3   OH2 9280   7.326   2.052   1.258
 3112TIP3    H1 9281   7.242   2.031   1.216
 3112TIP3    H2 9282   7.376   2.097   1.190
 3113TIP3   OH2 9283   7.394   2.857   2.633
 3113TIP3    H1 9284   7.473   2.888   2.678
 3113TIP3    H2 9285   7.326   2.856   2.701
 3114TIP3   OH2 9286   7.367   1.795   1.765
 3114TIP3    H1 9287   7.333   1.729   1.825
 3114TIP3    H2 9288   7.412   1.745   1.697
 3115TIP3   OH2 9289   7.823   2.194   2.202
 3115TIP3    H1 9290   7.732   2.221   2.192
 3115TIP3    H2 9291   7.872   2.276   2.207
 3116TIP3   OH2 9292   7.540   2.621   1.273
 3116TIP3    H1 9293   7.489   2.540   1.266
 3116TIP3    H2 9294   7.544   2.638   1.367
 3117TIP3   OH2 9295   7.930   2.886   2.306
 3117TIP3    H1 9296   7.971   2.891   2.392
 3117TIP3    H2 9297   7.904   2.976   2.286
 3118TIP3   OH2 9298   7.269   2.626   1.948
 3118TIP3    H1 9299   7.298   2.593   1.863
 3118TIP3    H2 9300   7.295   2.558   2.010
 3119TIP3   OH2 9301   7.671   2.742   1.065
 3119TIP3    H1 9302   7.649   2.833   1.088
 3119TIP3    H2 9303   7.647   2.691   1.142
 3120TIP3   OH2 9304   7.144   2.534   2.559
 3120TIP3    H1 9305   7.157   2.521   2.653
 3120TIP3    H2 9306   7.073   2.474   2.537
 3121TIP3   OH2 9307   7.869   2.648   2.581
 3121TIP3    H1 9308   7.804   2.606   2.524
 3121TIP3    H2 9309   7.953   2.620   2.546
 3122TIP3   OH2 9310   7.364   2.926   1.574
 3122TIP3    H1 9311   7.366   3.004   1.517
 3122TIP3    H2 9312   7.271   2.906   1.584
 3123TIP3   OH2 9313   6.909   2.236   1.275
 3123TIP3    H1 9314   6.964   2.312   1.294
 3123TIP3    H2 9315   6.826   2.254   1.321
 3124TIP3   OH2 9316   7.509   2.690   1.536
 3124TIP3    H1 9317   7.472   2.778   1.538
 3124TIP3    H2 9318   7.458   2.640   1.599
 3125TIP3   OH2 9319   7.633   3.264   2.038
 3125TIP3    H1 9320   7.664   3.341   1.990
 3125TIP3    H2 9321   7.709   3.234   2.088
 3126TIP3   OH2 9322   7.282   3.165   1.425
 3126TIP3    H1 9323   7.197   3.172   1.469
 3126TIP3    H2 9324   7.317   3.254   1.426
 3127TIP3   OH2 9325   7.347   2.046   2.569
 3127TIP3    H1 9326   7.251   2.050   2.575
 3127TIP3    H2 9327   7.373   1.984   2.638
 3128TIP3   OH2 9328   7.072   3.128   2.197
 3128TIP3    H1 9329   7.126   3.058   2.235
 3128TIP3    H2 9330   7.092   3.205   2.250
 3129TIP3   OH2 9331   7.356   2.772   0.885
 3129TIP3    H1 9332   7.358   2.681   0.858
 3129TIP3    H2 9333   7.339   2.769   0.980
 3130TIP3   OH2 9334   7.310   2.779   1.156
 3130TIP3    H1 9335   7.391   2.748   1.197
 3130TIP3    H2 9336   7.313   2.874   1.167
 3131TIP3   OH2 9337   7.037   2.471   1.356
 3131TIP3    H1 9338   6.973   2.514   1.413
 3131TIP3    H2 9339   7.054   2.536   1.287
 3132TIP3   OH2 9340   7.570   2.990   1.110
 3132TIP3    H1 9341   7.481   3.009   1.140
 3132TIP3    H2 9342   7.597   3.068   1.062
 3133TIP3   OH2 9343   7.311   3.054   1.171
 3133TIP3    H1 9344   7.280   3.121   1.110
 3133TIP3    H2 9345   7.298   3.094   1.258
 3134TIP3   OH2 9346   7.433   1.777   1.406
 3134TIP3    H1 9347   7.406   1.853   1.458
 3134TIP3    H2 9348   7.512   1.806   1.361
 3135TIP3   OH2 9349   7.040   2.676   1.160
 3135TIP3    H1 9350   7.105   2.744   1.176
 3135TIP3    H2 9351   7.079   2.620   1.093
 3136TIP3   OH2 9352   6.975   1.969   1.299
 3136TIP3    H1 9353   6.964   2.065   1.298
 3136TIP3    H2 9354   6.895   1.936   1.258
 3137TIP3   OH2 9355   7.360   1.679   2.168
 3137TIP3    H1 9356   7.340   1.645   2.080
 3137TIP3    H2 9357   7.352   1.603   2.225
 3138TIP3   OH2 9358   6.898   2.894   1.546
 3138TIP3    H1 9359   6.838   2.923   1.614
 3138TIP3    H2 9360   6.866   2.936   1.466
 3139TIP3   OH2 9361   7.065   3.443   2.621
 3139TIP3    H1 9362   7.148   3.447   2.668
 3139TIP3    H2 9363   7.042   3.350   2.621
 3140TIP3   OH2 9364   7.538   3.396   2.668
 3140TIP3    H1 9365   7.633   3.387   2.674
 3140TIP3    H2 9366   7.513   3.337   2.597
 3141TIP3   OH2 9367   7.515   2.974   0.792
 3141TIP3    H1 9368   7.454   2.907   0.823
 3141TIP3    H2 9369   7.601   2.939   0.815
 3142TIP3   OH2 9370   7.190   2.844   2.820
 3142TIP3    H1 9371   7.207   2.750   2.826
 3142TIP3    H2 9372   7.105   2.850   2.776
 3143TIP3   OH2 9373   7.178   2.490   1.017
 3143TIP3    H1 9374   7.231   2.466   1.093
 3143TIP3    H2 9375   7.240   2.496   0.945
 3144TIP3   OH2 9376   7.812   2.932   2.590
 3144TIP3    H1 9377   7.761   2.955   2.512
 3144TIP3    H2 9378   7.824   2.837   2.584
 3145TIP3   OH2 9379   7.663   2.670   0.811
 3145TIP3    H1 9380   7.686   2.710   0.895
 3145TIP3    H2 9381   7.587   2.616   0.830
 3146TIP3   OH2 9382   7.312   2.584   2.808
 3146TIP3    H1 9383   7.384   2.527   2.781
 3146TIP3    H2 9384   7.339   2.617   2.894
 3147TIP3   OH2 9385   7.370   2.396   1.233
 3147TIP3    H1 9386   7.345   2.360   1.318
 3147TIP3    H2 9387   7.414   2.324   1.189
 3148TIP3   OH2 9388   7.615   2.448   2.489
 3148TIP3    H1 9389   7.543   2.511   2.492
 3148TIP3    H2 9390   7.672   2.482   2.420
 3149TIP3   OH2 9391   7.482   2.185   1.073
 3149TIP3    H1 9392   7.448   2.204   0.986
 3149TIP3    H2 9393   7.573   2.159   1.057
 3150TIP3   OH2 9394   7.785   2.255   2.583
 3150TIP3    H1 9395   7.777   2.171   2.539
 3150TIP3    H2 9396   7.719   2.311   2.541
 3151TIP3   OH2 9397   7.782   2.029   2.414
 3151TIP3    H1 9398   7.788   2.081   2.334
 3151TIP3    H2 9399   7.696   1.987   2.409
 3152TIP3   OH2 9400   7.771   2.571   2.310
 3152TIP3    H1 9401   7.840   2.563   2.244
 3152TIP3    H2 9402   7.711   2.636   2.274
 3153TIP3   OH2 9403   7.659   2.354   2.824
 3153TIP3    H1 9404   7.587   2.292   2.838
 3153TIP3    H2 9405   7.684   2.342   2.732
 3154TIP3   OH2 9406   7.489   2.140   2.875
 3154TIP3    H1 9407   7.484   2.051   2.841
 3154TIP3    H2 9408   7.519   2.130   2.965
 3155TIP3   OH2 9409   7.277   3.256   0.981
 3155TIP3    H1 9410   7.372   3.249   0.974
 3155TIP3    H2 9411   7.251   3.309   0.905
 3156TIP3   OH2 9412   6.768   2.643   1.194
 3156TIP3    H1 9413   6.861   2.664   1.183
 3156TIP3    H2 9414   6.759   2.555   1.157
 3157TIP3   OH2 9415   6.682   3.246   1.615
 3157TIP3    H1 9416   6.616   3.188   1.575
 3157TIP3    H2 9417   6.726   3.190   1.679
 3158TIP3   OH2 9418   6.817   3.094   1.803
 3158TIP3    H1 9419   6.801   3.025   1.867
 3158TIP3    H2 9420   6.868   3.159   1.850
 3159TIP3   OH2 9421   7.002   2.503   2.173
 3159TIP3    H1 9422   6.995   2.472   2.083
 3159TIP3    H2 9423   7.097   2.506   2.190
 3160TIP3   OH2 9424   7.222   2.192   2.851
 3160TIP3    H1 9425   7.317   2.188   2.849
 3160TIP3    H2 9426   7.195   2.107   2.886
 3161TIP3   OH2 9427   7.180   1.887   2.178
 3161TIP3    H1 9428   7.237   1.810   2.183
 3161TIP3    H2 9429   7.240   1.961   2.174
 3162TIP3   OH2 9430   6.982   2.159   2.247
 3162TIP3    H1 9431   7.030   2.153   2.164
 3162TIP3    H2 9432   7.007   2.244   2.284
 3163TIP3   OH2 9433   6.965   1.662   1.746
 3163TIP3    H1 9434   6.875   1.656   1.777
 3163TIP3    H2 9435   6.962   1.722   1.671
 3164TIP3   OH2 9436   7.189   1.750   2.567
 3164TIP3    H1 9437   7.138   1.739   2.648
 3164TIP3    H2 9438   7.126   1.783   2.503
 3165TIP3   OH2 9439   7.227   3.167   2.640
 3165TIP3    H1 9440   7.134   3.147   2.623
 3165TIP3    H2 9441   7.236   3.158   2.735
 3166TIP3   OH2 9442   7.409   3.207   2.186
 3166TIP3    H1 9443   7.356   3.278   2.151
 3166TIP3    H2 9444   7.494   3.217   2.143
 3167TIP3   OH2 9445   7.842   3.434   2.324
 3167TIP3    H1 9446   7.884   3.440   2.409
 3167TIP3    H2 9447   7.891   3.495   2.269
 3168TIP3   OH2 9448   7.988   3.610   2.148
 3168TIP3    H1 9449   8.028   3.591   2.063
 3168TIP3    H2 9450   8.019   3.698   2.169
 3169TIP3   OH2 9451   7.079   3.461   2.218
 3169TIP3    H1 9452   6.991   3.488   2.192
 3169TIP3    H2 9453   7.097   3.510   2.297
 3170TIP3   OH2 9454   7.313   3.436   2.071
 3170TIP3    H1 9455   7.229   3.448   2.116
 3170TIP3    H2 9456   7.298   3.469   1.982
 3171TIP3   OH2 9457   7.712   3.475   1.875
 3171TIP3    H1 9458   7.641   3.487   1.811
 3171TIP3    H2 9459   7.729   3.563   1.908
 3172TIP3   OH2 9460   7.963   3.372   1.842
 3172TIP3    H1 9461   7.874   3.405   1.855
 3172TIP3    H2 9462   8.019   3.445   1.866
 3173TIP3   OH2 9463   6.995   3.252   1.957
 3173TIP3    H1 9464   7.016   3.227   2.047
 3173TIP3    H2 9465   7.063   3.212   1.903
 3174TIP3   OH2 9466   7.189   3.126   1.817
 3174TIP3    H1 9467   7.200   3.045   1.866
 3174TIP3    H2 9468   7.277   3.164   1.813
 3175TIP3   OH2 9469   7.454   3.220   1.823
 3175TIP3    H1 9470   7.480   3.129   1.808
 3175TIP3    H2 9471   7.500   3.246   1.903
 3176TIP3   OH2 9472   7.273   1.588   1.915
 3176TIP3    H1 9473   7.184   1.555   1.923
 3176TIP3    H2 9474   7.328   1.509   1.914
 3177TIP3   OH2 9475   7.067   1.457   1.579
 3177TIP3    H1 9476   7.084   1.512   1.502
 3177TIP3    H2 9477   7.036   1.519   1.645
 3178TIP3   OH2 9478   6.779   3.030   1.345
 3178TIP3    H1 9479   6.696   2.994   1.314
 3178TIP3    H2 9480   6.774   3.124   1.326
 3179TIP3   OH2 9481   7.182   1.612   1.340
 3179TIP3    H1 9482   7.230   1.538   1.303
 3179TIP3    H2 9483   7.249   1.673   1.369
 3180TIP3   OH2 9484   7.544   3.209   0.936
 3180TIP3    H1 9485   7.635   3.223   0.910
 3180TIP3    H2 9486   7.512   3.141   0.878
 3181TIP3   OH2 9487   7.479   1.867   2.812
 3181TIP3    H1 9488   7.440   1.797   2.863
 3181TIP3    H2 9489   7.571   1.868   2.839
 3182TIP3   OH2 9490   7.723   1.864   2.942
 3182TIP3    H1 9491   7.797   1.827   2.894
 3182TIP3    H2 9492   7.705   1.800   3.011
 3183TIP3   OH2 9493   6.856   3.045   0.985
 3183TIP3    H1 9494   6.858   3.069   1.078
 3183TIP3    H2 9495   6.942   3.006   0.968
 3184TIP3   OH2 9496   0.417   3.379   3.179
 3184TIP3    H1 9497   0.391   3.470   3.162
 3184TIP3    H2 9498   0.346   3.326   3.143
 3185TIP3   OH2 9499   0.411   3.379   3.569
 3185TIP3    H1 9500   0.452   3.362   3.654
 3185TIP3    H2 9501   0.375   3.294   3.542
 3186TIP3   OH2 9502   8.321   3.291   3.876
 3186TIP3    H1 9503   8.279   3.210   3.904
 3186TIP3    H2 9504   8.281   3.359   3.930
 3187TIP3   OH2 9505   0.664   3.684   3.248
 3187TIP3    H1 9506   0.657   3.616   3.315
 3187TIP3    H2 9507   0.698   3.760   3.295
 3188TIP3   OH2 9508   8.198   3.647   3.591
 3188TIP3    H1 9509   8.137   3.628   3.662
 3188TIP3    H2 9510   8.277   3.679   3.635
 3189TIP3   OH2 9511   7.971   3.186   3.584
 3189TIP3    H1 9512   8.006   3.124   3.647
 3189TIP3    H2 9513   8.042   3.202   3.522
 3190TIP3   OH2 9514   0.315   4.140   3.265
 3190TIP3    H1 9515   0.352   4.076   3.203
 3190TIP3    H2 9516   0.322   4.097   3.350
 3191TIP3   OH2 9517   0.229   3.593   3.612
 3191TIP3    H1 9518   0.272   3.517   3.572
 3191TIP3    H2 9519   0.300   3.652   3.635
 3192TIP3   OH2 9520   1.233   2.927   3.605
 3192TIP3    H1 9521   1.262   3.007   3.650
 3192TIP3    H2 9522   1.260   2.939   3.514
 3193TIP3   OH2 9523   0.634   3.107   3.639
 3193TIP3    H1 9524   0.680   3.026   3.661
 3193TIP3    H2 9525   0.601   3.092   3.550
 3194TIP3   OH2 9526   8.471   2.773   3.597
 3194TIP3    H1 9527   8.454   2.847   3.540
 3194TIP3    H2 9528   8.427   2.699   3.555
 3195TIP3   OH2 9529   0.664   2.841   3.221
 3195TIP3    H1 9530   0.729   2.834   3.291
 3195TIP3    H2 9531   0.710   2.883   3.149
 3196TIP3   OH2 9532   8.116   2.977   3.710
 3196TIP3    H1 9533   8.188   2.951   3.767
 3196TIP3    H2 9534   8.127   2.926   3.631
 3197TIP3   OH2 9535   1.304   3.132   3.784
 3197TIP3    H1 9536   1.224   3.180   3.762
 3197TIP3    H2 9537   1.337   3.174   3.863
 3198TIP3   OH2 9538   8.464   2.751   4.045
 3198TIP3    H1 9539   8.406   2.789   3.978
 3198TIP3    H2 9540   8.416   2.762   4.127
 3199TIP3   OH2 9541   0.292   3.595   3.054
 3199TIP3    H1 9542   0.277   3.593   2.960
 3199TIP3    H2 9543   0.258   3.680   3.082
 3200TIP3   OH2 9544   0.018   3.523   3.785
 3200TIP3    H1 9545  -0.008   3.587   3.851
 3200TIP3    H2 9546   0.090   3.564   3.738
 3201TIP3   OH2 9547   0.863   2.868   3.404
 3201TIP3    H1 9548   0.865   2.818   3.485
 3201TIP3    H2 9549   0.919   2.944   3.421
 3202TIP3   OH2 9550   8.349   2.868   3.821
 3202TIP3    H1 9551   8.408   2.939   3.848
 3202TIP3    H2 9552   8.393   2.827   3.747
 3203TIP3   OH2 9553   8.385   3.702   3.956
 3203TIP3    H1 9554   8.343   3.771   3.905
 3203TIP3    H2 9555   8.316   3.669   4.014
 3204TIP3   OH2 9556   0.728   3.932   3.409
 3204TIP3    H1 9557   0.639   3.921   3.444
 3204TIP3    H2 9558   0.724   4.014   3.360
 3205TIP3   OH2 9559   1.028   2.825   3.771
 3205TIP3    H1 9560   0.942   2.855   3.740
 3205TIP3    H2 9561   1.089   2.858   3.705
 3206TIP3   OH2 9562   0.315   2.463   3.756
 3206TIP3    H1 9563   0.305   2.370   3.776
 3206TIP3    H2 9564   0.243   2.506   3.802
 3207TIP3   OH2 9565   0.430   3.970   3.077
 3207TIP3    H1 9566   0.474   3.887   3.060
 3207TIP3    H2 9567   0.490   4.037   3.043
 3208TIP3   OH2 9568   0.567   3.750   2.997
 3208TIP3    H1 9569   0.568   3.674   2.939
 3208TIP3    H2 9570   0.606   3.719   3.078
 3209TIP3   OH2 9571   0.956   3.836   3.753
 3209TIP3    H1 9572   0.948   3.761   3.694
 3209TIP3    H2 9573   0.941   3.912   3.696
 3210TIP3   OH2 9574   0.250   3.233   3.011
 3210TIP3    H1 9575   0.175   3.289   2.991
 3210TIP3    H2 9576   0.301   3.232   2.930
 3211TIP3   OH2 9577   0.223   3.018   2.732
 3211TIP3    H1 9578   0.285   3.075   2.778
 3211TIP3    H2 9579   0.277   2.958   2.682
 3212TIP3   OH2 9580   1.151   3.477   3.597
 3212TIP3    H1 9581   1.070   3.528   3.603
 3212TIP3    H2 9582   1.187   3.498   3.511
 3213TIP3   OH2 9583   0.598   3.313   2.984
 3213TIP3    H1 9584   0.545   3.338   3.060
 3213TIP3    H2 9585   0.683   3.290   3.020
 3214TIP3   OH2 9586   0.832   3.354   3.901
 3214TIP3    H1 9587   0.834   3.434   3.953
 3214TIP3    H2 9588   0.751   3.360   3.850
 3215TIP3   OH2 9589   8.366   3.279   3.411
 3215TIP3    H1 9590   8.291   3.264   3.353
 3215TIP3    H2 9591   8.420   3.200   3.400
 3216TIP3   OH2 9592   8.481   3.730   3.545
 3216TIP3    H1 9593   8.449   3.701   3.460
 3216TIP3    H2 9594   8.567   3.689   3.554
 3217TIP3   OH2 9595   0.486   3.923   3.531
 3217TIP3    H1 9596   0.479   4.004   3.582
 3217TIP3    H2 9597   0.474   3.853   3.595
 3218TIP3   OH2 9598   0.099   3.846   4.077
 3218TIP3    H1 9599   0.044   3.905   4.129
 3218TIP3    H2 9600   0.036   3.786   4.037
 3219TIP3   OH2 9601   0.436   3.180   2.808
 3219TIP3    H1 9602   0.495   3.236   2.859
 3219TIP3    H2 9603   0.460   3.197   2.717
 3220TIP3   OH2 9604   8.346   3.403   4.174
 3220TIP3    H1 9605   8.361   3.481   4.228
 3220TIP3    H2 9606   8.251   3.389   4.180
 3221TIP3   OH2 9607   0.181   3.857   3.086
 3221TIP3    H1 9608   0.267   3.899   3.091
 3221TIP3    H2 9609   0.125   3.920   3.041
 3222TIP3   OH2 9610   8.380   4.018   4.163
 3222TIP3    H1 9611   8.366   4.022   4.068
 3222TIP3    H2 9612   8.304   3.971   4.197
 3223TIP3   OH2 9613   0.957   2.418   2.858
 3223TIP3    H1 9614   0.875   2.438   2.903
 3223TIP3    H2 9615   0.974   2.495   2.803
 3224TIP3   OH2 9616   8.198   3.159   3.221
 3224TIP3    H1 9617   8.141   3.199   3.155
 3224TIP3    H2 9618   8.171   3.068   3.225
 3225TIP3   OH2 9619   0.759   3.780   2.407
 3225TIP3    H1 9620   0.768   3.874   2.389
 3225TIP3    H2 9621   0.848   3.745   2.398
 3226TIP3   OH2 9622   1.194   4.184   3.805
 3226TIP3    H1 9623   1.196   4.089   3.816
 3226TIP3    H2 9624   1.113   4.212   3.848
 3227TIP3   OH2 9625   0.299   3.971   3.933
 3227TIP3    H1 9626   0.300   4.061   3.964
 3227TIP3    H2 9627   0.232   3.928   3.985
 3228TIP3   OH2 9628   0.062   4.094   2.891
 3228TIP3    H1 9629   0.023   4.083   2.804
 3228TIP3    H2 9630   0.038   4.182   2.918
 3229TIP3   OH2 9631   0.266   3.997   2.525
 3229TIP3    H1 9632   0.322   3.929   2.488
 3229TIP3    H2 9633   0.301   4.012   2.612
 3230TIP3   OH2 9634   0.313   4.044   2.797
 3230TIP3    H1 9635   0.228   4.054   2.841
 3230TIP3    H2 9636   0.373   4.015   2.866
 3231TIP3   OH2 9637   1.083   3.309   4.077
 3231TIP3    H1 9638   1.005   3.321   4.023
 3231TIP3    H2 9639   1.103   3.216   4.071
 3232TIP3   OH2 9640   0.079   2.546   3.887
 3232TIP3    H1 9641  -0.005   2.511   3.857
 3232TIP3    H2 9642   0.057   2.624   3.937
 3233TIP3   OH2 9643   0.619   2.659   4.081
 3233TIP3    H1 9644   0.688   2.631   4.141
 3233TIP3    H2 9645   0.538   2.640   4.128
 3234TIP3   OH2 9646   0.847   3.087   3.994
 3234TIP3    H1 9647   0.803   3.086   4.079
 3234TIP3    H2 9648   0.831   3.175   3.960
 3235TIP3   OH2 9649   0.509   3.221   2.552
 3235TIP3    H1 9650   0.478   3.196   2.465
 3235TIP3    H2 9651   0.596   3.258   2.536
 3236TIP3   OH2 9652   0.259   2.569   2.886
 3236TIP3    H1 9653   0.193   2.594   2.950
 3236TIP3    H2 9654   0.210   2.536   2.811
 3237TIP3   OH2 9655   8.506   3.076   3.910
 3237TIP3    H1 9656   8.476   3.058   3.999
 3237TIP3    H2 9657   8.468   3.162   3.889
 3238TIP3   OH2 9658   8.383   2.953   3.416
 3238TIP3    H1 9659   8.293   2.925   3.432
 3238TIP3    H2 9660   8.407   2.912   3.334
 3239TIP3   OH2 9661   0.388   3.029   3.141
 3239TIP3    H1 9662   0.339   3.102   3.102
 3239TIP3    H2 9663   0.447   3.000   3.071
 3240TIP3   OH2 9664   0.564   3.308   4.232
 3240TIP3    H1 9665   0.542   3.236   4.292
 3240TIP3    H2 9666   0.656   3.325   4.249
 3241TIP3   OH2 9667   0.547   3.054   3.378
 3241TIP3    H1 9668   0.486   3.090   3.313
 3241TIP3    H2 9669   0.581   2.974   3.337
 3242TIP3   OH2 9670   8.352   3.066   4.128
 3242TIP3    H1 9671   8.335   3.142   4.182
 3242TIP3    H2 9672   8.331   2.991   4.184
 3243TIP3   OH2 9673   7.948   2.646   3.691
 3243TIP3    H1 9674   8.024   2.652   3.748
 3243TIP3    H2 9675   7.966   2.570   3.635
 3244TIP3   OH2 9676   0.546   3.302   3.803
 3244TIP3    H1 9677   0.583   3.239   3.741
 3244TIP3    H2 9678   0.524   3.250   3.881
 3245TIP3   OH2 9679   0.229   2.768   3.476
 3245TIP3    H1 9680   0.149   2.770   3.529
 3245TIP3    H2 9681   0.300   2.759   3.539
 3246TIP3   OH2 9682   8.153   2.814   3.483
 3246TIP3    H1 9683   8.062   2.790   3.466
 3246TIP3    H2 9684   8.202   2.733   3.469
 3247TIP3   OH2 9685   8.435   2.822   3.184
 3247TIP3    H1 9686   8.528   2.838   3.166
 3247TIP3    H2 9687   8.390   2.851   3.105
 3248TIP3   OH2 9688   0.719   2.847   3.686
 3248TIP3    H1 9689   0.685   2.861   3.775
 3248TIP3    H2 9690   0.657   2.787   3.645
 3249TIP3   OH2 9691   8.280   2.881   2.971
 3249TIP3    H1 9692   8.201   2.830   2.957
 3249TIP3    H2 9693   8.315   2.896   2.883
 3250TIP3   OH2 9694   0.892   4.536   3.899
 3250TIP3    H1 9695   0.886   4.558   3.806
 3250TIP3    H2 9696   0.970   4.581   3.930
 3251TIP3   OH2 9697   8.356   3.636   4.336
 3251TIP3    H1 9698   8.425   3.670   4.392
 3251TIP3    H2 9699   8.275   3.673   4.371
 3252TIP3   OH2 9700   0.326   3.108   3.587
 3252TIP3    H1 9701   0.384   3.061   3.527
 3252TIP3    H2 9702   0.323   3.053   3.666
 3253TIP3   OH2 9703   8.321   2.588   3.453
 3253TIP3    H1 9704   8.299   2.508   3.500
 3253TIP3    H2 9705   8.355   2.559   3.369
 3254TIP3   OH2 9706   0.281   2.996   3.871
 3254TIP3    H1 9707   0.197   3.041   3.877
 3254TIP3    H2 9708   0.343   3.055   3.914
 3255TIP3   OH2 9709   8.518   3.385   2.959
 3255TIP3    H1 9710   8.449   3.320   2.947
 3255TIP3    H2 9711   8.503   3.419   3.048
 3256TIP3   OH2 9712   0.919   3.622   3.584
 3256TIP3    H1 9713   0.947   3.672   3.507
 3256TIP3    H2 9714   0.837   3.580   3.557
 3257TIP3   OH2 9715   0.503   2.698   2.833
 3257TIP3    H1 9716   0.409   2.705   2.813
 3257TIP3    H2 9717   0.533   2.789   2.840
 3258TIP3   OH2 9718   0.399   3.693   3.967
 3258TIP3    H1 9719   0.460   3.685   4.041
 3258TIP3    H2 9720   0.383   3.787   3.960
 3259TIP3   OH2 9721   0.556   2.952   2.926
 3259TIP3    H1 9722   0.650   2.959   2.944
 3259TIP3    H2 9723   0.537   3.030   2.873
 3260TIP3   OH2 9724   0.162   3.535   2.778
 3260TIP3    H1 9725   0.118   3.620   2.782
 3260TIP3    H2 9726   0.116   3.481   2.842
 3261TIP3   OH2 9727   0.321   3.440   4.270
 3261TIP3    H1 9728   0.258   3.376   4.238
 3261TIP3    H2 9729   0.406   3.407   4.241
 3262TIP3   OH2 9730   0.574   3.954   3.866
 3262TIP3    H1 9731   0.479   3.965   3.870
 3262TIP3    H2 9732   0.607   4.012   3.935
 3263TIP3   OH2 9733   0.981   3.042   2.759
 3263TIP3    H1 9734   0.921   2.995   2.701
 3263TIP3    H2 9735   0.986   3.130   2.723
 3264TIP3   OH2 9736   1.206   3.893   3.840
 3264TIP3    H1 9737   1.110   3.888   3.834
 3264TIP3    H2 9738   1.236   3.865   3.753
 3265TIP3   OH2 9739   0.681   3.853   2.665
 3265TIP3    H1 9740   0.675   3.778   2.724
 3265TIP3    H2 9741   0.707   3.815   2.581
 3266TIP3   OH2 9742   0.684   3.483   3.503
 3266TIP3    H1 9743   0.591   3.461   3.514
 3266TIP3    H2 9744   0.722   3.406   3.460
 3267TIP3   OH2 9745   8.325   3.717   3.266
 3267TIP3    H1 9746   8.319   3.792   3.206
 3267TIP3    H2 9747   8.237   3.707   3.301
 3268TIP3   OH2 9748   7.535   1.405   1.345
 3268TIP3    H1 9749   7.594   1.476   1.370
 3268TIP3    H2 9750   7.458   1.417   1.401
 3269TIP3   OH2 9751   8.441   3.470   3.204
 3269TIP3    H1 9752   8.415   3.560   3.224
 3269TIP3    H2 9753   8.426   3.422   3.285
 3270TIP3   OH2 9754   0.095   4.058   3.730
 3270TIP3    H1 9755   0.133   4.128   3.676
 3270TIP3    H2 9756   0.170   4.019   3.775
 3271TIP3   OH2 9757   8.233   3.956   3.119
 3271TIP3    H1 9758   8.151   3.980   3.161
 3271TIP3    H2 9759   8.282   4.038   3.114
 3272TIP3   OH2 9760   0.469   3.690   3.695
 3272TIP3    H1 9761   0.460   3.682   3.789
 3272TIP3    H2 9762   0.551   3.645   3.674
 3273TIP3   OH2 9763   0.449   3.579   2.583
 3273TIP3    H1 9764   0.508   3.559   2.656
 3273TIP3    H2 9765   0.362   3.558   2.616
 3274TIP3   OH2 9766   0.716   4.223   3.735
 3274TIP3    H1 9767   0.636   4.171   3.724
 3274TIP3    H2 9768   0.711   4.289   3.666
 3275TIP3   OH2 9769   0.788   4.061   2.393
 3275TIP3    H1 9770   0.836   4.134   2.354
 3275TIP3    H2 9771   0.705   4.099   2.421
 3276TIP3   OH2 9772   8.311   2.818   4.276
 3276TIP3    H1 9773   8.219   2.800   4.294
 3276TIP3    H2 9774   8.359   2.769   4.342
 3277TIP3   OH2 9775   0.613   3.522   2.800
 3277TIP3    H1 9776   0.601   3.451   2.863
 3277TIP3    H2 9777   0.706   3.517   2.777
 3278TIP3   OH2 9778   8.314   3.560   2.572
 3278TIP3    H1 9779   8.329   3.469   2.549
 3278TIP3    H2 9780   8.289   3.558   2.665
 3279TIP3   OH2 9781   8.262   3.573   2.846
 3279TIP3    H1 9782   8.341   3.543   2.892
 3279TIP3    H2 9783   8.265   3.668   2.852
 3280TIP3   OH2 9784   8.007   3.260   3.057
 3280TIP3    H1 9785   7.956   3.313   3.118
 3280TIP3    H2 9786   8.023   3.317   2.983
 3281TIP3   OH2 9787   0.640   2.899   3.945
 3281TIP3    H1 9788   0.722   2.939   3.973
 3281TIP3    H2 9789   0.632   2.820   3.997
 3282TIP3   OH2 9790   0.520   2.630   3.090
 3282TIP3    H1 9791   0.526   2.669   3.002
 3282TIP3    H2 9792   0.559   2.695   3.148
 3283TIP3   OH2 9793   0.021   3.767   2.791
 3283TIP3    H1 9794  -0.063   3.792   2.829
 3283TIP3    H2 9795   0.047   3.843   2.739
 3284TIP3   OH2 9796   0.215   2.828   3.205
 3284TIP3    H1 9797   0.275   2.899   3.185
 3284TIP3    H2 9798   0.218   2.819   3.301
 3285TIP3   OH2 9799   0.481   3.144   4.015
 3285TIP3    H1 9800   0.510   3.193   4.092
 3285TIP3    H2 9801   0.533   3.064   4.017
 3286TIP3   OH2 9802   0.363   2.552   3.325
 3286TIP3    H1 9803   0.364   2.622   3.390
 3286TIP3    H2 9804   0.418   2.586   3.254
 3287TIP3   OH2 9805   8.265   3.844   2.864
 3287TIP3    H1 9806   8.243   3.910   2.799
 3287TIP3    H2 9807   8.251   3.887   2.949
 3288TIP3   OH2 9808   8.380   2.552   3.139
 3288TIP3    H1 9809   8.376   2.648   3.144
 3288TIP3    H2 9810   8.473   2.533   3.126
 3289TIP3   OH2 9811   1.115   3.045   4.000
 3289TIP3    H1 9812   1.020   3.040   4.001
 3289TIP3    H2 9813   1.140   3.018   3.912
 3290TIP3   OH2 9814   0.772   3.240   3.386
 3290TIP3    H1 9815   0.699   3.180   3.396
 3290TIP3    H2 9816   0.845   3.198   3.431
 3291TIP3   OH2 9817   7.994   3.473   2.884
 3291TIP3    H1 9818   8.068   3.533   2.881
 3291TIP3    H2 9819   8.009   3.412   2.812
 3292TIP3   OH2 9820   0.739   4.204   3.320
 3292TIP3    H1 9821   0.701   4.248   3.245
 3292TIP3    H2 9822   0.834   4.217   3.310
 3293TIP3   OH2 9823   8.318   2.457   3.853
 3293TIP3    H1 9824   8.286   2.420   3.771
 3293TIP3    H2 9825   8.312   2.385   3.916
 3294TIP3   OH2 9826   0.004   4.165   4.384
 3294TIP3    H1 9827   0.090   4.192   4.351
 3294TIP3    H2 9828  -0.038   4.122   4.310
 3295TIP3   OH2 9829   8.475   3.762   2.478
 3295TIP3    H1 9830   8.419   3.694   2.517
 3295TIP3    H2 9831   8.554   3.716   2.452
 3296TIP3   OH2 9832   0.629   4.099   4.095
 3296TIP3    H1 9833   0.626   4.029   4.160
 3296TIP3    H2 9834   0.708   4.149   4.118
 3297TIP3   OH2 9835   0.409   3.800   2.399
 3297TIP3    H1 9836   0.459   3.745   2.459
 3297TIP3    H2 9837   0.460   3.801   2.319
 3298TIP3   OH2 9838   8.125   3.291   2.729
 3298TIP3    H1 9839   8.187   3.259   2.794
 3298TIP3    H2 9840   8.176   3.295   2.647
 3299TIP3   OH2 9841   0.243   3.717   4.287
 3299TIP3    H1 9842   0.213   3.738   4.199
 3299TIP3    H2 9843   0.280   3.629   4.280
 3300TIP3   OH2 9844   0.128   3.476   2.513
 3300TIP3    H1 9845   0.135   3.498   2.606
 3300TIP3    H2 9846   0.134   3.380   2.511
 3301TIP3   OH2 9847   0.740   3.735   3.891
 3301TIP3    H1 9848   0.820   3.766   3.848
 3301TIP3    H2 9849   0.677   3.806   3.876
 3302TIP3   OH2 9850   8.267   3.366   4.501
 3302TIP3    H1 9851   8.329   3.306   4.459
 3302TIP3    H2 9852   8.314   3.400   4.577
 3303TIP3   OH2 9853   8.329   3.181   2.920
 3303TIP3    H1 9854   8.309   3.137   3.003
 3303TIP3    H2 9855   8.368   3.113   2.866
 3304TIP3   OH2 9856   0.109   3.265   4.155
 3304TIP3    H1 9857   0.025   3.311   4.156
 3304TIP3    H2 9858   0.150   3.292   4.073
 3305TIP3   OH2 9859   8.444   2.977   2.750
 3305TIP3    H1 9860   8.441   2.946   2.660
 3305TIP3    H2 9861   8.537   2.991   2.767
 3306TIP3   OH2 9862   0.618   3.652   4.288
 3306TIP3    H1 9863   0.697   3.627   4.239
 3306TIP3    H2 9864   0.612   3.588   4.359
 3307TIP3   OH2 9865   0.739   3.310   2.436
 3307TIP3    H1 9866   0.736   3.259   2.355
 3307TIP3    H2 9867   0.715   3.398   2.410
 3308TIP3   OH2 9868   0.223   3.045   4.279
 3308TIP3    H1 9869   0.224   2.965   4.228
 3308TIP3    H2 9870   0.181   3.109   4.223
 3309TIP3   OH2 9871   0.224   2.828   4.091
 3309TIP3    H1 9872   0.254   2.869   4.010
 3309TIP3    H2 9873   0.133   2.803   4.073
 3310TIP3   OH2 9874   0.241   3.360   3.937
 3310TIP3    H1 9875   0.333   3.337   3.919
 3310TIP3    H2 9876   0.235   3.452   3.914
 3311TIP3   OH2 9877   0.833   3.327   4.340
 3311TIP3    H1 9878   0.877   3.243   4.351
 3311TIP3    H2 9879   0.900   3.385   4.304
 3312TIP3   OH2 9880   0.871   3.586   4.074
 3312TIP3    H1 9881   0.814   3.639   4.018
 3312TIP3    H2 9882   0.959   3.603   4.040
 3313TIP3   OH2 9883   0.100   3.163   4.509
 3313TIP3    H1 9884   0.044   3.087   4.525
 3313TIP3    H2 9885   0.138   3.146   4.422
 3314TIP3   OH2 9886   0.355   2.589   4.157
 3314TIP3    H1 9887   0.308   2.670   4.137
 3314TIP3    H2 9888   0.289   2.520   4.148
 3315TIP3   OH2 9889   0.480   3.092   4.376
 3315TIP3    H1 9890   0.471   3.077   4.470
 3315TIP3    H2 9891   0.395   3.069   4.339
 3316TIP3   OH2 9892   0.720   3.046   4.230
 3316TIP3    H1 9893   0.647   3.045   4.291
 3316TIP3    H2 9894   0.795   3.016   4.281
 3317TIP3   OH2 9895   0.943   2.983   4.380
 3317TIP3    H1 9896   0.961   2.889   4.393
 3317TIP3    H2 9897   0.945   3.020   4.468
 3318TIP3   OH2 9898   8.471   2.931   4.565
 3318TIP3    H1 9899   8.454   2.844   4.530
 3318TIP3    H2 9900   8.496   2.915   4.656
 3319TIP3   OH2 9901   0.450   2.598   4.414
 3319TIP3    H1 9902   0.516   2.528   4.411
 3319TIP3    H2 9903   0.409   2.595   4.328
 3320TIP3   OH2 9904   0.516   2.813   4.573
 3320TIP3    H1 9905   0.497   2.742   4.511
 3320TIP3    H2 9906   0.440   2.871   4.568
 3321TIP3   OH2 9907   8.241   4.029   2.664
 3321TIP3    H1 9908   8.335   4.030   2.651
 3321TIP3    H2 9909   8.207   4.092   2.600
 3322TIP3   OH2 9910   0.997   4.283   3.295
 3322TIP3    H1 9911   1.026   4.325   3.376
 3322TIP3    H2 9912   1.046   4.327   3.226
 3323TIP3   OH2 9913   1.021   4.307   3.581
 3323TIP3    H1 9914   0.980   4.222   3.567
 3323TIP3    H2 9915   1.102   4.288   3.629
 3324TIP3   OH2 9916   1.069   3.987   4.147
 3324TIP3    H1 9917   0.999   3.995   4.212
 3324TIP3    H2 9918   1.114   4.071   4.149
 3325TIP3   OH2 9919   0.886   3.501   2.766
 3325TIP3    H1 9920   0.949   3.564   2.730
 3325TIP3    H2 9921   0.932   3.462   2.841
 3326TIP3   OH2 9922   1.015   3.366   2.970
 3326TIP3    H1 9923   0.950   3.326   3.027
 3326TIP3    H2 9924   1.081   3.401   3.029
 3327TIP3   OH2 9925   1.070   3.757   3.397
 3327TIP3    H1 9926   1.122   3.690   3.353
 3327TIP3    H2 9927   1.072   3.832   3.337
 3328TIP3   OH2 9928   0.897   4.056   3.595
 3328TIP3    H1 9929   0.827   4.101   3.643
 3328TIP3    H2 9930   0.852   4.012   3.523
 3329TIP3   OH2 9931   0.947   3.276   2.614
 3329TIP3    H1 9932   0.880   3.272   2.546
 3329TIP3    H2 9933   0.924   3.352   2.667
 3330TIP3   OH2 9934   0.809   2.950   2.571
 3330TIP3    H1 9935   0.783   2.974   2.482
 3330TIP3    H2 9936   0.790   2.856   2.577
 3331TIP3   OH2 9937   0.824   3.224   3.115
 3331TIP3    H1 9938   0.839   3.130   3.105
 3331TIP3    H2 9939   0.813   3.236   3.210
 3332TIP3   OH2 9940   1.119   3.647   3.971
 3332TIP3    H1 9941   1.187   3.580   3.962
 3332TIP3    H2 9942   1.144   3.716   3.910
 3333TIP3   OH2 9943   1.298   3.445   3.985
 3333TIP3    H1 9944   1.225   3.398   4.024
 3333TIP3    H2 9945   1.373   3.387   3.998
 3334TIP3   OH2 9946   0.760   2.686   2.579
 3334TIP3    H1 9947   0.842   2.649   2.612
 3334TIP3    H2 9948   0.707   2.609   2.557
 3335TIP3   OH2 9949   0.827   2.939   3.004
 3335TIP3    H1 9950   0.865   2.854   3.022
 3335TIP3    H2 9951   0.881   2.975   2.933
 3336TIP3   OH2 9952   0.987   3.113   3.504
 3336TIP3    H1 9953   1.069   3.134   3.459
 3336TIP3    H2 9954   0.999   3.146   3.593
 3337TIP3   OH2 9955   1.057   3.258   3.735
 3337TIP3    H1 9956   0.980   3.291   3.782
 3337TIP3    H2 9957   1.091   3.335   3.688
 3338TIP3   OH2 9958   8.189   2.899   4.641
 3338TIP3    H1 9959   8.244   2.941   4.576
 3338TIP3    H2 9960   8.100   2.925   4.617
 3339TIP3   OH2 9961   1.504   2.846   4.290
 3339TIP3    H1 9962   1.567   2.785   4.251
 3339TIP3    H2 9963   1.477   2.902   4.217
 3340TIP3   OH2 9964   0.930   2.690   3.052
 3340TIP3    H1 9965   0.983   2.676   3.131
 3340TIP3    H2 9966   0.880   2.610   3.043
 3341TIP3   OH2 9967   8.153   2.673   3.870
 3341TIP3    H1 9968   8.210   2.596   3.876
 3341TIP3    H2 9969   8.214   2.746   3.856
 3342TIP3   OH2 9970   1.371   2.985   4.095
 3342TIP3    H1 9971   1.288   3.029   4.111
 3342TIP3    H2 9972   1.349   2.912   4.037
 3343TIP3   OH2 9973   1.016   2.620   2.681
 3343TIP3    H1 9974   1.052   2.552   2.624
 3343TIP3    H2 9975   1.079   2.692   2.675
 3344TIP3   OH2 9976   0.576   4.157   2.950
 3344TIP3    H1 9977   0.623   4.146   2.867
 3344TIP3    H2 9978   0.626   4.224   2.998
 3345TIP3   OH2 9979   8.133   2.544   4.271
 3345TIP3    H1 9980   8.097   2.532   4.359
 3345TIP3    H2 9981   8.065   2.590   4.223
 3346TIP3   OH2 9982   8.361   4.020   3.873
 3346TIP3    H1 9983   8.333   4.098   3.826
 3346TIP3    H2 9984   8.450   4.004   3.842
 3347TIP3   OH2 9985   0.304   4.235   4.016
 3347TIP3    H1 9986   0.343   4.235   4.103
 3347TIP3    H2 9987   0.365   4.286   3.962
 3348TIP3   OH2 9988   0.483   4.389   3.880
 3348TIP3    H1 9989   0.551   4.342   3.831
 3348TIP3    H2 9990   0.530   4.446   3.939
 3349TIP3   OH2 9991   1.267   2.754   3.974
 3349TIP3    H1 9992   1.178   2.763   3.938
 3349TIP3    H2 9993   1.288   2.661   3.962
 3350TIP3   OH2 9994   8.270   4.256   3.738
 3350TIP3    H1 9995   8.249   4.345   3.764
 3350TIP3    H2 9996   8.224   4.243   3.655
 3351TIP3   OH2 9997   0.195   4.254   3.564
 3351TIP3    H1 9998   0.152   4.273   3.481
 3351TIP3    H2 9999   0.212   4.340   3.603
 3352TIP3   OH210000   0.466   4.192   3.613
 3352TIP3    H110001   0.374   4.211   3.593
 3352TIP3    H210002   0.515   4.260   3.567
 3353TIP3   OH210003   0.664   4.381   3.520
 3353TIP3    H110004   0.653   4.467   3.479
 3353TIP3    H210005   0.694   4.325   3.448
 3354TIP3   OH210006   8.145   3.905   3.495
 3354TIP3    H110007   8.156   3.816   3.527
 3354TIP3    H210008   8.233   3.943   3.500
 3355TIP3   OH210009   8.416   4.012   3.517
 3355TIP3    H110010   8.446   3.926   3.488
 3355TIP3    H210011   8.468   4.031   3.595
 3356TIP3   OH210012   0.472   2.655   3.582
 3356TIP3    H110013   0.438   2.587   3.641
 3356TIP3    H210014   0.553   2.618   3.547
 3357TIP3   OH210015   0.999   2.550   3.500
 3357TIP3    H110016   1.038   2.595   3.425
 3357TIP3    H210017   0.906   2.567   3.493
 3358TIP3   OH210018   1.100   2.643   3.264
 3358TIP3    H110019   1.168   2.588   3.226
 3358TIP3    H210020   1.131   2.733   3.251
 3359TIP3   OH210021   8.214   2.360   3.600
 3359TIP3    H110022   8.134   2.310   3.618
 3359TIP3    H210023   8.284   2.295   3.597
 3360TIP3   OH210024   0.176   2.415   3.489
 3360TIP3    H110025   0.238   2.468   3.438
 3360TIP3    H210026   0.195   2.437   3.580
 3361TIP3   OH210027   0.710   2.545   3.474
 3361TIP3    H110028   0.735   2.504   3.391
 3361TIP3    H210029   0.701   2.472   3.535
 3362TIP3   OH210030   0.750   2.474   3.038
 3362TIP3    H110031   0.675   2.524   3.070
 3362TIP3    H210032   0.743   2.390   3.083
 3363TIP3   OH210033   0.154   2.573   3.144
 3363TIP3    H110034   0.195   2.531   3.221
 3363TIP3    H210035   0.168   2.666   3.158
 3364TIP3   OH210036   0.011   3.996   2.620
 3364TIP3    H110037   0.097   4.022   2.588
 3364TIP3    H210038  -0.016   3.924   2.563
 3365TIP3   OH210039   0.711   4.120   2.714
 3365TIP3    H110040   0.705   4.026   2.703
 3365TIP3    H210041   0.674   4.156   2.633
 3366TIP3   OH210042   8.438   2.659   4.496
 3366TIP3    H110043   8.397   2.589   4.546
 3366TIP3    H210044   8.529   2.660   4.526
 3367TIP3   OH210045   0.186   2.650   4.625
 3367TIP3    H110046   0.270   2.628   4.584
 3367TIP3    H210047   0.170   2.580   4.688
 3368TIP3   OH210048   1.018   2.714   4.408
 3368TIP3    H110049   1.033   2.686   4.498
 3368TIP3    H210050   1.105   2.710   4.367
 3369TIP3   OH210051   0.944   4.266   3.902
 3369TIP3    H110052   0.871   4.234   3.848
 3369TIP3    H210053   0.931   4.361   3.906
 3370TIP3   OH210054   2.216   3.640   2.662
 3370TIP3    H110055   2.188   3.730   2.643
 3370TIP3    H210056   2.143   3.586   2.631
 3371TIP3   OH210057   2.217   3.637   3.053
 3371TIP3    H110058   2.252   3.615   3.139
 3371TIP3    H210059   2.176   3.557   3.022
 3372TIP3   OH210060   1.514   3.531   3.419
 3372TIP3    H110061   1.543   3.462   3.479
 3372TIP3    H210062   1.593   3.582   3.402
 3373TIP3   OH210063   2.462   3.943   2.733
 3373TIP3    H110064   2.446   3.873   2.796
 3373TIP3    H210065   2.493   4.016   2.786
 3374TIP3   OH210066   1.491   3.941   3.137
 3374TIP3    H110067   1.479   3.846   3.137
 3374TIP3    H210068   1.585   3.953   3.129
 3375TIP3   OH210069   1.188   3.140   2.919
 3375TIP3    H110070   1.146   3.225   2.935
 3375TIP3    H210071   1.122   3.090   2.871
 3376TIP3   OH210072   1.251   3.430   3.099
 3376TIP3    H110073   1.300   3.355   3.131
 3376TIP3    H210074   1.308   3.469   3.033
 3377TIP3   OH210075   2.115   4.402   2.749
 3377TIP3    H110076   2.156   4.333   2.697
 3377TIP3    H210077   2.103   4.362   2.835
 3378TIP3   OH210078   2.017   3.864   3.096
 3378TIP3    H110079   2.053   3.786   3.054
 3378TIP3    H210080   2.095   3.914   3.123
 3379TIP3   OH210081   3.033   3.185   3.093
 3379TIP3    H110082   3.061   3.265   3.138
 3379TIP3    H210083   3.054   3.200   3.001
 3380TIP3   OH210084   2.427   3.362   3.124
 3380TIP3    H110085   2.470   3.280   3.148
 3380TIP3    H210086   2.395   3.347   3.035
 3381TIP3   OH210087   1.768   3.024   3.088
 3381TIP3    H110088   1.749   3.097   3.030
 3381TIP3    H210089   1.722   2.950   3.049
 3382TIP3   OH210090   2.465   3.116   2.712
 3382TIP3    H110091   2.531   3.100   2.780
 3382TIP3    H210092   2.515   3.150   2.638
 3383TIP3   OH210093   1.400   3.222   3.200
 3383TIP3    H110094   1.481   3.208   3.249
 3383TIP3    H210095   1.411   3.171   3.120
 3384TIP3   OH210096   1.839   3.421   2.998
 3384TIP3    H110097   1.932   3.400   3.009
 3384TIP3    H210098   1.800   3.340   2.964
 3385TIP3   OH210099   3.103   3.393   3.265
 3385TIP3    H110100   3.019   3.436   3.247
 3385TIP3    H210101   3.128   3.425   3.352
 3386TIP3   OH210102   1.766   3.008   3.526
 3386TIP3    H110103   1.708   3.041   3.457
 3386TIP3    H210104   1.715   3.018   3.606
 3387TIP3   OH210105   2.105   3.861   2.532
 3387TIP3    H110106   2.064   3.841   2.448
 3387TIP3    H210107   2.062   3.940   2.562
 3388TIP3   OH210108   1.868   3.785   3.318
 3388TIP3    H110109   1.810   3.851   3.355
 3388TIP3    H210110   1.912   3.830   3.245
 3389TIP3   OH210111   2.667   3.122   2.893
 3389TIP3    H110112   2.652   3.077   2.976
 3389TIP3    H210113   2.719   3.200   2.916
 3390TIP3   OH210114   1.637   3.123   3.309
 3390TIP3    H110115   1.695   3.194   3.336
 3390TIP3    H210116   1.683   3.080   3.236
 3391TIP3   OH210117   1.695   3.982   3.420
 3391TIP3    H110118   1.674   4.067   3.382
 3391TIP3    H210119   1.620   3.961   3.476
 3392TIP3   OH210120   1.084   3.668   2.658
 3392TIP3    H110121   1.052   3.684   2.569
 3392TIP3    H210122   1.116   3.753   2.688
 3393TIP3   OH210123   2.526   4.187   2.895
 3393TIP3    H110124   2.440   4.175   2.935
 3393TIP3    H210125   2.520   4.271   2.850
 3394TIP3   OH210126   2.822   3.088   3.256
 3394TIP3    H110127   2.736   3.114   3.224
 3394TIP3    H210128   2.883   3.118   3.189
 3395TIP3   OH210129   2.121   2.750   3.231
 3395TIP3    H110130   2.119   2.654   3.235
 3395TIP3    H210131   2.044   2.777   3.280
 3396TIP3   OH210132   2.231   4.229   2.564
 3396TIP3    H110133   2.276   4.146   2.550
 3396TIP3    H210134   2.289   4.295   2.527
 3397TIP3   OH210135   2.374   4.012   2.481
 3397TIP3    H110136   2.330   3.935   2.446
 3397TIP3    H210137   2.413   3.982   2.564
 3398TIP3   OH210138   2.754   4.095   3.237
 3398TIP3    H110139   2.742   4.018   3.181
 3398TIP3    H210140   2.737   4.169   3.179
 3399TIP3   OH210141   2.047   3.490   2.498
 3399TIP3    H110142   1.969   3.541   2.481
 3399TIP3    H210143   2.093   3.487   2.414
 3400TIP3   OH210144   2.009   3.278   2.207
 3400TIP3    H110145   2.071   3.330   2.258
 3400TIP3    H210146   2.063   3.214   2.161
 3401TIP3   OH210147   2.948   3.735   3.083
 3401TIP3    H110148   2.866   3.784   3.091
 3401TIP3    H210149   2.982   3.757   2.997
 3402TIP3   OH210150   2.397   3.573   2.469
 3402TIP3    H110151   2.341   3.596   2.544
 3402TIP3    H210152   2.480   3.548   2.509
 3403TIP3   OH210153   2.627   3.611   3.386
 3403TIP3    H110154   2.628   3.691   3.438
 3403TIP3    H210155   2.544   3.614   3.340
 3404TIP3   OH210156   1.628   3.567   2.886
 3404TIP3    H110157   1.585   3.512   2.821
 3404TIP3    H210158   1.702   3.515   2.917
 3405TIP3   OH210159   1.758   3.980   3.032
 3405TIP3    H110160   1.737   3.946   2.945
 3405TIP3    H210161   1.845   3.945   3.051
 3406TIP3   OH210162   1.759   3.543   3.240
 3406TIP3    H110163   1.793   3.515   3.155
 3406TIP3    H210164   1.804   3.625   3.258
 3407TIP3   OH210165   2.289   4.179   3.019
 3407TIP3    H110166   2.277   4.257   3.073
 3407TIP3    H210167   2.273   4.106   3.080
 3408TIP3   OH210168   1.900   4.098   3.564
 3408TIP3    H110169   1.843   4.158   3.611
 3408TIP3    H210170   1.840   4.044   3.513
 3409TIP3   OH210171   2.236   3.433   2.293
 3409TIP3    H110172   2.292   3.490   2.345
 3409TIP3    H210173   2.260   3.451   2.202
 3410TIP3   OH210174   1.658   3.654   3.672
 3410TIP3    H110175   1.664   3.741   3.712
 3410TIP3    H210176   1.565   3.631   3.679
 3411TIP3   OH210177   1.982   4.107   2.571
 3411TIP3    H110178   2.063   4.158   2.579
 3411TIP3    H210179   1.920   4.166   2.529
 3412TIP3   OH210180   1.694   4.263   3.651
 3412TIP3    H110181   1.662   4.266   3.561
 3412TIP3    H210182   1.616   4.242   3.703
 3413TIP3   OH210183   2.750   2.671   2.345
 3413TIP3    H110184   2.670   2.690   2.394
 3413TIP3    H210185   2.766   2.751   2.294
 3414TIP3   OH210186   1.491   3.413   2.691
 3414TIP3    H110187   1.426   3.460   2.638
 3414TIP3    H210188   1.456   3.324   2.697
 3415TIP3   OH210189   2.553   4.037   1.892
 3415TIP3    H110190   2.559   4.132   1.878
 3415TIP3    H210191   2.643   4.005   1.880
 3416TIP3   OH210192   1.273   3.796   3.598
 3416TIP3    H110193   1.211   3.774   3.529
 3416TIP3    H210194   1.313   3.712   3.621
 3417TIP3   OH210195   1.130   3.987   3.238
 3417TIP3    H110196   1.224   3.982   3.220
 3417TIP3    H210197   1.120   4.069   3.287
 3418TIP3   OH210198   2.989   4.440   3.288
 3418TIP3    H110199   2.993   4.346   3.302
 3418TIP3    H210200   2.910   4.468   3.333
 3419TIP3   OH210201   2.096   4.227   3.423
 3419TIP3    H110202   2.096   4.318   3.453
 3419TIP3    H210203   2.028   4.185   3.474
 3420TIP3   OH210204   1.863   4.356   2.372
 3420TIP3    H110205   1.814   4.336   2.293
 3420TIP3    H210206   1.829   4.440   2.401
 3421TIP3   OH210207   1.300   4.205   2.760
 3421TIP3    H110208   1.344   4.195   2.844
 3421TIP3    H210209   1.237   4.133   2.758
 3422TIP3   OH210210   2.063   4.256   2.012
 3422TIP3    H110211   2.119   4.188   1.976
 3422TIP3    H210212   2.094   4.267   2.102
 3423TIP3   OH210213   2.113   4.304   2.282
 3423TIP3    H110214   2.026   4.315   2.320
 3423TIP3    H210215   2.165   4.264   2.352
 3424TIP3   OH210216   2.881   3.567   3.562
 3424TIP3    H110217   2.799   3.579   3.514
 3424TIP3    H210218   2.900   3.474   3.556
 3425TIP3   OH210219   1.479   3.978   3.586
 3425TIP3    H110220   1.529   3.962   3.666
 3425TIP3    H210221   1.405   3.917   3.592
 3426TIP3   OH210222   1.885   2.797   3.372
 3426TIP3    H110223   1.799   2.761   3.351
 3426TIP3    H210224   1.867   2.870   3.431
 3427TIP3   OH210225   2.418   2.911   3.565
 3427TIP3    H110226   2.488   2.888   3.626
 3427TIP3    H210227   2.338   2.898   3.616
 3428TIP3   OH210228   2.646   3.346   3.484
 3428TIP3    H110229   2.599   3.343   3.568
 3428TIP3    H210230   2.626   3.433   3.449
 3429TIP3   OH210231   2.310   3.472   2.035
 3429TIP3    H110232   2.276   3.448   1.949
 3429TIP3    H210233   2.394   3.516   2.016
 3430TIP3   OH210234   2.023   2.847   2.345
 3430TIP3    H110235   1.989   2.847   2.435
 3430TIP3    H210236   1.985   2.769   2.306
 3431TIP3   OH210237   1.809   3.321   3.390
 3431TIP3    H110238   1.763   3.339   3.472
 3431TIP3    H210239   1.794   3.399   3.336
 3432TIP3   OH210240   1.692   3.204   2.902
 3432TIP3    H110241   1.601   3.181   2.923
 3432TIP3    H210242   1.707   3.165   2.816
 3433TIP3   OH210243   2.185   3.290   2.632
 3433TIP3    H110244   2.135   3.360   2.590
 3433TIP3    H210245   2.240   3.255   2.562
 3434TIP3   OH210246   2.361   3.563   3.717
 3434TIP3    H110247   2.336   3.493   3.777
 3434TIP3    H210248   2.453   3.581   3.737
 3435TIP3   OH210249   2.339   3.314   2.866
 3435TIP3    H110250   2.277   3.344   2.800
 3435TIP3    H210251   2.378   3.235   2.827
 3436TIP3   OH210252   1.629   3.346   3.601
 3436TIP3    H110253   1.668   3.407   3.663
 3436TIP3    H210254   1.622   3.263   3.649
 3437TIP3   OH210255   1.681   2.826   2.310
 3437TIP3    H110256   1.669   2.822   2.405
 3437TIP3    H210257   1.605   2.874   2.278
 3438TIP3   OH210258   1.222   2.865   3.186
 3438TIP3    H110259   1.297   2.900   3.234
 3438TIP3    H210260   1.258   2.841   3.101
 3439TIP3   OH210261   1.188   2.854   2.701
 3439TIP3    H110262   1.231   2.883   2.621
 3439TIP3    H210263   1.124   2.923   2.721
 3440TIP3   OH210264   2.349   3.559   3.290
 3440TIP3    H110265   2.384   3.492   3.231
 3440TIP3    H210266   2.321   3.510   3.367
 3441TIP3   OH210267   2.025   3.022   2.965
 3441TIP3    H110268   1.944   3.025   3.017
 3441TIP3    H210269   2.095   3.023   3.030
 3442TIP3   OH210270   1.453   3.082   2.971
 3442TIP3    H110271   1.362   3.090   2.943
 3442TIP3    H210272   1.478   2.993   2.947
 3443TIP3   OH210273   1.721   3.078   2.662
 3443TIP3    H110274   1.813   3.093   2.640
 3443TIP3    H210275   1.674   3.100   2.582
 3444TIP3   OH210276   2.512   3.102   3.168
 3444TIP3    H110277   2.484   3.116   3.259
 3444TIP3    H210278   2.445   3.044   3.131
 3445TIP3   OH210279   1.572   3.115   2.438
 3445TIP3    H110280   1.501   3.068   2.394
 3445TIP3    H210281   1.625   3.150   2.367
 3446TIP3   OH210282   2.689   4.792   3.387
 3446TIP3    H110283   2.685   4.814   3.294
 3446TIP3    H210284   2.767   4.836   3.420
 3447TIP3   OH210285   1.642   3.903   3.811
 3447TIP3    H110286   1.724   3.929   3.854
 3447TIP3    H210287   1.577   3.901   3.881
 3448TIP3   OH210288   2.105   3.354   3.062
 3448TIP3    H110289   2.179   3.318   3.013
 3448TIP3    H210290   2.110   3.312   3.148
 3449TIP3   OH210291   1.624   2.840   2.943
 3449TIP3    H110292   1.587   2.766   2.991
 3449TIP3    H210293   1.661   2.802   2.864
 3450TIP3   OH210294   2.081   3.257   3.351
 3450TIP3    H110295   1.992   3.291   3.366
 3450TIP3    H210296   2.137   3.316   3.400
 3451TIP3   OH210297   1.817   3.641   2.449
 3451TIP3    H110298   1.749   3.575   2.435
 3451TIP3    H210299   1.799   3.676   2.536
 3452TIP3   OH210300   2.715   3.879   3.071
 3452TIP3    H110301   2.740   3.928   2.993
 3452TIP3    H210302   2.633   3.835   3.047
 3453TIP3   OH210303   2.274   2.953   2.312
 3453TIP3    H110304   2.181   2.932   2.322
 3453TIP3    H210305   2.281   3.045   2.339
 3454TIP3   OH210306   2.215   3.961   3.445
 3454TIP3    H110307   2.249   3.942   3.532
 3454TIP3    H210308   2.178   4.049   3.452
 3455TIP3   OH210309   2.344   3.203   2.415
 3455TIP3    H110310   2.438   3.207   2.431
 3455TIP3    H210311   2.325   3.282   2.365
 3456TIP3   OH210312   1.511   3.663   3.120
 3456TIP3    H110313   1.546   3.638   3.034
 3456TIP3    H210314   1.559   3.608   3.182
 3457TIP3   OH210315   1.959   3.792   2.271
 3457TIP3    H110316   1.914   3.876   2.272
 3457TIP3    H210317   1.908   3.736   2.329
 3458TIP3   OH210318   1.392   3.587   3.740
 3458TIP3    H110319   1.417   3.575   3.831
 3458TIP3    H210320   1.327   3.518   3.723
 3459TIP3   OH210321   2.122   3.700   3.753
 3459TIP3    H110322   2.060   3.643   3.707
 3459TIP3    H210323   2.208   3.667   3.729
 3460TIP3   OH210324   2.374   4.223   3.342
 3460TIP3    H110325   2.279   4.219   3.353
 3460TIP3    H210326   2.405   4.273   3.418
 3461TIP3   OH210327   2.782   3.296   2.246
 3461TIP3    H110328   2.722   3.249   2.187
 3461TIP3    H210329   2.783   3.386   2.211
 3462TIP3   OH210330   3.002   4.151   3.325
 3462TIP3    H110331   2.907   4.146   3.320
 3462TIP3    H210332   3.032   4.122   3.239
 3463TIP3   OH210333   2.489   4.111   2.158
 3463TIP3    H110334   2.460   4.044   2.221
 3463TIP3    H210335   2.500   4.064   2.076
 3464TIP3   OH210336   2.481   3.740   2.988
 3464TIP3    H110337   2.389   3.718   3.004
 3464TIP3    H210338   2.517   3.662   2.946
 3465TIP3   OH210339   1.610   3.972   2.748
 3465TIP3    H110340   1.608   4.051   2.694
 3465TIP3    H210341   1.518   3.948   2.759
 3466TIP3   OH210342   1.178   3.267   2.453
 3466TIP3    H110343   1.222   3.351   2.466
 3466TIP3    H210344   1.099   3.272   2.506
 3467TIP3   OH210345   1.743   3.734   2.692
 3467TIP3    H110346   1.711   3.822   2.709
 3467TIP3    H210347   1.710   3.682   2.764
 3468TIP3   OH210348   1.884   4.312   3.216
 3468TIP3    H110349   1.924   4.383   3.166
 3468TIP3    H210350   1.957   4.273   3.264
 3469TIP3   OH210351   1.528   4.210   2.601
 3469TIP3    H110352   1.444   4.214   2.646
 3469TIP3    H210353   1.560   4.300   2.601
 3470TIP3   OH210354   2.267   3.945   3.178
 3470TIP3    H110355   2.254   3.945   3.273
 3470TIP3    H210356   2.346   3.893   3.164
 3471TIP3   OH210357   2.245   3.842   2.061
 3471TIP3    H110358   2.300   3.817   2.136
 3471TIP3    H210359   2.157   3.812   2.085
 3472TIP3   OH210360   2.514   4.477   3.224
 3472TIP3    H110361   2.437   4.420   3.222
 3472TIP3    H210362   2.500   4.540   3.154
 3473TIP3   OH210363   2.581   4.315   1.876
 3473TIP3    H110364   2.622   4.387   1.827
 3473TIP3    H210365   2.501   4.353   1.913
 3474TIP3   OH210366   1.602   3.088   3.742
 3474TIP3    H110367   1.508   3.086   3.755
 3474TIP3    H210368   1.637   3.033   3.812
 3475TIP3   OH210369   2.408   3.769   2.272
 3475TIP3    H110370   2.393   3.707   2.344
 3475TIP3    H210371   2.503   3.769   2.260
 3476TIP3   OH210372   1.320   4.173   3.377
 3476TIP3    H110373   1.373   4.100   3.408
 3476TIP3    H210374   1.350   4.248   3.429
 3477TIP3   OH210375   1.605   3.815   2.059
 3477TIP3    H110376   1.616   3.725   2.031
 3477TIP3    H210377   1.584   3.809   2.153
 3478TIP3   OH210378   1.554   3.832   2.330
 3478TIP3    H110379   1.622   3.798   2.388
 3478TIP3    H210380   1.559   3.927   2.341
 3479TIP3   OH210381   1.287   3.521   2.536
 3479TIP3    H110382   1.220   3.562   2.592
 3479TIP3    H210383   1.299   3.583   2.464
 3480TIP3   OH210384   2.443   3.152   3.428
 3480TIP3    H110385   2.521   3.193   3.464
 3480TIP3    H210386   2.432   3.072   3.480
 3481TIP3   OH210387   2.322   2.903   2.595
 3481TIP3    H110388   2.308   2.923   2.503
 3481TIP3    H210389   2.361   2.983   2.631
 3482TIP3   OH210390   1.821   4.025   2.278
 3482TIP3    H110391   1.736   4.044   2.317
 3482TIP3    H210392   1.837   4.099   2.218
 3483TIP3   OH210393   2.007   3.088   2.696
 3483TIP3    H110394   2.069   3.158   2.677
 3483TIP3    H210395   2.011   3.077   2.791
 3484TIP3   OH210396   2.280   3.401   3.500
 3484TIP3    H110397   2.302   3.454   3.577
 3484TIP3    H210398   2.332   3.321   3.510
 3485TIP3   OH210399   2.150   2.807   2.792
 3485TIP3    H110400   2.141   2.881   2.852
 3485TIP3    H210401   2.211   2.838   2.725
 3486TIP3   OH210402   1.569   4.104   2.350
 3486TIP3    H110403   1.538   4.171   2.289
 3486TIP3    H210404   1.552   4.141   2.436
 3487TIP3   OH210405   1.666   2.814   2.587
 3487TIP3    H110406   1.659   2.903   2.621
 3487TIP3    H210407   1.760   2.793   2.591
 3488TIP3   OH210408   2.912   3.302   3.482
 3488TIP3    H110409   2.816   3.302   3.490
 3488TIP3    H210410   2.929   3.258   3.399
 3489TIP3   OH210411   2.568   3.496   2.871
 3489TIP3    H110412   2.492   3.439   2.882
 3489TIP3    H210413   2.639   3.452   2.918
 3490TIP3   OH210414   1.286   3.726   2.341
 3490TIP3    H110415   1.357   3.789   2.349
 3490TIP3    H210416   1.318   3.662   2.277
 3491TIP3   OH210417   1.222   2.995   2.473
 3491TIP3    H110418   1.219   3.090   2.468
 3491TIP3    H210419   1.176   2.966   2.394
 3492TIP3   OH210420   2.539   4.459   2.815
 3492TIP3    H110421   2.494   4.503   2.743
 3492TIP3    H210422   2.632   4.475   2.799
 3493TIP3   OH210423   1.614   2.720   3.345
 3493TIP3    H110424   1.584   2.689   3.260
 3493TIP3    H210425   1.614   2.643   3.401
 3494TIP3   OH210426   1.145   3.937   2.724
 3494TIP3    H110427   1.082   3.974   2.787
 3494TIP3    H210428   1.119   3.975   2.640
 3495TIP3   OH210429   1.314   4.487   3.801
 3495TIP3    H110430   1.398   4.490   3.846
 3495TIP3    H210431   1.294   4.393   3.795
 3496TIP3   OH210432   1.787   4.443   3.841
 3496TIP3    H110433   1.881   4.427   3.852
 3496TIP3    H210434   1.762   4.383   3.770
 3497TIP3   OH210435   1.770   4.016   1.969
 3497TIP3    H110436   1.713   3.950   2.007
 3497TIP3    H210437   1.847   3.967   1.941
 3498TIP3   OH210438   2.430   4.354   3.577
 3498TIP3    H110439   2.420   4.285   3.642
 3498TIP3    H210440   2.506   4.404   3.606
 3499TIP3   OH210441   2.208   4.059   1.884
 3499TIP3    H110442   2.244   3.995   1.945
 3499TIP3    H210443   2.265   4.055   1.807
 3500TIP3   OH210444   1.437   3.889   3.998
 3500TIP3    H110445   1.456   3.796   4.007
 3500TIP3    H210446   1.353   3.891   3.952
 3501TIP3   OH210447   1.437   3.549   2.209
 3501TIP3    H110448   1.494   3.509   2.274
 3501TIP3    H210449   1.488   3.547   2.128
 3502TIP3   OH210450   2.045   3.976   3.772
 3502TIP3    H110451   2.007   3.996   3.686
 3502TIP3    H210452   2.078   3.886   3.763
 3503TIP3   OH210453   1.934   3.738   2.001
 3503TIP3    H110454   1.934   3.752   2.096
 3503TIP3    H210455   1.932   3.643   1.992
 3504TIP3   OH210456   2.539   3.990   3.378
 3504TIP3    H110457   2.616   4.028   3.336
 3504TIP3    H210458   2.470   4.054   3.364
 3505TIP3   OH210459   1.562   3.622   3.981
 3505TIP3    H110460   1.641   3.579   3.950
 3505TIP3    H210461   1.586   3.656   4.068
 3506TIP3   OH210462   1.631   3.441   2.416
 3506TIP3    H110463   1.596   3.403   2.497
 3506TIP3    H210464   1.665   3.366   2.367
 3507TIP3   OH210465   1.891   3.506   3.637
 3507TIP3    H110466   1.817   3.567   3.642
 3507TIP3    H210467   1.944   3.539   3.565
 3508TIP3   OH210468   1.730   3.239   2.251
 3508TIP3    H110469   1.700   3.247   2.160
 3508TIP3    H210470   1.825   3.242   2.245
 3509TIP3   OH210471   2.413   3.908   3.775
 3509TIP3    H110472   2.490   3.878   3.727
 3509TIP3    H210473   2.405   3.847   3.848
 3510TIP3   OH210474   2.543   3.568   1.918
 3510TIP3    H110475   2.527   3.521   1.837
 3510TIP3    H210476   2.512   3.657   1.901
 3511TIP3   OH210477   2.016   3.298   3.765
 3511TIP3    H110478   2.019   3.221   3.709
 3511TIP3    H210479   1.973   3.365   3.711
 3512TIP3   OH210480   2.022   3.089   3.573
 3512TIP3    H110481   2.050   3.130   3.491
 3512TIP3    H210482   1.931   3.064   3.557
 3513TIP3   OH210483   2.043   3.618   3.448
 3513TIP3    H110484   2.130   3.629   3.409
 3513TIP3    H210485   1.988   3.682   3.403
 3514TIP3   OH210486   2.628   3.584   3.825
 3514TIP3    H110487   2.672   3.502   3.848
 3514TIP3    H210488   2.697   3.639   3.788
 3515TIP3   OH210489   2.670   3.841   3.561
 3515TIP3    H110490   2.611   3.893   3.507
 3515TIP3    H210491   2.757   3.859   3.526
 3516TIP3   OH210492   1.890   3.404   3.995
 3516TIP3    H110493   1.827   3.335   4.015
 3516TIP3    H210494   1.929   3.378   3.911
 3517TIP3   OH210495   2.148   2.856   3.646
 3517TIP3    H110496   2.113   2.943   3.626
 3517TIP3    H210497   2.078   2.796   3.622
 3518TIP3   OH210498   2.277   3.347   3.861
 3518TIP3    H110499   2.270   3.336   3.956
 3518TIP3    H210500   2.190   3.325   3.828
 3519TIP3   OH210501   2.515   3.298   3.715
 3519TIP3    H110502   2.443   3.301   3.777
 3519TIP3    H210503   2.590   3.270   3.767
 3520TIP3   OH210504   2.744   3.239   3.861
 3520TIP3    H110505   2.759   3.146   3.877
 3520TIP3    H210506   2.740   3.279   3.948
 3521TIP3   OH210507   1.732   3.188   4.059
 3521TIP3    H110508   1.732   3.098   4.026
 3521TIP3    H210509   1.771   3.181   4.147
 3522TIP3   OH210510   2.243   2.852   3.905
 3522TIP3    H110511   2.312   2.786   3.899
 3522TIP3    H210512   2.205   2.854   3.817
 3523TIP3   OH210513   2.309   3.069   4.063
 3523TIP3    H110514   2.289   3.000   4.000
 3523TIP3    H210515   2.234   3.129   4.057
 3524TIP3   OH210516   1.538   4.307   2.160
 3524TIP3    H110517   1.631   4.292   2.142
 3524TIP3    H210518   1.507   4.353   2.082
 3525TIP3   OH210519   1.015   3.678   2.390
 3525TIP3    H110520   1.100   3.708   2.360
 3525TIP3    H210521   1.001   3.595   2.345
 3526TIP3   OH210522   0.966   4.251   2.743
 3526TIP3    H110523   0.872   4.231   2.734
 3526TIP3    H210524   0.987   4.223   2.833
 3527TIP3   OH210525   1.065   4.141   2.984
 3527TIP3    H110526   1.051   4.071   3.048
 3527TIP3    H210527   1.116   4.207   3.032
 3528TIP3   OH210528   2.793   4.547   2.779
 3528TIP3    H110529   2.818   4.573   2.867
 3528TIP3    H210530   2.861   4.585   2.723
 3529TIP3   OH210531   2.822   4.560   3.061
 3529TIP3    H110532   2.774   4.478   3.056
 3529TIP3    H210533   2.896   4.541   3.119
 3530TIP3   OH210534   2.865   4.244   3.633
 3530TIP3    H110535   2.794   4.252   3.696
 3530TIP3    H210536   2.910   4.329   3.636
 3531TIP3   OH210537   2.687   3.754   2.252
 3531TIP3    H110538   2.750   3.818   2.221
 3531TIP3    H210539   2.728   3.716   2.330
 3532TIP3   OH210540   2.811   3.621   2.458
 3532TIP3    H110541   2.746   3.580   2.514
 3532TIP3    H210542   2.876   3.657   2.518
 3533TIP3   OH210543   2.868   4.015   2.884
 3533TIP3    H110544   2.920   3.947   2.842
 3533TIP3    H210545   2.863   4.086   2.820
 3534TIP3   OH210546   2.693   4.316   3.079
 3534TIP3    H110547   2.623   4.355   3.132
 3534TIP3    H210548   2.646   4.269   3.010
 3535TIP3   OH210549   2.745   3.532   2.100
 3535TIP3    H110550   2.677   3.530   2.033
 3535TIP3    H210551   2.722   3.605   2.157
 3536TIP3   OH210552   2.617   3.201   2.053
 3536TIP3    H110553   2.574   3.237   1.975
 3536TIP3    H210554   2.598   3.107   2.050
 3537TIP3   OH210555   2.623   3.479   2.602
 3537TIP3    H110556   2.631   3.384   2.593
 3537TIP3    H210557   2.609   3.493   2.696
 3538TIP3   OH210558   1.251   3.550   3.350
 3538TIP3    H110559   1.245   3.518   3.260
 3538TIP3    H210560   1.345   3.553   3.368
 3539TIP3   OH210561   2.916   3.905   3.458
 3539TIP3    H110562   2.984   3.837   3.449
 3539TIP3    H210563   2.942   3.973   3.396
 3540TIP3   OH210564   3.096   3.702   3.469
 3540TIP3    H110565   3.022   3.656   3.508
 3540TIP3    H210566   3.171   3.643   3.482
 3541TIP3   OH210567   2.563   2.936   2.040
 3541TIP3    H110568   2.636   2.904   2.092
 3541TIP3    H210569   2.491   2.877   2.060
 3542TIP3   OH210570   2.624   3.194   2.492
 3542TIP3    H110571   2.660   3.107   2.508
 3542TIP3    H210572   2.679   3.230   2.422
 3543TIP3   OH210573   2.783   3.367   2.992
 3543TIP3    H110574   2.865   3.389   2.948
 3543TIP3    H210575   2.793   3.402   3.080
 3544TIP3   OH210576   2.851   3.514   3.220
 3544TIP3    H110577   2.776   3.546   3.270
 3544TIP3    H210578   2.886   3.592   3.176
 3545TIP3   OH210579   1.467   3.233   4.017
 3545TIP3    H110580   1.563   3.236   4.022
 3545TIP3    H210581   1.443   3.150   4.059
 3546TIP3   OH210582   3.302   3.105   3.774
 3546TIP3    H110583   3.363   3.044   3.733
 3546TIP3    H210584   3.270   3.160   3.702
 3547TIP3   OH210585   2.728   2.945   2.533
 3547TIP3    H110586   2.778   2.931   2.613
 3547TIP3    H210587   2.668   2.870   2.530
 3548TIP3   OH210588   1.432   2.932   3.359
 3548TIP3    H110589   1.491   2.856   3.364
 3548TIP3    H210590   1.490   3.007   3.347
 3549TIP3   OH210591   1.230   3.205   3.423
 3549TIP3    H110592   1.278   3.197   3.340
 3549TIP3    H210593   1.260   3.288   3.460
 3550TIP3   OH210594   3.168   3.240   3.581
 3550TIP3    H110595   3.088   3.287   3.606
 3550TIP3    H210596   3.137   3.169   3.525
 3551TIP3   OH210597   2.809   2.877   2.165
 3551TIP3    H110598   2.846   2.806   2.112
 3551TIP3    H210599   2.875   2.946   2.163
 3552TIP3   OH210600   1.216   2.714   2.931
 3552TIP3    H110601   1.123   2.704   2.952
 3552TIP3    H210602   1.217   2.768   2.852
 3553TIP3   OH210603   2.376   4.415   2.431
 3553TIP3    H110604   2.426   4.401   2.351
 3553TIP3    H210605   2.428   4.477   2.482
 3554TIP3   OH210606   1.435   2.788   3.741
 3554TIP3    H110607   1.388   2.791   3.824
 3554TIP3    H210608   1.372   2.824   3.678
 3555TIP3   OH210609   1.474   4.220   3.816
 3555TIP3    H110610   1.383   4.193   3.801
 3555TIP3    H210611   1.491   4.197   3.908
 3556TIP3   OH210612   1.656   4.255   3.364
 3556TIP3    H110613   1.606   4.328   3.327
 3556TIP3    H210614   1.742   4.262   3.322
 3557TIP3   OH210615   2.098   4.494   3.504
 3557TIP3    H110616   2.137   4.490   3.591
 3557TIP3    H210617   2.161   4.544   3.452
 3558TIP3   OH210618   2.278   4.648   3.365
 3558TIP3    H110619   2.345   4.594   3.322
 3558TIP3    H210620   2.327   4.703   3.425
 3559TIP3   OH210621   3.069   3.004   3.461
 3559TIP3    H110622   2.979   2.996   3.431
 3559TIP3    H210623   3.106   2.916   3.451
 3560TIP3   OH210624   1.329   4.507   3.392
 3560TIP3    H110625   1.241   4.534   3.365
 3560TIP3    H210626   1.343   4.551   3.475
 3561TIP3   OH210627   1.564   4.486   3.248
 3561TIP3    H110628   1.480   4.497   3.292
 3561TIP3    H210629   1.548   4.516   3.158
 3562TIP3   OH210630   1.991   4.512   3.046
 3562TIP3    H110631   1.921   4.527   2.983
 3562TIP3    H210632   2.003   4.597   3.088
 3563TIP3   OH210633   2.260   4.451   3.098
 3563TIP3    H110634   2.168   4.467   3.079
 3563TIP3    H210635   2.306   4.523   3.055
 3564TIP3   OH210636   2.467   4.642   3.009
 3564TIP3    H110637   2.453   4.725   2.963
 3564TIP3    H210638   2.494   4.581   2.940
 3565TIP3   OH210639   1.243   4.297   3.135
 3565TIP3    H110640   1.265   4.274   3.225
 3565TIP3    H210641   1.312   4.258   3.082
 3566TIP3   OH210642   1.438   4.170   2.996
 3566TIP3    H110643   1.451   4.088   3.044
 3566TIP3    H210644   1.526   4.207   2.988
 3567TIP3   OH210645   1.707   4.262   2.999
 3567TIP3    H110646   1.733   4.171   2.984
 3567TIP3    H210647   1.752   4.287   3.080
 3568TIP3   OH210648   2.283   2.928   3.078
 3568TIP3    H110649   2.236   2.861   3.127
 3568TIP3    H210650   2.354   2.880   3.035
 3569TIP3   OH210651   2.794   2.804   2.975
 3569TIP3    H110652   2.831   2.853   2.902
 3569TIP3    H210653   2.701   2.824   2.974
 3570TIP3   OH210654   2.896   2.904   2.744
 3570TIP3    H110655   2.967   2.849   2.709
 3570TIP3    H210656   2.928   2.994   2.732
 3571TIP3   OH210657   1.521   2.628   3.098
 3571TIP3    H110658   1.429   2.601   3.097
 3571TIP3    H210659   1.570   2.546   3.093
 3572TIP3   OH210660   1.322   2.503   2.750
 3572TIP3    H110661   1.353   2.551   2.673
 3572TIP3    H210662   1.293   2.570   2.811
 3573TIP3   OH210663   1.980   2.660   2.982
 3573TIP3    H110664   2.028   2.702   2.910
 3573TIP3    H210665   1.992   2.719   3.057
 3574TIP3   OH210666   2.509   2.805   2.961
 3574TIP3    H110667   2.518   2.766   2.874
 3574TIP3    H210668   2.499   2.729   3.019
 3575TIP3   OH210669   2.544   2.733   2.526
 3575TIP3    H110670   2.461   2.777   2.541
 3575TIP3    H210671   2.534   2.647   2.568
 3576TIP3   OH210672   1.035   4.067   2.518
 3576TIP3    H110673   0.951   4.041   2.481
 3576TIP3    H210674   1.022   4.157   2.547
 3577TIP3   OH210675   1.435   2.645   2.526
 3577TIP3    H110676   1.474   2.592   2.457
 3577TIP3    H210677   1.506   2.704   2.554
 3578TIP3   OH210678   1.943   2.839   2.609
 3578TIP3    H110679   2.002   2.788   2.664
 3578TIP3    H210680   1.961   2.930   2.631
 3579TIP3   OH210681   1.803   4.253   2.103
 3579TIP3    H110682   1.890   4.278   2.071
 3579TIP3    H210683   1.778   4.179   2.047
 3580TIP3   OH210684   2.522   4.377   2.199
 3580TIP3    H110685   2.516   4.282   2.192
 3580TIP3    H210686   2.476   4.410   2.122
 3581TIP3   OH210687   1.731   2.923   3.998
 3581TIP3    H110688   1.694   2.841   4.032
 3581TIP3    H210689   1.824   2.917   4.019
 3582TIP3   OH210690   1.984   2.906   4.108
 3582TIP3    H110691   2.068   2.886   4.068
 3582TIP3    H210692   1.971   2.836   4.173
 3583TIP3   OH210693   1.107   4.098   2.164
 3583TIP3    H110694   1.095   4.113   2.258
 3583TIP3    H210695   1.192   4.055   2.156
 3584TIP3   OH210696   2.813   2.968   3.894
 3584TIP3    H110697   2.828   2.939   3.984
 3584TIP3    H210698   2.900   2.965   3.854
 3585TIP3   OH210699   2.742   4.523   3.386
 3585TIP3    H110700   2.667   4.490   3.337
 3585TIP3    H210701   2.726   4.617   3.395
 3586TIP3   OH210702   4.013   3.897   2.148
 3586TIP3    H110703   3.985   3.987   2.130
 3586TIP3    H210704   3.940   3.843   2.119
 3587TIP3   OH210705   4.014   3.893   2.540
 3587TIP3    H110706   4.049   3.873   2.627
 3587TIP3    H210707   3.972   3.811   2.512
 3588TIP3   OH210708   3.311   3.785   2.902
 3588TIP3    H110709   3.337   3.716   2.963
 3588TIP3    H210710   3.386   3.844   2.900
 3589TIP3   OH210711   4.259   4.199   2.219
 3589TIP3    H110712   4.241   4.130   2.282
 3589TIP3    H210713   4.288   4.273   2.273
 3590TIP3   OH210714   3.285   4.197   2.620
 3590TIP3    H110715   3.274   4.102   2.621
 3590TIP3    H210716   3.379   4.210   2.620
 3591TIP3   OH210717   2.989   3.401   2.404
 3591TIP3    H110718   2.944   3.483   2.424
 3591TIP3    H210719   2.921   3.347   2.363
 3592TIP3   OH210720   3.049   3.687   2.585
 3592TIP3    H110721   3.095   3.610   2.619
 3592TIP3    H210722   3.108   3.724   2.520
 3593TIP3   OH210723   3.910   4.658   2.235
 3593TIP3    H110724   3.951   4.589   2.184
 3593TIP3    H210725   3.898   4.620   2.322
 3594TIP3   OH210726   3.814   4.122   2.582
 3594TIP3    H110727   3.849   4.043   2.540
 3594TIP3    H210728   3.892   4.171   2.609
 3595TIP3   OH210729   4.829   3.442   2.581
 3595TIP3    H110730   4.856   3.522   2.626
 3595TIP3    H210731   4.847   3.458   2.489
 3596TIP3   OH210732   4.225   3.619   2.611
 3596TIP3    H110733   4.266   3.536   2.635
 3596TIP3    H210734   4.192   3.603   2.522
 3597TIP3   OH210735   3.564   3.280   2.575
 3597TIP3    H110736   3.545   3.354   2.516
 3597TIP3    H210737   3.517   3.206   2.537
 3598TIP3   OH210738   4.262   3.373   2.199
 3598TIP3    H110739   4.328   3.357   2.267
 3598TIP3    H210740   4.312   3.407   2.125
 3599TIP3   OH210741   3.198   3.480   2.686
 3599TIP3    H110742   3.278   3.464   2.736
 3599TIP3    H210743   3.208   3.427   2.607
 3600TIP3   OH210744   3.636   3.678   2.482
 3600TIP3    H110745   3.728   3.656   2.495
 3600TIP3    H210746   3.596   3.597   2.450
 3601TIP3   OH210747   4.898   3.652   2.751
 3601TIP3    H110748   4.815   3.694   2.732
 3601TIP3    H210749   4.918   3.678   2.841
 3602TIP3   OH210750   3.556   3.264   3.015
 3602TIP3    H110751   3.500   3.301   2.946
 3602TIP3    H210752   3.507   3.280   3.096
 3603TIP3   OH210753   3.903   4.118   2.018
 3603TIP3    H110754   3.861   4.098   1.935
 3603TIP3    H210755   3.859   4.198   2.048
 3604TIP3   OH210756   3.665   4.043   2.804
 3604TIP3    H110757   3.605   4.107   2.843
 3604TIP3    H210758   3.708   4.089   2.733
 3605TIP3   OH210759   4.464   3.378   2.380
 3605TIP3    H110760   4.442   3.336   2.464
 3605TIP3    H210761   4.514   3.456   2.405
 3606TIP3   OH210762   3.434   3.380   2.796
 3606TIP3    H110763   3.491   3.452   2.823
 3606TIP3    H210764   3.480   3.339   2.723
 3607TIP3   OH210765   3.490   4.238   2.906
 3607TIP3    H110766   3.469   4.325   2.871
 3607TIP3    H210767   3.416   4.216   2.962
 3608TIP3   OH210768   2.885   3.928   2.141
 3608TIP3    H110769   2.844   3.953   2.059
 3608TIP3    H210770   2.918   4.010   2.178
 3609TIP3   OH210771   4.323   4.444   2.381
 3609TIP3    H110772   4.237   4.431   2.422
 3609TIP3    H210773   4.316   4.529   2.337
 3610TIP3   OH210774   4.620   3.338   2.745
 3610TIP3    H110775   4.533   3.366   2.716
 3610TIP3    H210776   4.679   3.370   2.677
 3611TIP3   OH210777   3.909   2.979   2.731
 3611TIP3    H110778   3.896   2.886   2.747
 3611TIP3    H210779   3.836   3.021   2.776
 3612TIP3   OH210780   4.027   4.485   2.051
 3612TIP3    H110781   4.073   4.402   2.037
 3612TIP3    H210782   4.085   4.551   2.014
 3613TIP3   OH210783   4.171   4.269   1.968
 3613TIP3    H110784   4.126   4.192   1.934
 3613TIP3    H210785   4.210   4.239   2.051
 3614TIP3   OH210786   4.551   4.352   2.724
 3614TIP3    H110787   4.538   4.274   2.669
 3614TIP3    H210788   4.534   4.426   2.665
 3615TIP3   OH210789   3.843   3.747   1.984
 3615TIP3    H110790   3.764   3.798   1.966
 3615TIP3    H210791   3.889   3.743   1.901
 3616TIP3   OH210792   3.804   3.534   1.696
 3616TIP3    H110793   3.867   3.585   1.746
 3616TIP3    H210794   3.858   3.470   1.649
 3617TIP3   OH210795   4.746   3.993   2.571
 3617TIP3    H110796   4.663   4.040   2.579
 3617TIP3    H210797   4.777   4.015   2.483
 3618TIP3   OH210798   4.194   3.830   1.956
 3618TIP3    H110799   4.137   3.853   2.030
 3618TIP3    H210800   4.277   3.805   1.996
 3619TIP3   OH210801   4.423   3.868   2.872
 3619TIP3    H110802   4.424   3.947   2.926
 3619TIP3    H210803   4.339   3.871   2.827
 3620TIP3   OH210804   3.426   3.823   2.373
 3620TIP3    H110805   3.384   3.768   2.307
 3620TIP3    H210806   3.500   3.772   2.404
 3621TIP3   OH210807   3.557   4.240   2.518
 3621TIP3    H110808   3.535   4.201   2.433
 3621TIP3    H210809   3.644   4.205   2.538
 3622TIP3   OH210810   3.560   3.798   2.726
 3622TIP3    H110811   3.593   3.773   2.639
 3622TIP3    H210812   3.602   3.882   2.745
 3623TIP3   OH210813   4.086   4.435   2.506
 3623TIP3    H110814   4.074   4.514   2.559
 3623TIP3    H210815   4.069   4.363   2.567
 3624TIP3   OH210816   3.696   4.354   3.049
 3624TIP3    H110817   3.640   4.414   3.098
 3624TIP3    H210818   3.635   4.300   3.000
 3625TIP3   OH210819   4.032   3.690   1.781
 3625TIP3    H110820   4.088   3.747   1.832
 3625TIP3    H210821   4.056   3.707   1.690
 3626TIP3   OH210822   3.452   3.912   3.154
 3626TIP3    H110823   3.462   3.997   3.197
 3626TIP3    H210824   3.361   3.888   3.169
 3627TIP3   OH210825   3.779   4.363   2.056
 3627TIP3    H110826   3.859   4.414   2.066
 3627TIP3    H210827   3.717   4.424   2.016
 3628TIP3   OH210828   3.490   4.518   3.138
 3628TIP3    H110829   3.456   4.520   3.049
 3628TIP3    H210830   3.413   4.499   3.193
 3629TIP3   OH210831   4.546   2.927   1.832
 3629TIP3    H110832   4.466   2.945   1.881
 3629TIP3    H210833   4.562   3.007   1.782
 3630TIP3   OH210834   3.290   3.669   2.174
 3630TIP3    H110835   3.222   3.712   2.122
 3630TIP3    H210836   3.256   3.581   2.191
 3631TIP3   OH210837   4.349   4.294   1.379
 3631TIP3    H110838   4.355   4.388   1.365
 3631TIP3    H210839   4.439   4.262   1.367
 3632TIP3   OH210840   3.071   4.052   3.084
 3632TIP3    H110841   3.005   4.030   3.018
 3632TIP3    H210842   3.108   3.967   3.109
 3633TIP3   OH210843   2.927   4.248   2.714
 3633TIP3    H110844   3.022   4.237   2.706
 3633TIP3    H210845   2.917   4.322   2.773
 3634TIP3   OH210846   4.786   4.698   2.775
 3634TIP3    H110847   4.789   4.603   2.789
 3634TIP3    H210848   4.706   4.725   2.819
 3635TIP3   OH210849   3.891   4.485   2.908
 3635TIP3    H110850   3.892   4.575   2.940
 3635TIP3    H210851   3.824   4.442   2.960
 3636TIP3   OH210852   3.659   4.612   1.859
 3636TIP3    H110853   3.612   4.593   1.778
 3636TIP3    H210854   3.625   4.697   1.887
 3637TIP3   OH210855   3.095   4.457   2.249
 3637TIP3    H110856   3.142   4.452   2.332
 3637TIP3    H210857   3.045   4.376   2.244
 3638TIP3   OH210858   3.859   4.513   1.499
 3638TIP3    H110859   3.915   4.444   1.463
 3638TIP3    H210860   3.891   4.524   1.589
 3639TIP3   OH210861   3.909   4.562   1.770
 3639TIP3    H110862   3.821   4.571   1.808
 3639TIP3    H210863   3.961   4.522   1.840
 3640TIP3   OH210864   4.680   3.826   3.047
 3640TIP3    H110865   4.594   3.837   3.007
 3640TIP3    H210866   4.697   3.732   3.043
 3641TIP3   OH210867   3.275   4.234   3.072
 3641TIP3    H110868   3.325   4.220   3.153
 3641TIP3    H210869   3.202   4.173   3.078
 3642TIP3   OH210870   3.672   3.059   2.861
 3642TIP3    H110871   3.587   3.027   2.829
 3642TIP3    H210872   3.650   3.139   2.909
 3643TIP3   OH210873   4.210   3.170   3.054
 3643TIP3    H110874   4.278   3.147   3.117
 3643TIP3    H210875   4.128   3.154   3.101
 3644TIP3   OH210876   4.445   3.605   2.974
 3644TIP3    H110877   4.396   3.600   3.056
 3644TIP3    H210878   4.422   3.691   2.938
 3645TIP3   OH210879   4.109   3.730   1.525
 3645TIP3    H110880   4.072   3.706   1.440
 3645TIP3    H210881   4.192   3.774   1.503
 3646TIP3   OH210882   3.819   3.104   1.831
 3646TIP3    H110883   3.786   3.104   1.921
 3646TIP3    H210884   3.781   3.025   1.792
 3647TIP3   OH210885   3.605   3.577   2.877
 3647TIP3    H110886   3.559   3.596   2.959
 3647TIP3    H210887   3.591   3.656   2.824
 3648TIP3   OH210888   3.488   3.460   2.389
 3648TIP3    H110889   3.399   3.435   2.411
 3648TIP3    H210890   3.503   3.421   2.302
 3649TIP3   OH210891   3.981   3.547   2.119
 3649TIP3    H110892   3.930   3.616   2.077
 3649TIP3    H210893   4.036   3.512   2.048
 3650TIP3   OH210894   4.157   3.819   3.201
 3650TIP3    H110895   4.132   3.750   3.263
 3650TIP3    H210896   4.248   3.839   3.223
 3651TIP3   OH210897   4.136   3.570   2.352
 3651TIP3    H110898   4.073   3.601   2.287
 3651TIP3    H210899   4.175   3.492   2.313
 3652TIP3   OH210900   3.425   3.601   3.087
 3652TIP3    H110901   3.459   3.665   3.150
 3652TIP3    H210902   3.414   3.521   3.137
 3653TIP3   OH210903   3.475   3.084   1.796
 3653TIP3    H110904   3.467   3.079   1.892
 3653TIP3    H210905   3.399   3.134   1.768
 3654TIP3   OH210906   3.021   3.126   2.665
 3654TIP3    H110907   3.094   3.156   2.719
 3654TIP3    H210908   3.062   3.094   2.585
 3655TIP3   OH210909   2.984   3.106   2.183
 3655TIP3    H110910   3.033   3.138   2.107
 3655TIP3    H210911   2.923   3.177   2.204
 3656TIP3   OH210912   4.147   3.816   2.777
 3656TIP3    H110913   4.181   3.749   2.717
 3656TIP3    H210914   4.118   3.767   2.854
 3657TIP3   OH210915   3.822   3.281   2.452
 3657TIP3    H110916   3.741   3.281   2.503
 3657TIP3    H210917   3.891   3.277   2.518
 3658TIP3   OH210918   3.251   3.339   2.457
 3658TIP3    H110919   3.160   3.347   2.431
 3658TIP3    H210920   3.275   3.248   2.436
 3659TIP3   OH210921   3.517   3.334   2.148
 3659TIP3    H110922   3.610   3.348   2.127
 3659TIP3    H210923   3.471   3.355   2.067
 3660TIP3   OH210924   4.308   3.357   2.652
 3660TIP3    H110925   4.284   3.372   2.743
 3660TIP3    H210926   4.241   3.298   2.618
 3661TIP3   OH210927   3.366   3.371   1.923
 3661TIP3    H110928   3.295   3.324   1.880
 3661TIP3    H210929   3.418   3.407   1.851
 3662TIP3   OH210930   4.485   5.048   2.874
 3662TIP3    H110931   4.482   5.072   2.782
 3662TIP3    H210932   4.563   5.093   2.907
 3663TIP3   OH210933   3.439   4.160   3.296
 3663TIP3    H110934   3.519   4.188   3.341
 3663TIP3    H210935   3.374   4.155   3.365
 3664TIP3   OH210936   3.900   3.612   2.551
 3664TIP3    H110937   3.973   3.572   2.503
 3664TIP3    H210938   3.902   3.571   2.637
 3665TIP3   OH210939   3.419   3.095   2.433
 3665TIP3    H110940   3.382   3.022   2.482
 3665TIP3    H210941   3.465   3.054   2.360
 3666TIP3   OH210942   3.877   3.515   2.837
 3666TIP3    H110943   3.788   3.548   2.853
 3666TIP3    H210944   3.933   3.573   2.887
 3667TIP3   OH210945   3.611   3.897   1.934
 3667TIP3    H110946   3.542   3.832   1.920
 3667TIP3    H210947   3.594   3.931   2.022
 3668TIP3   OH210948   4.511   4.135   2.558
 3668TIP3    H110949   4.535   4.185   2.480
 3668TIP3    H210950   4.429   4.092   2.535
 3669TIP3   OH210951   4.069   3.210   1.799
 3669TIP3    H110952   3.976   3.189   1.809
 3669TIP3    H210953   4.075   3.302   1.825
 3670TIP3   OH210954   4.015   4.219   2.932
 3670TIP3    H110955   4.045   4.196   3.020
 3670TIP3    H210956   3.973   4.304   2.943
 3671TIP3   OH210957   4.140   3.460   1.902
 3671TIP3    H110958   4.234   3.465   1.918
 3671TIP3    H210959   4.120   3.539   1.852
 3672TIP3   OH210960   3.308   3.921   2.607
 3672TIP3    H110961   3.345   3.893   2.523
 3672TIP3    H210962   3.350   3.865   2.672
 3673TIP3   OH210963   3.756   4.048   1.757
 3673TIP3    H110964   3.711   4.132   1.759
 3673TIP3    H210965   3.705   3.992   1.816
 3674TIP3   OH210966   3.188   3.842   3.224
 3674TIP3    H110967   3.215   3.832   3.315
 3674TIP3    H210968   3.122   3.774   3.211
 3675TIP3   OH210969   3.919   3.959   3.234
 3675TIP3    H110970   3.856   3.897   3.196
 3675TIP3    H210971   4.005   3.924   3.211
 3676TIP3   OH210972   4.170   4.483   2.825
 3676TIP3    H110973   4.075   4.476   2.839
 3676TIP3    H210974   4.201   4.530   2.902
 3677TIP3   OH210975   4.579   3.553   1.732
 3677TIP3    H110976   4.519   3.506   1.673
 3677TIP3    H210977   4.579   3.643   1.698
 3678TIP3   OH210978   4.800   4.410   2.812
 3678TIP3    H110979   4.705   4.404   2.808
 3678TIP3    H210980   4.829   4.379   2.726
 3679TIP3   OH210981   4.287   4.368   1.646
 3679TIP3    H110982   4.256   4.302   1.708
 3679TIP3    H210983   4.296   4.321   1.563
 3680TIP3   OH210984   4.278   3.997   2.474
 3680TIP3    H110985   4.186   3.975   2.492
 3680TIP3    H210986   4.313   3.918   2.432
 3681TIP3   OH210987   3.407   4.227   2.232
 3681TIP3    H110988   3.405   4.307   2.179
 3681TIP3    H210989   3.315   4.206   2.249
 3682TIP3   OH210990   2.971   3.531   1.942
 3682TIP3    H110991   3.017   3.612   1.961
 3682TIP3    H210992   2.895   3.531   2.000
 3683TIP3   OH210993   3.539   3.990   2.177
 3683TIP3    H110994   3.508   4.078   2.195
 3683TIP3    H210995   3.508   3.937   2.250
 3684TIP3   OH210996   3.681   4.568   2.702
 3684TIP3    H110997   3.722   4.640   2.654
 3684TIP3    H210998   3.752   4.529   2.752
 3685TIP3   OH210999   3.323   4.468   2.086
 3685TIP3    H111000   3.239   4.472   2.133
 3685TIP3    H211001   3.357   4.557   2.089
 3686TIP3   OH211002   4.063   4.202   2.665
 3686TIP3    H111003   4.049   4.204   2.760
 3686TIP3    H211004   4.142   4.149   2.653
 3687TIP3   OH211005   4.042   4.099   1.548
 3687TIP3    H111006   4.096   4.074   1.623
 3687TIP3    H211007   3.953   4.070   1.572
 3688TIP3   OH211008   4.311   4.732   2.712
 3688TIP3    H111009   4.236   4.674   2.712
 3688TIP3    H211010   4.294   4.795   2.641
 3689TIP3   OH211011   4.377   4.571   1.363
 3689TIP3    H111012   4.415   4.641   1.310
 3689TIP3    H211013   4.298   4.609   1.401
 3690TIP3   OH211014   3.396   3.345   3.228
 3690TIP3    H111015   3.301   3.349   3.241
 3690TIP3    H211016   3.428   3.295   3.304
 3691TIP3   OH211017   4.205   4.027   1.759
 3691TIP3    H111018   4.190   3.964   1.831
 3691TIP3    H211019   4.300   4.026   1.747
 3692TIP3   OH211020   3.116   4.428   2.862
 3692TIP3    H111021   3.169   4.355   2.896
 3692TIP3    H211022   3.139   4.502   2.918
 3693TIP3   OH211023   3.404   4.074   1.547
 3693TIP3    H111024   3.417   3.984   1.518
 3693TIP3    H211025   3.383   4.067   1.640
 3694TIP3   OH211026   3.349   4.084   1.818
 3694TIP3    H111027   3.421   4.053   1.873
 3694TIP3    H211028   3.352   4.179   1.826
 3695TIP3   OH211029   3.081   3.775   2.022
 3695TIP3    H111030   3.016   3.816   2.079
 3695TIP3    H211031   3.097   3.840   1.953
 3696TIP3   OH211032   4.244   3.404   2.911
 3696TIP3    H111033   4.316   3.449   2.955
 3696TIP3    H211034   4.227   3.327   2.965
 3697TIP3   OH211035   4.119   3.160   2.081
 3697TIP3    H111036   4.104   3.179   1.989
 3697TIP3    H211037   4.158   3.240   2.117
 3698TIP3   OH211038   3.615   4.279   1.765
 3698TIP3    H111039   3.530   4.299   1.803
 3698TIP3    H211040   3.633   4.352   1.705
 3699TIP3   OH211041   3.803   3.345   2.183
 3699TIP3    H111042   3.865   3.416   2.165
 3699TIP3    H211043   3.807   3.333   2.278
 3700TIP3   OH211044   4.077   3.659   2.988
 3700TIP3    H111045   4.097   3.714   3.063
 3700TIP3    H211046   4.127   3.578   3.003
 3701TIP3   OH211047   3.947   3.065   2.280
 3701TIP3    H111048   3.937   3.140   2.339
 3701TIP3    H211049   4.008   3.096   2.213
 3702TIP3   OH211050   3.362   4.356   1.836
 3702TIP3    H111051   3.332   4.423   1.774
 3702TIP3    H211052   3.346   4.395   1.922
 3703TIP3   OH211053   3.462   3.070   2.072
 3703TIP3    H111054   3.456   3.158   2.110
 3703TIP3    H211055   3.556   3.048   2.077
 3704TIP3   OH211056   4.710   3.558   2.967
 3704TIP3    H111057   4.615   3.560   2.979
 3704TIP3    H211058   4.722   3.514   2.883
 3705TIP3   OH211059   4.365   3.751   2.357
 3705TIP3    H111060   4.288   3.696   2.370
 3705TIP3    H211061   4.435   3.707   2.405
 3706TIP3   OH211062   3.082   3.979   1.823
 3706TIP3    H111063   3.150   4.045   1.837
 3706TIP3    H211064   3.120   3.919   1.758
 3707TIP3   OH211065   3.020   3.260   1.960
 3707TIP3    H111066   3.022   3.355   1.958
 3707TIP3    H211067   2.940   3.236   1.913
 3708TIP3   OH211068   4.335   4.716   2.301
 3708TIP3    H111069   4.290   4.760   2.229
 3708TIP3    H211070   4.428   4.731   2.284
 3709TIP3   OH211071   3.409   2.978   2.828
 3709TIP3    H111072   3.379   2.946   2.744
 3709TIP3    H211073   3.401   2.903   2.887
 3710TIP3   OH211074   2.945   4.199   2.208
 3710TIP3    H111075   2.883   4.226   2.277
 3710TIP3    H211076   2.911   4.240   2.128
 3711TIP3   OH211077   3.111   4.744   3.286
 3711TIP3    H111078   3.195   4.748   3.332
 3711TIP3    H211079   3.090   4.651   3.282
 3712TIP3   OH211080   3.584   4.702   3.324
 3712TIP3    H111081   3.676   4.684   3.340
 3712TIP3    H211082   3.559   4.641   3.255
 3713TIP3   OH211083   3.567   4.275   1.455
 3713TIP3    H111084   3.511   4.208   1.494
 3713TIP3    H211085   3.643   4.226   1.423
 3714TIP3   OH211086   4.231   4.609   3.059
 3714TIP3    H111087   4.217   4.540   3.125
 3714TIP3    H211088   4.303   4.661   3.094
 3715TIP3   OH211089   4.004   4.316   1.371
 3715TIP3    H111090   4.040   4.251   1.431
 3715TIP3    H211091   4.060   4.311   1.293
 3716TIP3   OH211092   3.235   4.147   3.482
 3716TIP3    H111093   3.252   4.054   3.497
 3716TIP3    H211094   3.150   4.148   3.438
 3717TIP3   OH211095   3.218   3.793   1.681
 3717TIP3    H111096   3.270   3.762   1.755
 3717TIP3    H211097   3.280   3.798   1.608
 3718TIP3   OH211098   3.843   4.233   3.259
 3718TIP3    H111099   3.802   4.252   3.174
 3718TIP3    H211100   3.876   4.143   3.250
 3719TIP3   OH211101   3.730   3.994   1.489
 3719TIP3    H111102   3.730   4.008   1.583
 3719TIP3    H211103   3.730   3.899   1.479
 3720TIP3   OH211104   4.335   4.245   2.864
 3720TIP3    H111105   4.411   4.287   2.822
 3720TIP3    H211106   4.263   4.307   2.852
 3721TIP3   OH211107   3.361   3.874   3.458
 3721TIP3    H111108   3.440   3.824   3.436
 3721TIP3    H211109   3.374   3.903   3.548
 3722TIP3   OH211110   3.418   3.700   1.898
 3722TIP3    H111111   3.392   3.663   1.983
 3722TIP3    H211112   3.456   3.627   1.850
 3723TIP3   OH211113   3.688   3.763   3.124
 3723TIP3    H111114   3.614   3.823   3.129
 3723TIP3    H211115   3.741   3.796   3.051
 3724TIP3   OH211116   3.525   3.497   1.737
 3724TIP3    H111117   3.497   3.504   1.646
 3724TIP3    H211118   3.620   3.499   1.734
 3725TIP3   OH211119   4.207   4.164   3.260
 3725TIP3    H111120   4.289   4.136   3.220
 3725TIP3    H211121   4.196   4.106   3.335
 3726TIP3   OH211122   4.340   3.825   1.404
 3726TIP3    H111123   4.322   3.778   1.323
 3726TIP3    H211124   4.309   3.914   1.388
 3727TIP3   OH211125   3.815   3.553   3.249
 3727TIP3    H111126   3.816   3.476   3.193
 3727TIP3    H211127   3.772   3.620   3.196
 3728TIP3   OH211128   3.817   3.339   3.058
 3728TIP3    H111129   3.845   3.382   2.977
 3728TIP3    H211130   3.725   3.318   3.043
 3729TIP3   OH211131   3.839   3.872   2.931
 3729TIP3    H111132   3.926   3.887   2.894
 3729TIP3    H211133   3.783   3.937   2.889
 3730TIP3   OH211134   4.421   3.837   3.310
 3730TIP3    H111135   4.467   3.760   3.343
 3730TIP3    H211136   4.490   3.897   3.284
 3731TIP3   OH211137   4.467   4.095   3.045
 3731TIP3    H111138   4.407   4.148   2.992
 3731TIP3    H211139   4.554   4.115   3.010
 3732TIP3   OH211140   3.683   3.660   3.470
 3732TIP3    H111141   3.620   3.593   3.496
 3732TIP3    H211142   3.724   3.626   3.391
 3733TIP3   OH211143   3.945   3.102   3.131
 3733TIP3    H111144   3.900   3.184   3.108
 3733TIP3    H211145   3.879   3.034   3.120
 3734TIP3   OH211146   4.074   3.604   3.349
 3734TIP3    H111147   4.069   3.595   3.444
 3734TIP3    H211148   3.986   3.581   3.318
 3735TIP3   OH211149   4.309   3.548   3.199
 3735TIP3    H111150   4.237   3.556   3.262
 3735TIP3    H211151   4.385   3.523   3.253
 3736TIP3   OH211152   4.544   3.493   3.343
 3736TIP3    H111153   4.556   3.400   3.363
 3736TIP3    H211154   4.535   3.536   3.428
 3737TIP3   OH211155   3.531   3.438   3.539
 3737TIP3    H111156   3.538   3.347   3.512
 3737TIP3    H211157   3.562   3.439   3.630
 3738TIP3   OH211158   4.039   3.108   3.390
 3738TIP3    H111159   4.107   3.041   3.385
 3738TIP3    H211160   3.999   3.108   3.303
 3739TIP3   OH211161   4.104   3.328   3.549
 3739TIP3    H111162   4.084   3.259   3.486
 3739TIP3    H211163   4.028   3.386   3.545
 3740TIP3   OH211164   3.334   4.560   1.646
 3740TIP3    H111165   3.427   4.547   1.630
 3740TIP3    H211166   3.302   4.609   1.570
 3741TIP3   OH211167   2.812   3.939   1.858
 3741TIP3    H111168   2.904   3.960   1.846
 3741TIP3    H211169   2.802   3.851   1.821
 3742TIP3   OH211170   2.727   4.548   2.280
 3742TIP3    H111171   2.661   4.490   2.240
 3742TIP3    H211172   2.771   4.492   2.344
 3743TIP3   OH211173   2.861   4.396   2.468
 3743TIP3    H111174   2.848   4.325   2.531
 3743TIP3    H211175   2.913   4.461   2.515
 3744TIP3   OH211176   4.590   4.803   2.266
 3744TIP3    H111177   4.613   4.828   2.355
 3744TIP3    H211178   4.657   4.844   2.211
 3745TIP3   OH211179   4.618   4.817   2.547
 3745TIP3    H111180   4.569   4.735   2.541
 3745TIP3    H211181   4.691   4.797   2.606
 3746TIP3   OH211182   4.663   4.501   3.122
 3746TIP3    H111183   4.590   4.506   3.184
 3746TIP3    H211184   4.705   4.586   3.127
 3747TIP3   OH211185   4.483   4.010   1.739
 3747TIP3    H111186   4.547   4.075   1.709
 3747TIP3    H211187   4.524   3.972   1.817
 3748TIP3   OH211188   4.608   3.878   1.945
 3748TIP3    H111189   4.542   3.837   2.000
 3748TIP3    H211190   4.672   3.914   2.006
 3749TIP3   OH211191   4.666   4.273   2.372
 3749TIP3    H111192   4.716   4.204   2.329
 3749TIP3    H211193   4.657   4.342   2.306
 3750TIP3   OH211194   4.489   4.573   2.565
 3750TIP3    H111195   4.420   4.612   2.620
 3750TIP3    H211196   4.441   4.526   2.497
 3751TIP3   OH211197   4.542   3.788   1.587
 3751TIP3    H111198   4.474   3.787   1.519
 3751TIP3    H211199   4.518   3.861   1.644
 3752TIP3   OH211200   4.416   3.456   1.538
 3752TIP3    H111201   4.368   3.494   1.463
 3752TIP3    H211202   4.396   3.363   1.533
 3753TIP3   OH211203   4.420   3.736   2.089
 3753TIP3    H111204   4.427   3.641   2.079
 3753TIP3    H211205   4.405   3.750   2.182
 3754TIP3   OH211206   3.047   3.809   2.834
 3754TIP3    H111207   3.042   3.775   2.745
 3754TIP3    H211208   3.141   3.811   2.853
 3755TIP3   OH211209   4.714   4.161   2.944
 3755TIP3    H111210   4.782   4.094   2.934
 3755TIP3    H211211   4.739   4.229   2.881
 3756TIP3   OH211212   4.895   3.959   2.953
 3756TIP3    H111213   4.820   3.915   2.991
 3756TIP3    H211214   4.969   3.900   2.969
 3757TIP3   OH211215   4.359   3.191   1.524
 3757TIP3    H111216   4.429   3.160   1.581
 3757TIP3    H211217   4.284   3.136   1.545
 3758TIP3   OH211218   4.420   3.450   1.979
 3758TIP3    H111219   4.457   3.363   1.996
 3758TIP3    H211220   4.475   3.486   1.909
 3759TIP3   OH211221   4.579   3.623   2.478
 3759TIP3    H111222   4.661   3.645   2.434
 3759TIP3    H211223   4.588   3.658   2.566
 3760TIP3   OH211224   4.647   3.771   2.706
 3760TIP3    H111225   4.572   3.801   2.758
 3760TIP3    H211226   4.680   3.850   2.664
 3761TIP3   OH211227   3.263   3.488   3.503
 3761TIP3    H111228   3.359   3.493   3.511
 3761TIP3    H211229   3.240   3.406   3.547
 3762TIP3   OH211230   5.100   3.362   3.261
 3762TIP3    H111231   5.159   3.299   3.221
 3762TIP3    H211232   5.068   3.415   3.188
 3763TIP3   OH211233   4.526   3.200   2.021
 3763TIP3    H111234   4.574   3.187   2.103
 3763TIP3    H211235   4.465   3.127   2.017
 3764TIP3   OH211236   3.228   3.188   2.840
 3764TIP3    H111237   3.286   3.112   2.848
 3764TIP3    H211238   3.287   3.262   2.832
 3765TIP3   OH211239   3.026   3.460   2.909
 3765TIP3    H111240   3.075   3.456   2.827
 3765TIP3    H211241   3.055   3.542   2.951
 3766TIP3   OH211242   4.965   3.499   3.067
 3766TIP3    H111243   4.886   3.544   3.096
 3766TIP3    H211244   4.934   3.427   3.012
 3767TIP3   OH211245   4.605   3.133   1.654
 3767TIP3    H111246   4.642   3.064   1.600
 3767TIP3    H211247   4.670   3.203   1.651
 3768TIP3   OH211248   3.012   2.966   2.413
 3768TIP3    H111249   2.921   2.958   2.442
 3768TIP3    H211250   3.008   3.023   2.336
 3769TIP3   OH211251   4.172   4.671   1.918
 3769TIP3    H111252   4.223   4.659   1.838
 3769TIP3    H211253   4.223   4.733   1.970
 3770TIP3   OH211254   3.229   3.040   3.226
 3770TIP3    H111255   3.182   3.039   3.309
 3770TIP3    H211256   3.168   3.081   3.165
 3771TIP3   OH211257   3.269   4.477   3.303
 3771TIP3    H111258   3.179   4.450   3.290
 3771TIP3    H211259   3.290   4.452   3.393
 3772TIP3   OH211260   3.452   4.510   2.849
 3772TIP3    H111261   3.402   4.583   2.813
 3772TIP3    H211262   3.538   4.518   2.808
 3773TIP3   OH211263   3.893   4.751   2.989
 3773TIP3    H111264   3.932   4.745   3.077
 3773TIP3    H211265   3.957   4.802   2.938
 3774TIP3   OH211266   4.075   4.904   2.851
 3774TIP3    H111267   4.142   4.849   2.811
 3774TIP3    H211268   4.122   4.960   2.912
 3775TIP3   OH211269   4.868   3.260   2.947
 3775TIP3    H111270   4.778   3.255   2.914
 3775TIP3    H211271   4.902   3.171   2.939
 3776TIP3   OH211272   3.123   4.765   2.876
 3776TIP3    H111273   3.035   4.795   2.854
 3776TIP3    H211274   3.142   4.804   2.961
 3777TIP3   OH211275   3.361   4.743   2.735
 3777TIP3    H111276   3.276   4.753   2.779
 3777TIP3    H211277   3.344   4.773   2.646
 3778TIP3   OH211278   3.788   4.770   2.532
 3778TIP3    H111279   3.717   4.785   2.469
 3778TIP3    H211280   3.799   4.854   2.576
 3779TIP3   OH211281   4.056   4.708   2.583
 3779TIP3    H111282   3.963   4.723   2.565
 3779TIP3    H211283   4.101   4.783   2.542
 3780TIP3   OH211284   4.265   4.899   2.496
 3780TIP3    H111285   4.250   4.982   2.450
 3780TIP3    H211286   4.290   4.837   2.427
 3781TIP3   OH211287   3.041   4.552   2.622
 3781TIP3    H111288   3.063   4.527   2.712
 3781TIP3    H211289   3.109   4.512   2.568
 3782TIP3   OH211290   3.236   4.427   2.481
 3782TIP3    H111291   3.246   4.344   2.528
 3782TIP3    H211292   3.324   4.463   2.477
 3783TIP3   OH211293   3.504   4.517   2.487
 3783TIP3    H111294   3.529   4.426   2.474
 3783TIP3    H211295   3.549   4.544   2.567
 3784TIP3   OH211296   4.074   3.175   2.570
 3784TIP3    H111297   4.031   3.106   2.621
 3784TIP3    H211298   4.147   3.131   2.527
 3785TIP3   OH211299   4.593   3.057   2.470
 3785TIP3    H111300   4.630   3.108   2.398
 3785TIP3    H211301   4.500   3.077   2.467
 3786TIP3   OH211302   4.693   3.157   2.235
 3786TIP3    H111303   4.764   3.104   2.199
 3786TIP3    H211304   4.722   3.248   2.223
 3787TIP3   OH211305   3.320   2.882   2.583
 3787TIP3    H111306   3.228   2.853   2.587
 3787TIP3    H211307   3.370   2.800   2.579
 3788TIP3   OH211308   3.109   2.759   2.237
 3788TIP3    H111309   3.140   2.811   2.162
 3788TIP3    H211310   3.084   2.824   2.302
 3789TIP3   OH211311   3.769   2.918   2.465
 3789TIP3    H111312   3.824   2.964   2.402
 3789TIP3    H211313   3.792   2.956   2.550
 3790TIP3   OH211314   4.310   3.064   2.448
 3790TIP3    H111315   4.310   3.026   2.360
 3790TIP3    H211316   4.299   2.988   2.506
 3791TIP3   OH211317   4.341   2.989   2.013
 3791TIP3    H111318   4.258   3.035   2.028
 3791TIP3    H211319   4.329   2.904   2.055
 3792TIP3   OH211320   2.824   4.332   2.007
 3792TIP3    H111321   2.741   4.295   1.977
 3792TIP3    H211322   2.818   4.425   1.986
 3793TIP3   OH211323   3.230   2.916   1.993
 3793TIP3    H111324   3.274   2.851   1.937
 3793TIP3    H211325   3.302   2.968   2.029
 3794TIP3   OH211326   3.739   3.094   2.095
 3794TIP3    H111327   3.795   3.042   2.153
 3794TIP3    H211328   3.759   3.185   2.119
 3795TIP3   OH211329   3.600   4.510   1.591
 3795TIP3    H111330   3.686   4.536   1.559
 3795TIP3    H211331   3.574   4.437   1.534
 3796TIP3   OH211332   4.320   4.634   1.686
 3796TIP3    H111333   4.314   4.539   1.680
 3796TIP3    H211334   4.272   4.667   1.610
 3797TIP3   OH211335   3.531   3.161   3.472
 3797TIP3    H111336   3.492   3.095   3.529
 3797TIP3    H211337   3.623   3.164   3.500
 3798TIP3   OH211338   3.780   3.158   3.592
 3798TIP3    H111339   3.866   3.145   3.551
 3798TIP3    H211340   3.773   3.087   3.656
 3799TIP3   OH211341   2.904   4.351   1.649
 3799TIP3    H111342   2.904   4.367   1.743
 3799TIP3    H211343   2.988   4.309   1.632
 3800TIP3   OH211344   4.608   3.223   3.382
 3800TIP3    H111345   4.622   3.196   3.473
 3800TIP3    H211346   4.695   3.221   3.343
 3801TIP3   OH211347   4.540   4.778   2.872
 3801TIP3    H111348   4.463   4.745   2.825
 3801TIP3    H211349   4.522   4.872   2.883
 3802TIP3   OH211350   5.809   4.153   1.635
 3802TIP3    H111351   5.781   4.243   1.617
 3802TIP3    H211352   5.735   4.099   1.607
 3803TIP3   OH211353   5.809   4.149   2.027
 3803TIP3    H111354   5.845   4.129   2.114
 3803TIP3    H211355   5.767   4.068   1.999
 3804TIP3   OH211356   5.108   4.042   2.387
 3804TIP3    H111357   5.133   3.973   2.448
 3804TIP3    H211358   5.183   4.101   2.386
 3805TIP3   OH211359   6.054   4.455   1.708
 3805TIP3    H111360   6.039   4.386   1.771
 3805TIP3    H211361   6.085   4.529   1.760
 3806TIP3   OH211362   5.081   4.454   2.107
 3806TIP3    H111363   5.070   4.359   2.108
 3806TIP3    H211364   5.176   4.466   2.107
 3807TIP3   OH211365   4.785   3.658   1.890
 3807TIP3    H111366   4.740   3.740   1.912
 3807TIP3    H211367   4.717   3.604   1.850
 3808TIP3   OH211368   4.846   3.944   2.072
 3808TIP3    H111369   4.892   3.867   2.106
 3808TIP3    H211370   4.904   3.980   2.006
 3809TIP3   OH211371   5.707   4.914   1.723
 3809TIP3    H111372   5.747   4.846   1.669
 3809TIP3    H211373   5.697   4.874   1.810
 3810TIP3   OH211374   5.610   4.378   2.069
 3810TIP3    H111375   5.645   4.299   2.027
 3810TIP3    H211376   5.688   4.427   2.096
 3811TIP3   OH211377   6.625   3.698   2.068
 3811TIP3    H111378   6.653   3.778   2.113
 3811TIP3    H211379   6.645   3.714   1.976
 3812TIP3   OH211380   6.021   3.875   2.098
 3812TIP3    H111381   6.063   3.793   2.122
 3812TIP3    H211382   5.988   3.860   2.009
 3813TIP3   OH211383   5.360   3.537   2.061
 3813TIP3    H111384   5.341   3.611   2.003
 3813TIP3    H211385   5.313   3.463   2.023
 3814TIP3   OH211386   6.058   3.629   1.686
 3814TIP3    H111387   6.124   3.613   1.754
 3814TIP3    H211388   6.108   3.664   1.612
 3815TIP3   OH211389   4.994   3.737   2.172
 3815TIP3    H111390   5.074   3.721   2.223
 3815TIP3    H211391   5.005   3.684   2.094
 3816TIP3   OH211392   5.433   3.935   1.968
 3816TIP3    H111393   5.525   3.913   1.981
 3816TIP3    H211394   5.393   3.853   1.936
 3817TIP3   OH211395   6.694   3.908   2.239
 3817TIP3    H111396   6.611   3.950   2.219
 3817TIP3    H211397   6.716   3.938   2.327
 3818TIP3   OH211398   5.352   3.521   2.502
 3818TIP3    H111399   5.296   3.558   2.433
 3818TIP3    H211400   5.303   3.536   2.583
 3819TIP3   OH211401   5.696   4.373   1.506
 3819TIP3    H111402   5.657   4.355   1.421
 3819TIP3    H211403   5.654   4.453   1.537
 3820TIP3   OH211404   5.461   4.299   2.292
 3820TIP3    H111405   5.402   4.364   2.330
 3820TIP3    H211406   5.504   4.345   2.220
 3821TIP3   OH211407   6.260   3.635   1.867
 3821TIP3    H111408   6.239   3.593   1.950
 3821TIP3    H211409   6.310   3.712   1.891
 3822TIP3   OH211410   5.230   3.636   2.283
 3822TIP3    H111411   5.287   3.708   2.310
 3822TIP3    H211412   5.276   3.595   2.209
 3823TIP3   OH211413   5.287   4.495   2.393
 3823TIP3    H111414   5.266   4.581   2.358
 3823TIP3    H211415   5.212   4.472   2.448
 3824TIP3   OH211416   4.681   4.184   1.628
 3824TIP3    H111417   4.640   4.209   1.545
 3824TIP3    H211418   4.714   4.266   1.664
 3825TIP3   OH211419   6.119   4.700   1.868
 3825TIP3    H111420   6.032   4.688   1.908
 3825TIP3    H211421   6.113   4.785   1.824
 3826TIP3   OH211422   6.416   3.594   2.231
 3826TIP3    H111423   6.329   3.623   2.202
 3826TIP3    H211424   6.476   3.628   2.164
 3827TIP3   OH211425   5.705   3.236   2.219
 3827TIP3    H111426   5.692   3.142   2.235
 3827TIP3    H211427   5.632   3.278   2.263
 3828TIP3   OH211428   5.822   4.743   1.536
 3828TIP3    H111429   5.868   4.660   1.523
 3828TIP3    H211430   5.881   4.809   1.501
 3829TIP3   OH211431   5.965   4.526   1.457
 3829TIP3    H111432   5.927   4.447   1.418
 3829TIP3    H211433   6.004   4.495   1.539
 3830TIP3   OH211434   6.347   4.608   2.211
 3830TIP3    H111435   6.335   4.530   2.156
 3830TIP3    H211436   6.330   4.682   2.152
 3831TIP3   OH211437   5.638   4.002   1.471
 3831TIP3    H111438   5.560   4.055   1.453
 3831TIP3    H211439   5.686   4.000   1.388
 3832TIP3   OH211440   5.600   3.791   1.182
 3832TIP3    H111441   5.662   3.842   1.234
 3832TIP3    H211442   5.654   3.727   1.136
 3833TIP3   OH211443   6.542   4.249   2.057
 3833TIP3    H111444   6.459   4.297   2.065
 3833TIP3    H211445   6.574   4.271   1.970
 3834TIP3   OH211446   5.989   4.085   1.443
 3834TIP3    H111447   5.934   4.109   1.517
 3834TIP3    H211448   6.073   4.061   1.483
 3835TIP3   OH211449   6.220   4.124   2.359
 3835TIP3    H111450   6.222   4.202   2.413
 3835TIP3    H211451   6.136   4.128   2.314
 3836TIP3   OH211452   5.221   4.080   1.859
 3836TIP3    H111453   5.180   4.024   1.793
 3836TIP3    H211454   5.296   4.029   1.891
 3837TIP3   OH211455   5.354   4.498   2.004
 3837TIP3    H111456   5.330   4.458   1.920
 3837TIP3    H211457   5.440   4.462   2.024
 3838TIP3   OH211458   5.357   4.054   2.213
 3838TIP3    H111459   5.390   4.029   2.126
 3838TIP3    H211460   5.399   4.138   2.232
 3839TIP3   OH211461   5.880   4.692   1.993
 3839TIP3    H111462   5.869   4.770   2.046
 3839TIP3    H211463   5.865   4.619   2.053
 3840TIP3   OH211464   5.492   4.611   2.536
 3840TIP3    H111465   5.436   4.671   2.585
 3840TIP3    H211466   5.431   4.557   2.487
 3841TIP3   OH211467   5.828   3.946   1.268
 3841TIP3    H111468   5.885   4.003   1.319
 3841TIP3    H211469   5.852   3.964   1.177
 3842TIP3   OH211470   5.247   4.167   2.641
 3842TIP3    H111471   5.256   4.253   2.683
 3842TIP3    H211472   5.156   4.143   2.656
 3843TIP3   OH211473   5.575   4.620   1.544
 3843TIP3    H111474   5.656   4.670   1.552
 3843TIP3    H211475   5.513   4.682   1.503
 3844TIP3   OH211476   5.285   4.776   2.626
 3844TIP3    H111477   5.252   4.777   2.536
 3844TIP3    H211478   5.209   4.755   2.680
 3845TIP3   OH211479   6.342   3.184   1.318
 3845TIP3    H111480   6.262   3.202   1.368
 3845TIP3    H211481   6.358   3.264   1.269
 3846TIP3   OH211482   5.087   3.925   1.659
 3846TIP3    H111483   5.018   3.968   1.608
 3846TIP3    H211484   5.051   3.838   1.678
 3847TIP3   OH211485   6.145   4.548   0.866
 3847TIP3    H111486   6.150   4.643   0.853
 3847TIP3    H211487   6.236   4.518   0.857
 3848TIP3   OH211488   4.867   4.308   2.572
 3848TIP3    H111489   4.800   4.288   2.506
 3848TIP3    H211490   4.904   4.223   2.595
 3849TIP3   OH211491   4.723   4.506   2.199
 3849TIP3    H111492   4.818   4.495   2.194
 3849TIP3    H211493   4.710   4.579   2.259
 3850TIP3   OH211494   6.583   4.954   2.262
 3850TIP3    H111495   6.586   4.859   2.276
 3850TIP3    H211496   6.503   4.982   2.306
 3851TIP3   OH211497   5.687   4.742   2.395
 3851TIP3    H111498   5.688   4.832   2.427
 3851TIP3    H211499   5.620   4.698   2.447
 3852TIP3   OH211500   5.453   4.868   1.346
 3852TIP3    H111501   5.409   4.846   1.264
 3852TIP3    H211502   5.418   4.953   1.370
 3853TIP3   OH211503   4.891   4.716   1.735
 3853TIP3    H111504   4.937   4.710   1.819
 3853TIP3    H211505   4.841   4.635   1.729
 3854TIP3   OH211506   5.655   4.769   0.989
 3854TIP3    H111507   5.710   4.700   0.952
 3854TIP3    H211508   5.688   4.780   1.078
 3855TIP3   OH211509   5.705   4.818   1.259
 3855TIP3    H111510   5.618   4.826   1.298
 3855TIP3    H211511   5.759   4.779   1.328
 3856TIP3   OH211512   6.476   4.081   2.535
 3856TIP3    H111513   6.391   4.094   2.493
 3856TIP3    H211514   6.492   3.987   2.529
 3857TIP3   OH211515   5.071   4.492   2.559
 3857TIP3    H111516   5.121   4.477   2.639
 3857TIP3    H211517   4.998   4.430   2.565
 3858TIP3   OH211518   5.468   3.317   2.348
 3858TIP3    H111519   5.383   3.283   2.317
 3858TIP3    H211520   5.446   3.396   2.396
 3859TIP3   OH211521   6.006   3.427   2.542
 3859TIP3    H111522   6.074   3.403   2.604
 3859TIP3    H211523   5.924   3.411   2.588
 3860TIP3   OH211524   6.241   3.861   2.459
 3860TIP3    H111525   6.192   3.856   2.541
 3860TIP3    H211526   6.218   3.947   2.423
 3861TIP3   OH211527   5.903   3.983   1.009
 3861TIP3    H111528   5.868   3.962   0.923
 3861TIP3    H211529   5.985   4.029   0.991
 3862TIP3   OH211530   5.615   3.361   1.319
 3862TIP3    H111531   5.583   3.361   1.409
 3862TIP3    H211532   5.577   3.282   1.280
 3863TIP3   OH211533   5.402   3.834   2.365
 3863TIP3    H111534   5.354   3.851   2.445
 3863TIP3    H211535   5.388   3.912   2.311
 3864TIP3   OH211536   5.284   3.716   1.875
 3864TIP3    H111537   5.195   3.692   1.898
 3864TIP3    H211538   5.299   3.677   1.790
 3865TIP3   OH211539   5.777   3.803   1.605
 3865TIP3    H111540   5.726   3.873   1.564
 3865TIP3    H211541   5.832   3.769   1.535
 3866TIP3   OH211542   5.952   4.076   2.689
 3866TIP3    H111543   5.928   4.007   2.751
 3866TIP3    H211544   6.043   4.097   2.712
 3867TIP3   OH211545   5.932   3.826   1.840
 3867TIP3    H111546   5.869   3.858   1.775
 3867TIP3    H211547   5.970   3.748   1.800
 3868TIP3   OH211548   5.222   3.858   2.573
 3868TIP3    H111549   5.252   3.922   2.638
 3868TIP3    H211550   5.210   3.777   2.623
 3869TIP3   OH211551   5.271   3.340   1.283
 3869TIP3    H111552   5.264   3.336   1.378
 3869TIP3    H211553   5.195   3.391   1.255
 3870TIP3   OH211554   4.816   3.380   2.152
 3870TIP3    H111555   4.888   3.413   2.206
 3870TIP3    H211556   4.859   3.349   2.072
 3871TIP3   OH211557   4.781   3.364   1.670
 3871TIP3    H111558   4.828   3.396   1.593
 3871TIP3    H211559   4.720   3.434   1.692
 3872TIP3   OH211560   5.941   4.072   2.263
 3872TIP3    H111561   5.977   4.005   2.204
 3872TIP3    H211562   5.913   4.023   2.340
 3873TIP3   OH211563   5.618   3.538   1.939
 3873TIP3    H111564   5.537   3.537   1.990
 3873TIP3    H211565   5.687   3.533   2.004
 3874TIP3   OH211566   5.047   3.596   1.943
 3874TIP3    H111567   4.956   3.604   1.918
 3874TIP3    H211568   5.070   3.505   1.923
 3875TIP3   OH211569   5.313   3.590   1.635
 3875TIP3    H111570   5.406   3.605   1.615
 3875TIP3    H211571   5.267   3.612   1.555
 3876TIP3   OH211572   6.104   3.614   2.139
 3876TIP3    H111573   6.079   3.629   2.231
 3876TIP3    H211574   6.037   3.555   2.105
 3877TIP3   OH211575   5.163   3.626   1.410
 3877TIP3    H111576   5.091   3.581   1.367
 3877TIP3    H211577   5.214   3.663   1.338
 3878TIP3   OH211578   6.281   5.306   2.361
 3878TIP3    H111579   6.278   5.327   2.268
 3878TIP3    H211580   6.359   5.350   2.393
 3879TIP3   OH211581   5.235   4.417   2.782
 3879TIP3    H111582   5.315   4.443   2.827
 3879TIP3    H211583   5.169   4.411   2.851
 3880TIP3   OH211584   5.696   3.868   2.037
 3880TIP3    H111585   5.769   3.829   1.990
 3880TIP3    H211586   5.699   3.826   2.124
 3881TIP3   OH211587   5.215   3.352   1.919
 3881TIP3    H111588   5.178   3.279   1.969
 3881TIP3    H211589   5.262   3.310   1.848
 3882TIP3   OH211590   5.673   3.771   2.323
 3882TIP3    H111591   5.584   3.804   2.340
 3882TIP3    H211592   5.729   3.829   2.373
 3883TIP3   OH211593   5.407   4.153   1.421
 3883TIP3    H111594   5.338   4.088   1.407
 3883TIP3    H211595   5.390   4.188   1.509
 3884TIP3   OH211596   6.308   4.391   2.044
 3884TIP3    H111597   6.333   4.441   1.967
 3884TIP3    H211598   6.225   4.350   2.021
 3885TIP3   OH211599   5.865   3.468   1.282
 3885TIP3    H111600   5.772   3.447   1.294
 3885TIP3    H211601   5.873   3.559   1.311
 3886TIP3   OH211602   5.809   4.475   2.419
 3886TIP3    H111603   5.842   4.453   2.506
 3886TIP3    H211604   5.769   4.561   2.429
 3887TIP3   OH211605   5.936   3.716   1.388
 3887TIP3    H111606   6.030   3.721   1.405
 3887TIP3    H211607   5.917   3.796   1.339
 3888TIP3   OH211608   5.105   4.179   2.093
 3888TIP3    H111609   5.142   4.149   2.010
 3888TIP3    H211610   5.145   4.122   2.159
 3889TIP3   OH211611   5.553   4.304   1.243
 3889TIP3    H111612   5.507   4.388   1.245
 3889TIP3    H211613   5.502   4.248   1.302
 3890TIP3   OH211614   4.985   4.095   2.711
 3890TIP3    H111615   5.004   4.084   2.804
 3890TIP3    H211616   4.916   4.032   2.692
 3891TIP3   OH211617   5.713   4.214   2.726
 3891TIP3    H111618   5.651   4.153   2.686
 3891TIP3    H211619   5.799   4.180   2.701
 3892TIP3   OH211620   5.966   4.739   2.314
 3892TIP3    H111621   5.871   4.732   2.327
 3892TIP3    H211622   5.997   4.787   2.391
 3893TIP3   OH211623   6.374   3.810   1.220
 3893TIP3    H111624   6.316   3.762   1.161
 3893TIP3    H211625   6.375   3.900   1.185
 3894TIP3   OH211626   6.596   4.665   2.299
 3894TIP3    H111627   6.501   4.660   2.296
 3894TIP3    H211628   6.625   4.635   2.213
 3895TIP3   OH211629   6.079   4.624   1.131
 3895TIP3    H111630   6.054   4.554   1.191
 3895TIP3    H211631   6.094   4.580   1.047
 3896TIP3   OH211632   6.074   4.254   1.960
 3896TIP3    H111633   5.982   4.232   1.978
 3896TIP3    H211634   6.109   4.175   1.919
 3897TIP3   OH211635   5.203   4.483   1.719
 3897TIP3    H111636   5.200   4.563   1.666
 3897TIP3    H211637   5.111   4.462   1.737
 3898TIP3   OH211638   4.768   3.787   1.430
 3898TIP3    H111639   4.813   3.869   1.449
 3898TIP3    H211640   4.692   3.787   1.487
 3899TIP3   OH211641   5.335   4.246   1.664
 3899TIP3    H111642   5.304   4.335   1.682
 3899TIP3    H211643   5.304   4.194   1.737
 3900TIP3   OH211644   5.477   4.825   2.189
 3900TIP3    H111645   5.519   4.896   2.140
 3900TIP3    H211646   5.548   4.785   2.239
 3901TIP3   OH211647   5.118   4.726   1.572
 3901TIP3    H111648   5.035   4.728   1.621
 3901TIP3    H211649   5.150   4.816   1.575
 3902TIP3   OH211650   5.860   4.459   2.152
 3902TIP3    H111651   5.845   4.460   2.247
 3902TIP3    H211652   5.939   4.407   2.140
 3903TIP3   OH211653   5.838   4.351   1.036
 3903TIP3    H111654   5.893   4.328   1.111
 3903TIP3    H211655   5.749   4.325   1.062
 3904TIP3   OH211656   6.107   4.990   2.199
 3904TIP3    H111657   6.031   4.932   2.197
 3904TIP3    H211658   6.091   5.053   2.128
 3905TIP3   OH211659   6.172   4.823   0.853
 3905TIP3    H111660   6.200   4.876   0.779
 3905TIP3    H211661   6.098   4.871   0.891
 3906TIP3   OH211662   5.192   3.601   2.715
 3906TIP3    H111663   5.097   3.607   2.728
 3906TIP3    H211664   5.223   3.549   2.789
 3907TIP3   OH211665   6.001   4.283   1.248
 3907TIP3    H111666   5.987   4.219   1.319
 3907TIP3    H211667   6.096   4.282   1.234
 3908TIP3   OH211668   4.913   4.685   2.349
 3908TIP3    H111669   4.965   4.611   2.382
 3908TIP3    H211670   4.934   4.757   2.407
 3909TIP3   OH211671   5.200   4.331   1.034
 3909TIP3    H111672   5.213   4.241   1.005
 3909TIP3    H211673   5.180   4.324   1.128
 3910TIP3   OH211674   5.145   4.340   1.305
 3910TIP3    H111675   5.217   4.309   1.360
 3910TIP3    H211676   5.148   4.436   1.312
 3911TIP3   OH211677   4.878   4.032   1.509
 3911TIP3    H111678   4.812   4.072   1.566
 3911TIP3    H211679   4.893   4.097   1.440
 3912TIP3   OH211680   6.039   3.662   2.399
 3912TIP3    H111681   6.113   3.706   2.440
 3912TIP3    H211682   6.023   3.585   2.453
 3913TIP3   OH211683   5.916   3.417   1.567
 3913TIP3    H111684   5.902   3.438   1.475
 3913TIP3    H211685   5.955   3.496   1.605
 3914TIP3   OH211686   5.412   4.535   1.252
 3914TIP3    H111687   5.327   4.558   1.290
 3914TIP3    H211688   5.430   4.606   1.190
 3915TIP3   OH211689   5.599   3.601   1.670
 3915TIP3    H111690   5.661   3.672   1.652
 3915TIP3    H211691   5.603   3.590   1.765
 3916TIP3   OH211692   5.873   3.915   2.474
 3916TIP3    H111693   5.893   3.970   2.550
 3916TIP3    H211694   5.924   3.835   2.488
 3917TIP3   OH211695   5.743   3.322   1.767
 3917TIP3    H111696   5.735   3.395   1.828
 3917TIP3    H211697   5.804   3.353   1.700
 3918TIP3   OH211698   5.159   4.614   1.322
 3918TIP3    H111699   5.128   4.681   1.261
 3918TIP3    H211700   5.142   4.651   1.409
 3919TIP3   OH211701   5.259   3.327   1.558
 3919TIP3    H111702   5.252   3.414   1.597
 3919TIP3    H211703   5.353   3.305   1.565
 3920TIP3   OH211704   6.506   3.814   2.456
 3920TIP3    H111705   6.411   3.815   2.466
 3920TIP3    H211706   6.520   3.775   2.370
 3921TIP3   OH211707   6.161   4.008   1.844
 3921TIP3    H111708   6.085   3.952   1.857
 3921TIP3    H211709   6.231   3.964   1.891
 3922TIP3   OH211710   4.879   4.235   1.310
 3922TIP3    H111711   4.946   4.302   1.323
 3922TIP3    H211712   4.916   4.176   1.245
 3923TIP3   OH211713   4.816   3.516   1.444
 3923TIP3    H111714   4.818   3.611   1.445
 3923TIP3    H211715   4.733   3.494   1.402
 3924TIP3   OH211716   6.131   4.972   1.788
 3924TIP3    H111717   6.086   5.017   1.717
 3924TIP3    H211718   6.224   4.988   1.771
 3925TIP3   OH211719   5.206   3.233   2.316
 3925TIP3    H111720   5.176   3.201   2.231
 3925TIP3    H211721   5.196   3.158   2.375
 3926TIP3   OH211722   4.741   4.457   1.695
 3926TIP3    H111723   4.681   4.483   1.764
 3926TIP3    H211724   4.706   4.498   1.616
 3927TIP3   OH211725   4.907   5.000   2.771
 3927TIP3    H111726   4.990   5.003   2.817
 3927TIP3    H211727   4.883   4.908   2.769
 3928TIP3   OH211728   5.382   4.958   2.811
 3928TIP3    H111729   5.474   4.938   2.825
 3928TIP3    H211730   5.354   4.897   2.743
 3929TIP3   OH211731   5.364   4.532   0.943
 3929TIP3    H111732   5.308   4.464   0.981
 3929TIP3    H211733   5.440   4.484   0.911
 3930TIP3   OH211734   6.024   4.865   2.550
 3930TIP3    H111735   6.013   4.797   2.616
 3930TIP3    H211736   6.099   4.916   2.580
 3931TIP3   OH211737   5.798   4.573   0.861
 3931TIP3    H111738   5.840   4.511   0.920
 3931TIP3    H211739   5.852   4.572   0.782
 3932TIP3   OH211740   5.031   4.403   2.970
 3932TIP3    H111741   5.048   4.310   2.981
 3932TIP3    H211742   4.946   4.407   2.926
 3933TIP3   OH211743   5.014   4.050   1.168
 3933TIP3    H111744   5.066   4.019   1.242
 3933TIP3    H211745   5.076   4.055   1.095
 3934TIP3   OH211746   5.639   4.490   2.744
 3934TIP3    H111747   5.599   4.508   2.659
 3934TIP3    H211748   5.671   4.399   2.737
 3935TIP3   OH211749   5.524   4.250   0.975
 3935TIP3    H111750   5.526   4.265   1.070
 3935TIP3    H211751   5.524   4.155   0.965
 3936TIP3   OH211752   6.130   4.503   2.350
 3936TIP3    H111753   6.207   4.543   2.309
 3936TIP3    H211754   6.060   4.567   2.337
 3937TIP3   OH211755   5.157   4.141   2.955
 3937TIP3    H111756   5.229   4.083   2.931
 3937TIP3    H211757   5.180   4.174   3.042
 3938TIP3   OH211758   5.215   3.957   1.385
 3938TIP3    H111759   5.188   3.921   1.470
 3938TIP3    H211760   5.252   3.883   1.338
 3939TIP3   OH211761   5.486   4.022   2.613
 3939TIP3    H111762   5.410   4.080   2.615
 3939TIP3    H211763   5.538   4.054   2.539
 3940TIP3   OH211764   5.321   3.753   1.224
 3940TIP3    H111765   5.293   3.761   1.133
 3940TIP3    H211766   5.416   3.756   1.220
 3941TIP3   OH211767   6.004   4.421   2.747
 3941TIP3    H111768   6.088   4.397   2.709
 3941TIP3    H211769   5.994   4.363   2.823
 3942TIP3   OH211770   6.135   4.081   0.892
 3942TIP3    H111771   6.117   4.034   0.811
 3942TIP3    H211772   6.105   4.170   0.876
 3943TIP3   OH211773   5.610   3.811   2.737
 3943TIP3    H111774   5.611   3.733   2.682
 3943TIP3    H211775   5.567   3.877   2.684
 3944TIP3   OH211776   5.613   3.597   2.546
 3944TIP3    H111777   5.642   3.638   2.465
 3944TIP3    H211778   5.521   3.575   2.531
 3945TIP3   OH211779   5.635   4.130   2.419
 3945TIP3    H111780   5.722   4.144   2.381
 3945TIP3    H211781   5.580   4.195   2.375
 3946TIP3   OH211782   6.218   4.097   2.798
 3946TIP3    H111783   6.268   4.018   2.819
 3946TIP3    H211784   6.284   4.161   2.772
 3947TIP3   OH211785   6.263   4.351   2.529
 3947TIP3    H111786   6.203   4.404   2.477
 3947TIP3    H211787   6.350   4.371   2.494
 3948TIP3   OH211788   5.487   3.915   2.971
 3948TIP3    H111789   5.420   3.850   2.990
 3948TIP3    H211790   5.522   3.890   2.886
 3949TIP3   OH211791   5.742   3.359   2.617
 3949TIP3    H111792   5.696   3.439   2.595
 3949TIP3    H211793   5.676   3.290   2.608
 3950TIP3   OH211794   5.869   3.859   2.834
 3950TIP3    H111795   5.861   3.848   2.929
 3950TIP3    H211796   5.782   3.838   2.800
 3951TIP3   OH211797   6.107   3.806   2.687
 3951TIP3    H111798   6.034   3.814   2.749
 3951TIP3    H211799   6.182   3.782   2.742
 3952TIP3   OH211800   6.340   3.754   2.837
 3952TIP3    H111801   6.351   3.660   2.853
 3952TIP3    H211802   6.333   3.793   2.924
 3953TIP3   OH211803   5.328   3.695   3.029
 3953TIP3    H111804   5.332   3.606   2.996
 3953TIP3    H211805   5.364   3.690   3.118
 3954TIP3   OH211806   5.838   3.366   2.874
 3954TIP3    H111807   5.904   3.297   2.870
 3954TIP3    H211808   5.797   3.365   2.788
 3955TIP3   OH211809   5.903   3.584   3.033
 3955TIP3    H111810   5.883   3.514   2.971
 3955TIP3    H211811   5.827   3.642   3.029
 3956TIP3   OH211812   5.130   4.822   1.135
 3956TIP3    H111813   5.223   4.806   1.118
 3956TIP3    H211814   5.098   4.866   1.057
 3957TIP3   OH211815   4.608   4.195   1.345
 3957TIP3    H111816   4.700   4.216   1.333
 3957TIP3    H211817   4.598   4.108   1.306
 3958TIP3   OH211818   4.524   4.806   1.766
 3958TIP3    H111819   4.458   4.749   1.726
 3958TIP3    H211820   4.569   4.750   1.830
 3959TIP3   OH211821   4.658   4.654   1.955
 3959TIP3    H111822   4.643   4.582   2.017
 3959TIP3    H211823   4.708   4.718   2.005
 3960TIP3   OH211824   6.385   5.061   1.753
 3960TIP3    H111825   6.411   5.088   1.841
 3960TIP3    H211826   6.453   5.098   1.696
 3961TIP3   OH211827   6.413   5.074   2.035
 3961TIP3    H111828   6.366   4.991   2.029
 3961TIP3    H211829   6.488   5.055   2.092
 3962TIP3   OH211830   6.458   4.757   2.606
 3962TIP3    H111831   6.386   4.762   2.669
 3962TIP3    H211832   6.502   4.841   2.612
 3963TIP3   OH211833   6.279   4.266   1.225
 3963TIP3    H111834   6.342   4.332   1.194
 3963TIP3    H211835   6.321   4.229   1.303
 3964TIP3   OH211836   6.404   4.134   1.431
 3964TIP3    H111837   6.339   4.093   1.488
 3964TIP3    H211838   6.469   4.170   1.491
 3965TIP3   OH211839   6.461   4.529   1.858
 3965TIP3    H111840   6.513   4.461   1.815
 3965TIP3    H211841   6.456   4.600   1.794
 3966TIP3   OH211842   6.285   4.829   2.053
 3966TIP3    H111843   6.216   4.868   2.107
 3966TIP3    H211844   6.238   4.782   1.984
 3967TIP3   OH211845   6.338   4.045   1.073
 3967TIP3    H111846   6.269   4.044   1.007
 3967TIP3    H211847   6.314   4.118   1.131
 3968TIP3   OH211848   6.211   3.712   1.026
 3968TIP3    H111849   6.165   3.752   0.952
 3968TIP3    H211850   6.191   3.619   1.019
 3969TIP3   OH211851   6.215   3.993   1.576
 3969TIP3    H111852   6.224   3.898   1.568
 3969TIP3    H211853   6.201   4.007   1.670
 3970TIP3   OH211854   4.843   4.065   2.321
 3970TIP3    H111855   4.838   4.031   2.231
 3970TIP3    H211856   4.937   4.066   2.340
 3971TIP3   OH211857   6.510   4.418   2.429
 3971TIP3    H111858   6.578   4.351   2.420
 3971TIP3    H211859   6.536   4.487   2.369
 3972TIP3   OH211860   6.690   4.215   2.440
 3972TIP3    H111861   6.615   4.171   2.480
 3972TIP3    H211862   6.764   4.156   2.455
 3973TIP3   OH211863   6.157   3.445   1.007
 3973TIP3    H111864   6.228   3.418   1.065
 3973TIP3    H211865   6.083   3.390   1.032
 3974TIP3   OH211866   6.215   3.707   1.465
 3974TIP3    H111867   6.253   3.620   1.482
 3974TIP3    H211868   6.271   3.743   1.396
 3975TIP3   OH211869   6.375   3.880   1.965
 3975TIP3    H111870   6.457   3.902   1.921
 3975TIP3    H211871   6.385   3.915   2.054
 3976TIP3   OH211872   6.443   4.027   2.193
 3976TIP3    H111873   6.369   4.058   2.245
 3976TIP3    H211874   6.477   4.106   2.150
 3977TIP3   OH211875   5.063   3.748   2.994
 3977TIP3    H111876   5.158   3.746   2.999
 3977TIP3    H211877   5.036   3.665   3.034
 3978TIP3   OH211878   6.898   3.620   2.749
 3978TIP3    H111879   6.956   3.556   2.708
 3978TIP3    H211880   6.864   3.672   2.675
 3979TIP3   OH211881   6.322   3.457   1.508
 3979TIP3    H111882   6.370   3.444   1.589
 3979TIP3    H211883   6.261   3.383   1.504
 3980TIP3   OH211884   5.025   3.444   2.324
 3980TIP3    H111885   5.083   3.368   2.334
 3980TIP3    H211886   5.084   3.519   2.318
 3981TIP3   OH211887   4.823   3.716   2.397
 3981TIP3    H111888   4.872   3.714   2.314
 3981TIP3    H211889   4.850   3.798   2.439
 3982TIP3   OH211890   6.761   3.754   2.555
 3982TIP3    H111891   6.681   3.800   2.582
 3982TIP3    H211892   6.730   3.684   2.498
 3983TIP3   OH211893   6.400   3.391   1.140
 3983TIP3    H111894   6.439   3.321   1.088
 3983TIP3    H211895   6.466   3.461   1.139
 3984TIP3   OH211896   4.808   3.219   1.898
 3984TIP3    H111897   4.717   3.213   1.930
 3984TIP3    H211898   4.803   3.278   1.822
 3985TIP3   OH211899   5.966   4.930   1.405
 3985TIP3    H111900   6.015   4.915   1.324
 3985TIP3    H211901   6.022   4.989   1.456
 3986TIP3   OH211902   5.026   3.297   2.712
 3986TIP3    H111903   4.980   3.295   2.797
 3986TIP3    H211904   4.963   3.338   2.652
 3987TIP3   OH211905   5.066   4.732   2.791
 3987TIP3    H111906   4.975   4.706   2.776
 3987TIP3    H211907   5.083   4.708   2.882
 3988TIP3   OH211908   5.249   4.766   2.336
 3988TIP3    H111909   5.198   4.840   2.301
 3988TIP3    H211910   5.335   4.775   2.295
 3989TIP3   OH211911   5.690   5.008   2.477
 3989TIP3    H111912   5.729   5.003   2.564
 3989TIP3    H211913   5.754   5.058   2.426
 3990TIP3   OH211914   5.871   5.161   2.338
 3990TIP3    H111915   5.938   5.106   2.297
 3990TIP3    H211916   5.920   5.217   2.398
 3991TIP3   OH211917   6.664   3.516   2.434
 3991TIP3    H111918   6.575   3.512   2.400
 3991TIP3    H211919   6.697   3.427   2.425
 3992TIP3   OH211920   4.920   5.023   2.362
 3992TIP3    H111921   4.831   5.052   2.341
 3992TIP3    H211922   4.937   5.059   2.449
 3993TIP3   OH211923   5.157   5.000   2.222
 3993TIP3    H111924   5.073   5.010   2.267
 3993TIP3    H211925   5.140   5.028   2.132
 3994TIP3   OH211926   5.584   5.027   2.019
 3994TIP3    H111927   5.514   5.042   1.956
 3994TIP3    H211928   5.596   5.111   2.063
 3995TIP3   OH211929   5.853   4.964   2.071
 3995TIP3    H111930   5.761   4.980   2.052
 3995TIP3    H211931   5.899   5.037   2.029
 3996TIP3   OH211932   6.058   5.154   1.982
 3996TIP3    H111933   6.046   5.237   1.936
 3996TIP3    H211934   6.086   5.093   1.913
 3997TIP3   OH211935   4.838   4.810   2.109
 3997TIP3    H111936   4.859   4.784   2.199
 3997TIP3    H211937   4.906   4.768   2.055
 3998TIP3   OH211938   5.032   4.683   1.967
 3998TIP3    H111939   5.042   4.601   2.015
 3998TIP3    H211940   5.121   4.719   1.963
 3999TIP3   OH211941   5.301   4.775   1.973
 3999TIP3    H111942   5.326   4.684   1.960
 3999TIP3    H211943   5.345   4.800   2.054
 4000TIP3   OH211944   5.869   3.431   2.055
 4000TIP3    H111945   5.827   3.363   2.108
 4000TIP3    H211946   5.943   3.387   2.013
 4001TIP3   OH211947   6.389   3.313   1.956
 4001TIP3    H111948   6.426   3.365   1.885
 4001TIP3    H211949   6.296   3.333   1.955
 4002TIP3   OH211950   6.489   3.414   1.721
 4002TIP3    H111951   6.560   3.360   1.685
 4002TIP3    H211952   6.519   3.504   1.710
 4003TIP3   OH211953   5.117   3.138   2.069
 4003TIP3    H111954   5.025   3.110   2.073
 4003TIP3    H211955   5.167   3.057   2.065
 4004TIP3   OH211956   4.907   3.016   1.722
 4004TIP3    H111957   4.935   3.070   1.648
 4004TIP3    H211958   4.879   3.079   1.789
 4005TIP3   OH211959   5.565   3.174   1.952
 4005TIP3    H111960   5.620   3.221   1.890
 4005TIP3    H211961   5.588   3.212   2.037
 4006TIP3   OH211962   6.105   3.320   1.935
 4006TIP3    H111963   6.108   3.282   1.847
 4006TIP3    H211964   6.094   3.244   1.993
 4007TIP3   OH211965   6.137   3.246   1.500
 4007TIP3    H111966   6.054   3.291   1.516
 4007TIP3    H211967   6.126   3.160   1.542
 4008TIP3   OH211968   4.620   4.589   1.492
 4008TIP3    H111969   4.536   4.551   1.464
 4008TIP3    H211970   4.613   4.681   1.470
 4009TIP3   OH211971   5.027   3.172   1.480
 4009TIP3    H111972   5.071   3.108   1.424
 4009TIP3    H211973   5.098   3.225   1.516
 4010TIP3   OH211974   5.536   3.351   1.582
 4010TIP3    H111975   5.593   3.300   1.640
 4010TIP3    H211976   5.554   3.442   1.605
 4011TIP3   OH211977   5.396   4.767   1.078
 4011TIP3    H111978   5.483   4.793   1.048
 4011TIP3    H211979   5.370   4.695   1.021
 4012TIP3   OH211980   6.111   4.890   1.175
 4012TIP3    H111981   6.107   4.795   1.165
 4012TIP3    H211982   6.070   4.924   1.095
 4013TIP3   OH211983   5.327   3.420   2.961
 4013TIP3    H111984   5.287   3.353   3.017
 4013TIP3    H211985   5.419   3.422   2.989
 4014TIP3   OH211986   5.576   3.417   3.081
 4014TIP3    H111987   5.662   3.396   3.044
 4014TIP3    H211988   5.561   3.350   3.148
 4015TIP3   OH211989   4.701   4.608   1.136
 4015TIP3    H111990   4.698   4.623   1.231
 4015TIP3    H211991   4.785   4.565   1.121
 4016TIP3   OH211992   6.404   3.482   2.869
 4016TIP3    H111993   6.418   3.453   2.959
 4016TIP3    H211994   6.491   3.478   2.829
 4017TIP3   OH211995   6.336   5.036   2.358
 4017TIP3    H111996   6.260   5.003   2.311
 4017TIP3    H211997   6.318   5.130   2.369
 4018TIP3   OH211998   7.602   4.412   1.124
 4018TIP3    H111999   7.574   4.501   1.104
 4018TIP3    H212000   7.526   4.358   1.105
 4019TIP3   OH212001   7.600   4.405   1.512
 4019TIP3    H112002   7.632   4.394   1.602
 4019TIP3    H212003   7.562   4.320   1.490
 4020TIP3   OH212004   6.903   4.300   1.876
 4020TIP3    H112005   6.929   4.230   1.937
 4020TIP3    H212006   6.981   4.355   1.869
 4021TIP3   OH212007   7.852   4.706   1.194
 4021TIP3    H112008   7.831   4.642   1.261
 4021TIP3    H212009   7.880   4.784   1.242
 4022TIP3   OH212010   6.878   4.710   1.594
 4022TIP3    H112011   6.866   4.615   1.595
 4022TIP3    H212012   6.973   4.723   1.593
 4023TIP3   OH212013   6.581   3.913   1.377
 4023TIP3    H112014   6.538   3.996   1.399
 4023TIP3    H212015   6.512   3.860   1.336
 4024TIP3   OH212016   6.641   4.200   1.559
 4024TIP3    H112017   6.688   4.123   1.592
 4024TIP3    H212018   6.702   4.240   1.496
 4025TIP3   OH212019   7.501   5.173   1.211
 4025TIP3    H112020   7.541   5.103   1.159
 4025TIP3    H212021   7.490   5.135   1.298
 4026TIP3   OH212022   7.406   4.633   1.556
 4026TIP3    H112023   7.442   4.554   1.516
 4026TIP3    H212024   7.484   4.683   1.583
 4027TIP3   OH212025   7.807   4.151   1.583
 4027TIP3    H112026   7.822   4.063   1.617
 4027TIP3    H212027   7.763   4.137   1.499
 4028TIP3   OH212028   7.151   3.793   1.552
 4028TIP3    H112029   7.140   3.867   1.492
 4028TIP3    H212030   7.105   3.720   1.510
 4029TIP3   OH212031   7.844   3.886   1.189
 4029TIP3    H112032   7.902   3.825   1.236
 4029TIP3    H212033   7.903   3.936   1.133
 4030TIP3   OH212034   6.790   3.993   1.659
 4030TIP3    H112035   6.870   3.978   1.710
 4030TIP3    H212036   6.801   3.941   1.580
 4031TIP3   OH212037   7.230   4.190   1.456
 4031TIP3    H112038   7.323   4.169   1.469
 4031TIP3    H212039   7.191   4.108   1.424
 4032TIP3   OH212040   7.147   3.778   1.989
 4032TIP3    H112041   7.092   3.814   1.919
 4032TIP3    H212042   7.098   3.794   2.069
 4033TIP3   OH212043   7.491   4.628   0.992
 4033TIP3    H112044   7.456   4.615   0.904
 4033TIP3    H212045   7.448   4.707   1.024
 4034TIP3   OH212046   7.257   4.555   1.778
 4034TIP3    H112047   7.199   4.621   1.816
 4034TIP3    H212048   7.302   4.601   1.707
 4035TIP3   OH212049   7.024   3.894   1.771
 4035TIP3    H112050   7.083   3.965   1.797
 4035TIP3    H212051   7.068   3.852   1.697
 4036TIP3   OH212052   7.084   4.752   1.880
 4036TIP3    H112053   7.063   4.838   1.844
 4036TIP3    H212054   7.009   4.730   1.936
 4037TIP3   OH212055   6.476   4.440   1.116
 4037TIP3    H112056   6.437   4.463   1.031
 4037TIP3    H212057   6.508   4.523   1.151
 4038TIP3   OH212058   7.915   4.954   1.352
 4038TIP3    H112059   7.831   4.939   1.397
 4038TIP3    H212060   7.906   5.041   1.313
 4039TIP3   OH212061   7.491   3.486   1.706
 4039TIP3    H112062   7.475   3.393   1.722
 4039TIP3    H212063   7.417   3.531   1.749
 4040TIP3   OH212064   7.619   5.000   1.029
 4040TIP3    H112065   7.660   4.916   1.011
 4040TIP3    H212066   7.679   5.064   0.990
 4041TIP3   OH212067   7.751   4.779   0.944
 4041TIP3    H112068   7.704   4.702   0.914
 4041TIP3    H212069   7.799   4.750   1.022
 4042TIP3   OH212070   8.139   4.859   1.702
 4042TIP3    H112071   8.141   4.785   1.642
 4042TIP3    H212072   8.137   4.936   1.646
 4043TIP3   OH212073   7.432   4.256   0.955
 4043TIP3    H112074   7.352   4.308   0.944
 4043TIP3    H212075   7.478   4.265   0.871
 4044TIP3   OH212076   7.390   4.056   0.678
 4044TIP3    H112077   7.457   4.098   0.732
 4044TIP3    H212078   7.435   3.983   0.636
 4045TIP3   OH212079   7.780   4.338   0.935
 4045TIP3    H112080   7.723   4.369   1.005
 4045TIP3    H212081   7.852   4.294   0.981
 4046TIP3   OH212082   8.000   4.367   1.837
 4046TIP3    H112083   8.033   4.445   1.882
 4046TIP3    H212084   7.913   4.391   1.807
 4047TIP3   OH212085   7.019   4.335   1.347
 4047TIP3    H112086   6.978   4.280   1.280
 4047TIP3    H212087   7.093   4.284   1.379
 4048TIP3   OH212088   7.149   4.753   1.492
 4048TIP3    H112089   7.127   4.714   1.407
 4048TIP3    H212090   7.236   4.718   1.513
 4049TIP3   OH212091   7.150   4.313   1.698
 4049TIP3    H112092   7.186   4.286   1.613
 4049TIP3    H212093   7.195   4.395   1.718
 4050TIP3   OH212094   7.679   4.947   1.480
 4050TIP3    H112095   7.666   5.027   1.530
 4050TIP3    H212096   7.662   4.876   1.542
 4051TIP3   OH212097   7.288   4.868   2.025
 4051TIP3    H112098   7.231   4.928   2.072
 4051TIP3    H212099   7.228   4.813   1.975
 4052TIP3   OH212100   7.629   4.205   0.750
 4052TIP3    H112101   7.678   4.260   0.811
 4052TIP3    H212102   7.672   4.219   0.666
 4053TIP3   OH212103   7.044   4.423   2.130
 4053TIP3    H112104   7.052   4.509   2.170
 4053TIP3    H212105   6.952   4.400   2.142
 4054TIP3   OH212106   7.372   4.875   1.034
 4054TIP3    H112107   7.454   4.924   1.040
 4054TIP3    H212108   7.312   4.935   0.989
 4055TIP3   OH212109   7.082   5.032   2.113
 4055TIP3    H112110   7.049   5.034   2.023
 4055TIP3    H212111   7.005   5.011   2.166
 4056TIP3   OH212112   6.884   4.183   1.143
 4056TIP3    H112113   6.814   4.226   1.094
 4056TIP3    H212114   6.850   4.096   1.165
 4057TIP3   OH212115   6.663   4.565   2.058
 4057TIP3    H112116   6.597   4.544   1.992
 4057TIP3    H212117   6.701   4.480   2.082
 4058TIP3   OH212118   6.520   4.761   1.689
 4058TIP3    H112119   6.615   4.750   1.681
 4058TIP3    H212120   6.509   4.836   1.748
 4059TIP3   OH212121   7.483   4.998   1.883
 4059TIP3    H112122   7.484   5.088   1.914
 4059TIP3    H212123   7.416   4.955   1.935
 4060TIP3   OH212124   7.252   5.134   0.831
 4060TIP3    H112125   7.187   5.113   0.764
 4060TIP3    H212126   7.225   5.219   0.865
 4061TIP3   OH212127   6.689   4.971   1.221
 4061TIP3    H112128   6.734   4.964   1.305
 4061TIP3    H212129   6.636   4.892   1.216
 4062TIP3   OH212130   7.482   5.009   0.742
 4062TIP3    H112131   7.404   5.053   0.775
 4062TIP3    H212132   7.549   5.026   0.809
 4063TIP3   OH212133   6.867   4.748   2.045
 4063TIP3    H112134   6.917   4.734   2.125
 4063TIP3    H212135   6.793   4.687   2.051
 4064TIP3   OH212136   7.262   3.572   1.836
 4064TIP3    H112137   7.177   3.540   1.805
 4064TIP3    H212138   7.242   3.653   1.883
 4065TIP3   OH212139   7.768   3.704   2.013
 4065TIP3    H112140   7.834   3.667   2.071
 4065TIP3    H212141   7.684   3.685   2.056
 4066TIP3   OH212142   8.069   4.111   1.945
 4066TIP3    H112143   8.014   4.119   2.023
 4066TIP3    H212144   8.057   4.194   1.898
 4067TIP3   OH212145   7.418   3.616   0.805
 4067TIP3    H112146   7.386   3.617   0.895
 4067TIP3    H212147   7.378   3.538   0.766
 4068TIP3   OH212148   7.196   4.092   1.850
 4068TIP3    H112149   7.149   4.110   1.932
 4068TIP3    H212150   7.182   4.170   1.797
 4069TIP3   OH212151   7.080   3.973   1.364
 4069TIP3    H112152   6.991   3.948   1.386
 4069TIP3    H212153   7.096   3.933   1.278
 4070TIP3   OH212154   7.575   4.061   1.090
 4070TIP3    H112155   7.522   4.128   1.048
 4070TIP3    H212156   7.633   4.029   1.021
 4071TIP3   OH212157   7.746   4.334   2.180
 4071TIP3    H112158   7.724   4.264   2.240
 4071TIP3    H212159   7.841   4.347   2.191
 4072TIP3   OH212160   7.714   4.089   1.328
 4072TIP3    H112161   7.655   4.108   1.255
 4072TIP3    H212162   7.754   4.005   1.306
 4073TIP3   OH212163   7.017   4.116   2.060
 4073TIP3    H112164   7.049   4.180   2.124
 4073TIP3    H212165   7.007   4.035   2.110
 4074TIP3   OH212166   7.064   3.594   0.771
 4074TIP3    H112167   7.061   3.591   0.866
 4074TIP3    H212168   6.988   3.648   0.746
 4075TIP3   OH212169   6.614   3.635   1.639
 4075TIP3    H112170   6.684   3.670   1.694
 4075TIP3    H212171   6.658   3.607   1.559
 4076TIP3   OH212172   6.576   3.620   1.156
 4076TIP3    H112173   6.625   3.652   1.080
 4076TIP3    H212174   6.516   3.691   1.178
 4077TIP3   OH212175   7.715   4.339   1.755
 4077TIP3    H112176   7.759   4.278   1.695
 4077TIP3    H212177   7.695   4.287   1.832
 4078TIP3   OH212178   7.403   3.819   1.425
 4078TIP3    H112179   7.333   3.803   1.488
 4078TIP3    H212180   7.480   3.775   1.462
 4079TIP3   OH212181   6.843   3.852   1.431
 4079TIP3    H112182   6.752   3.859   1.403
 4079TIP3    H212183   6.868   3.762   1.409
 4080TIP3   OH212184   7.108   3.845   1.125
 4080TIP3    H112185   7.201   3.860   1.108
 4080TIP3    H212186   7.065   3.868   1.042
 4081TIP3   OH212187   7.825   3.887   1.624
 4081TIP3    H112188   7.816   3.893   1.719
 4081TIP3    H212189   7.907   3.839   1.612
 4082TIP3   OH212190   6.957   3.881   0.897
 4082TIP3    H112191   6.884   3.839   0.852
 4082TIP3    H212192   7.010   3.918   0.827
 4083TIP3   OH212193   8.066   5.569   1.847
 4083TIP3    H112194   8.062   5.574   1.751
 4083TIP3    H212195   8.134   5.631   1.872
 4084TIP3   OH212196   7.030   4.672   2.268
 4084TIP3    H112197   7.110   4.700   2.313
 4084TIP3    H212198   6.965   4.668   2.338
 4085TIP3   OH212199   7.494   4.127   1.528
 4085TIP3    H112200   7.556   4.081   1.471
 4085TIP3    H212201   7.496   4.079   1.611
 4086TIP3   OH212202   7.010   3.609   1.404
 4086TIP3    H112203   6.975   3.535   1.453
 4086TIP3    H212204   7.063   3.570   1.335
 4087TIP3   OH212205   7.467   4.024   1.818
 4087TIP3    H112206   7.380   4.061   1.829
 4087TIP3    H212207   7.525   4.084   1.864
 4088TIP3   OH212208   7.201   4.406   0.912
 4088TIP3    H112209   7.131   4.342   0.897
 4088TIP3    H212210   7.184   4.441   0.999
 4089TIP3   OH212211   8.102   4.653   1.519
 4089TIP3    H112212   8.118   4.658   1.425
 4089TIP3    H212213   8.018   4.607   1.526
 4090TIP3   OH212214   7.674   3.711   0.780
 4090TIP3    H112215   7.581   3.685   0.783
 4090TIP3    H212216   7.672   3.807   0.774
 4091TIP3   OH212217   7.598   4.730   1.905
 4091TIP3    H112218   7.638   4.712   1.990
 4091TIP3    H212219   7.565   4.820   1.913
 4092TIP3   OH212220   7.760   3.986   0.853
 4092TIP3    H112221   7.846   4.025   0.862
 4092TIP3    H212222   7.708   4.050   0.805
 4093TIP3   OH212223   6.900   4.433   1.579
 4093TIP3    H112224   6.938   4.406   1.496
 4093TIP3    H212225   6.944   4.378   1.645
 4094TIP3   OH212226   7.348   4.572   0.754
 4094TIP3    H112227   7.298   4.653   0.750
 4094TIP3    H212228   7.296   4.514   0.810
 4095TIP3   OH212229   6.781   4.353   2.198
 4095TIP3    H112230   6.801   4.342   2.291
 4095TIP3    H212231   6.712   4.289   2.180
 4096TIP3   OH212232   7.508   4.469   2.215
 4096TIP3    H112233   7.446   4.413   2.169
 4096TIP3    H212234   7.594   4.436   2.189
 4097TIP3   OH212235   7.761   4.993   1.802
 4097TIP3    H112236   7.666   4.990   1.814
 4097TIP3    H212237   7.793   5.042   1.877
 4098TIP3   OH212238   7.862   4.510   1.455
 4098TIP3    H112239   7.769   4.493   1.466
 4098TIP3    H212240   7.899   4.427   1.426
 4099TIP3   OH212241   6.999   4.740   1.204
 4099TIP3    H112242   6.997   4.820   1.152
 4099TIP3    H212243   6.907   4.721   1.223
 4100TIP3   OH212244   6.565   4.044   0.917
 4100TIP3    H112245   6.610   4.126   0.935
 4100TIP3    H212246   6.488   4.045   0.974
 4101TIP3   OH212247   7.129   4.502   1.151
 4101TIP3    H112248   7.098   4.591   1.169
 4101TIP3    H212249   7.099   4.451   1.225
 4102TIP3   OH212250   7.273   5.082   1.676
 4102TIP3    H112251   7.314   5.153   1.627
 4102TIP3    H212252   7.345   5.042   1.725
 4103TIP3   OH212253   6.915   4.979   1.058
 4103TIP3    H112254   6.831   4.983   1.105
 4103TIP3    H212255   6.949   5.069   1.063
 4104TIP3   OH212256   7.655   4.714   1.639
 4104TIP3    H112257   7.639   4.715   1.734
 4104TIP3    H212258   7.738   4.667   1.629
 4105TIP3   OH212259   7.905   5.245   1.683
 4105TIP3    H112260   7.830   5.187   1.682
 4105TIP3    H212261   7.887   5.309   1.614
 4106TIP3   OH212262   6.988   3.858   2.203
 4106TIP3    H112263   6.893   3.863   2.214
 4106TIP3    H212264   7.018   3.804   2.276
 4107TIP3   OH212265   7.768   4.537   0.741
 4107TIP3    H112266   7.773   4.470   0.809
 4107TIP3    H212267   7.854   4.580   0.744
 4108TIP3   OH212268   6.708   4.942   1.837
 4108TIP3    H112269   6.761   4.870   1.871
 4108TIP3    H212270   6.731   5.017   1.891
 4109TIP3   OH212271   7.025   4.571   0.533
 4109TIP3    H112272   7.011   4.479   0.508
 4109TIP3    H212273   7.002   4.574   0.626
 4110TIP3   OH212274   6.945   4.597   0.799
 4110TIP3    H112275   7.008   4.563   0.863
 4110TIP3    H212276   6.949   4.692   0.810
 4111TIP3   OH212277   6.672   4.289   0.996
 4111TIP3    H112278   6.608   4.329   1.054
 4111TIP3    H212279   6.686   4.353   0.926
 4112TIP3   OH212280   7.830   3.947   1.896
 4112TIP3    H112281   7.920   3.968   1.922
 4112TIP3    H212282   7.811   3.864   1.939
 4113TIP3   OH212283   7.685   3.688   1.065
 4113TIP3    H112284   7.689   3.696   0.969
 4113TIP3    H212285   7.734   3.763   1.097
 4114TIP3   OH212286   7.204   4.795   0.724
 4114TIP3    H112287   7.121   4.824   0.760
 4114TIP3    H212288   7.217   4.850   0.646
 4115TIP3   OH212289   7.389   3.861   1.156
 4115TIP3    H112290   7.456   3.927   1.139
 4115TIP3    H212291   7.393   3.846   1.250
 4116TIP3   OH212292   7.667   4.168   1.959
 4116TIP3    H112293   7.695   4.215   2.038
 4116TIP3    H212294   7.726   4.093   1.953
 4117TIP3   OH212295   7.534   3.566   1.253
 4117TIP3    H112296   7.565   3.608   1.333
 4117TIP3    H212297   7.586   3.607   1.184
 4118TIP3   OH212298   6.953   4.869   0.808
 4118TIP3    H112299   6.933   4.939   0.746
 4118TIP3    H212300   6.936   4.907   0.894
 4119TIP3   OH212301   7.056   3.583   1.046
 4119TIP3    H112302   7.048   3.670   1.085
 4119TIP3    H212303   7.149   3.562   1.052
 4120TIP3   OH212304   7.949   4.252   1.367
 4120TIP3    H112305   7.866   4.214   1.338
 4120TIP3    H212306   7.964   4.214   1.454
 4121TIP3   OH212307   6.671   4.493   0.802
 4121TIP3    H112308   6.734   4.564   0.815
 4121TIP3    H212309   6.713   4.435   0.738
 4122TIP3   OH212310   6.612   3.774   0.933
 4122TIP3    H112311   6.617   3.869   0.933
 4122TIP3    H212312   6.529   3.754   0.890
 4123TIP3   OH212313   7.934   5.228   1.276
 4123TIP3    H112314   7.891   5.273   1.204
 4123TIP3    H212315   8.027   5.240   1.260
 4124TIP3   OH212316   7.000   3.491   1.804
 4124TIP3    H112317   6.972   3.459   1.718
 4124TIP3    H212318   6.991   3.415   1.862
 4125TIP3   OH212319   6.536   4.711   1.181
 4125TIP3    H112320   6.477   4.738   1.251
 4125TIP3    H212321   6.502   4.754   1.102
 4126TIP3   OH212322   6.702   5.256   2.260
 4126TIP3    H112323   6.786   5.259   2.305
 4126TIP3    H212324   6.680   5.163   2.257
 4127TIP3   OH212325   7.177   5.212   2.301
 4127TIP3    H112326   7.271   5.197   2.311
 4127TIP3    H212327   7.150   5.153   2.232
 4128TIP3   OH212328   7.814   5.124   2.039
 4128TIP3    H112329   7.809   5.055   2.105
 4128TIP3    H212330   7.891   5.175   2.064
 4129TIP3   OH212331   6.827   4.659   2.456
 4129TIP3    H112332   6.844   4.566   2.468
 4129TIP3    H212333   6.742   4.664   2.413
 4130TIP3   OH212334   6.821   4.312   0.667
 4130TIP3    H112335   6.879   4.283   0.737
 4130TIP3    H212336   6.877   4.316   0.589
 4131TIP3   OH212337   7.434   4.745   2.232
 4131TIP3    H112338   7.397   4.767   2.146
 4131TIP3    H212339   7.466   4.655   2.222
 4132TIP3   OH212340   7.331   4.501   0.494
 4132TIP3    H112341   7.331   4.524   0.587
 4132TIP3    H212342   7.262   4.435   0.485
 4133TIP3   OH212343   7.929   4.756   1.839
 4133TIP3    H112344   8.009   4.792   1.800
 4133TIP3    H212345   7.863   4.823   1.824
 4134TIP3   OH212346   6.951   4.396   2.444
 4134TIP3    H112347   7.025   4.343   2.416
 4134TIP3    H212348   6.975   4.429   2.530
 4135TIP3   OH212349   7.007   4.214   0.871
 4135TIP3    H112350   6.980   4.181   0.957
 4135TIP3    H212351   7.046   4.138   0.828
 4136TIP3   OH212352   7.282   4.278   2.100
 4136TIP3    H112353   7.206   4.336   2.102
 4136TIP3    H212354   7.334   4.310   2.026
 4137TIP3   OH212355   7.117   4.010   0.717
 4137TIP3    H112356   7.090   4.018   0.626
 4137TIP3    H212357   7.212   4.011   0.714
 4138TIP3   OH212358   7.802   4.680   2.234
 4138TIP3    H112359   7.878   4.652   2.183
 4138TIP3    H212360   7.795   4.614   2.303
 4139TIP3   OH212361   7.405   4.067   2.224
 4139TIP3    H112362   7.408   3.990   2.168
 4139TIP3    H212363   7.364   4.134   2.170
 4140TIP3   OH212364   7.407   3.854   2.035
 4140TIP3    H112365   7.438   3.897   1.955
 4140TIP3    H212366   7.316   3.833   2.017
 4141TIP3   OH212367   7.433   4.387   1.909
 4141TIP3    H112368   7.520   4.395   1.869
 4141TIP3    H212369   7.380   4.452   1.863
 4142TIP3   OH212370   8.021   4.358   2.292
 4142TIP3    H112371   8.056   4.270   2.276
 4142TIP3    H212372   8.084   4.416   2.250
 4143TIP3   OH212373   8.067   4.608   2.024
 4143TIP3    H112374   8.014   4.663   1.966
 4143TIP3    H212375   8.148   4.593   1.976
 4144TIP3   OH212376   7.285   4.171   2.460
 4144TIP3    H112377   7.218   4.106   2.477
 4144TIP3    H212378   7.318   4.149   2.373
 4145TIP3   OH212379   7.527   3.615   2.111
 4145TIP3    H112380   7.480   3.695   2.088
 4145TIP3    H212381   7.462   3.545   2.098
 4146TIP3   OH212382   7.663   4.115   2.320
 4146TIP3    H112383   7.651   4.103   2.414
 4146TIP3    H212384   7.578   4.094   2.282
 4147TIP3   OH212385   7.912   4.084   2.176
 4147TIP3    H112386   7.832   4.080   2.228
 4147TIP3    H212387   7.977   4.036   2.228
 4148TIP3   OH212388   8.098   3.974   2.341
 4148TIP3    H112389   8.168   3.909   2.344
 4148TIP3    H212390   8.116   4.032   2.415
 4149TIP3   OH212391   7.124   3.952   2.516
 4149TIP3    H112392   7.127   3.863   2.482
 4149TIP3    H212393   7.160   3.945   2.605
 4150TIP3   OH212394   7.631   3.622   2.364
 4150TIP3    H112395   7.692   3.547   2.360
 4150TIP3    H212396   7.590   3.623   2.278
 4151TIP3   OH212397   7.700   3.841   2.522
 4151TIP3    H112398   7.681   3.772   2.459
 4151TIP3    H212399   7.625   3.900   2.516
 4152TIP3   OH212400   6.940   5.060   0.614
 4152TIP3    H112401   7.021   5.050   0.563
 4152TIP3    H212402   6.885   5.118   0.562
 4153TIP3   OH212403   6.402   4.450   0.839
 4153TIP3    H112404   6.493   4.476   0.823
 4153TIP3    H212405   6.394   4.364   0.797
 4154TIP3   OH212406   6.317   5.061   1.256
 4154TIP3    H112407   6.254   5.003   1.213
 4154TIP3    H212408   6.363   5.004   1.318
 4155TIP3   OH212409   6.455   4.908   1.441
 4155TIP3    H112410   6.441   4.838   1.504
 4155TIP3    H212411   6.506   4.974   1.488
 4156TIP3   OH212412   8.249   5.306   1.517
 4156TIP3    H112413   8.201   5.224   1.507
 4156TIP3    H212414   8.230   5.335   1.606
 4157TIP3   OH212415   8.223   5.033   2.095
 4157TIP3    H112416   8.157   5.030   2.164
 4157TIP3    H212417   8.265   5.118   2.106
 4158TIP3   OH212418   8.086   5.084   1.536
 4158TIP3    H112419   8.023   5.123   1.597
 4158TIP3    H212420   8.033   5.033   1.475
 4159TIP3   OH212421   7.991   4.215   1.066
 4159TIP3    H112422   8.077   4.174   1.069
 4159TIP3    H212423   7.983   4.261   1.150
 4160TIP3   OH212424   6.640   4.322   1.808
 4160TIP3    H112425   6.634   4.288   1.718
 4160TIP3    H212426   6.733   4.323   1.827
 4161TIP3   OH212427   6.858   4.003   2.480
 4161TIP3    H112428   6.953   4.002   2.485
 4161TIP3    H212429   6.831   3.921   2.521
 4162TIP3   OH212430   6.820   3.701   1.813
 4162TIP3    H112431   6.879   3.625   1.822
 4162TIP3    H212432   6.879   3.776   1.805
 4163TIP3   OH212433   6.619   3.973   1.884
 4163TIP3    H112434   6.668   3.970   1.801
 4163TIP3    H212435   6.646   4.055   1.925
 4164TIP3   OH212436   6.603   3.473   1.383
 4164TIP3    H112437   6.514   3.470   1.417
 4164TIP3    H212438   6.599   3.533   1.309
 4165TIP3   OH212439   7.758   5.182   0.878
 4165TIP3    H112440   7.785   5.181   0.786
 4165TIP3    H212441   7.819   5.243   0.920
 4166TIP3   OH212442   6.822   3.554   2.199
 4166TIP3    H112443   6.776   3.553   2.283
 4166TIP3    H212444   6.760   3.594   2.138
 4167TIP3   OH212445   6.862   4.988   2.279
 4167TIP3    H112446   6.771   4.962   2.262
 4167TIP3    H212447   6.877   4.966   2.370
 4168TIP3   OH212448   7.045   5.024   1.823
 4168TIP3    H112449   6.995   5.097   1.787
 4168TIP3    H212450   7.132   5.032   1.782
 4169TIP3   OH212451   7.486   5.265   1.964
 4169TIP3    H112452   7.525   5.260   2.051
 4169TIP3    H212453   7.550   5.314   1.911
 4170TIP3   OH212454   7.667   5.417   1.825
 4170TIP3    H112455   7.736   5.365   1.783
 4170TIP3    H212456   7.713   5.474   1.885
 4171TIP3   OH212457   6.716   5.278   1.851
 4171TIP3    H112458   6.628   5.306   1.829
 4171TIP3    H212459   6.735   5.322   1.934
 4172TIP3   OH212460   6.952   5.256   1.709
 4172TIP3    H112461   6.868   5.266   1.753
 4172TIP3    H212462   6.936   5.285   1.619
 4173TIP3   OH212463   7.378   5.283   1.506
 4173TIP3    H112464   7.308   5.301   1.443
 4173TIP3    H212465   7.393   5.367   1.550
 4174TIP3   OH212466   7.647   5.216   1.557
 4174TIP3    H112467   7.555   5.237   1.538
 4174TIP3    H212468   7.696   5.290   1.521
 4175TIP3   OH212469   7.833   5.402   1.466
 4175TIP3    H112470   7.833   5.490   1.428
 4175TIP3    H212471   7.867   5.346   1.397
 4176TIP3   OH212472   6.633   5.066   1.596
 4176TIP3    H112473   6.655   5.040   1.685
 4176TIP3    H212474   6.701   5.025   1.542
 4177TIP3   OH212475   6.828   4.940   1.455
 4177TIP3    H112476   6.839   4.857   1.502
 4177TIP3    H212477   6.916   4.976   1.451
 4178TIP3   OH212478   7.096   5.031   1.461
 4178TIP3    H112479   7.122   4.940   1.447
 4178TIP3    H212480   7.141   5.058   1.541
 4179TIP3   OH212481   7.615   3.658   1.499
 4179TIP3    H112482   7.600   3.608   1.579
 4179TIP3    H212483   7.709   3.654   1.484
 4180TIP3   OH212484   6.912   3.395   1.556
 4180TIP3    H112485   6.821   3.366   1.560
 4180TIP3    H212486   6.963   3.314   1.552
 4181TIP3   OH212487   6.699   3.272   1.206
 4181TIP3    H112488   6.731   3.327   1.134
 4181TIP3    H212489   6.674   3.335   1.274
 4182TIP3   OH212490   7.361   3.431   1.441
 4182TIP3    H112491   7.410   3.475   1.371
 4182TIP3    H212492   7.393   3.471   1.522
 4183TIP3   OH212493   7.859   3.555   1.417
 4183TIP3    H112494   7.901   3.539   1.332
 4183TIP3    H212495   7.863   3.472   1.463
 4184TIP3   OH212496   6.413   4.850   0.985
 4184TIP3    H112497   6.332   4.811   0.952
 4184TIP3    H212498   6.412   4.940   0.952
 4185TIP3   OH212499   6.824   3.429   0.967
 4185TIP3    H112500   6.869   3.365   0.910
 4185TIP3    H212501   6.895   3.482   1.003
 4186TIP3   OH212502   7.332   3.609   1.069
 4186TIP3    H112503   7.391   3.561   1.127
 4186TIP3    H212504   7.348   3.701   1.089
 4187TIP3   OH212505   7.123   3.677   2.449
 4187TIP3    H112506   7.084   3.609   2.504
 4187TIP3    H212507   7.215   3.679   2.475
 4188TIP3   OH212508   7.372   3.675   2.569
 4188TIP3    H112509   7.457   3.655   2.530
 4188TIP3    H212510   7.359   3.606   2.634
 4189TIP3   OH212511   6.466   4.833   0.645
 4189TIP3    H112512   6.469   4.899   0.715
 4189TIP3    H212513   6.557   4.809   0.630
 4190TIP3   OH212514   8.127   5.302   1.848
 4190TIP3    H112515   8.054   5.264   1.800
 4190TIP3    H212516   8.106   5.395   1.855
 4191TIP3   OH212517   0.059   5.194   2.809
 4191TIP3    H112518   0.029   5.283   2.827
 4191TIP3    H212519  -0.014   5.153   2.762
 4192TIP3   OH212520   0.060   5.182   3.196
 4192TIP3    H112521   0.098   5.169   3.283
 4192TIP3    H212522   0.023   5.097   3.173
 4193TIP3   OH212523   0.302   5.495   2.888
 4193TIP3    H112524   0.300   5.425   2.953
 4193TIP3    H212525   0.331   5.572   2.937
 4194TIP3   OH212526   8.504   5.983   2.880
 4194TIP3    H112527   8.552   5.903   2.862
 4194TIP3    H212528   8.443   5.960   2.950
 4195TIP3   OH212529   8.390   5.400   3.239
 4195TIP3    H112530   8.424   5.317   3.206
 4195TIP3    H212531   8.468   5.448   3.268
 4196TIP3   OH212532   0.868   4.735   3.247
 4196TIP3    H112533   0.900   4.821   3.273
 4196TIP3    H212534   0.895   4.725   3.156
 4197TIP3   OH212535   0.267   4.910   3.277
 4197TIP3    H112536   0.321   4.834   3.296
 4197TIP3    H212537   0.241   4.899   3.186
 4198TIP3   OH212538   0.299   4.676   2.861
 4198TIP3    H112539   0.360   4.663   2.933
 4198TIP3    H212540   0.355   4.707   2.789
 4199TIP3   OH212541   0.947   4.953   3.418
 4199TIP3    H112542   0.864   4.995   3.392
 4199TIP3    H212543   0.966   4.989   3.504
 4200TIP3   OH212544   8.421   5.429   2.693
 4200TIP3    H112545   8.413   5.380   2.611
 4200TIP3    H212546   8.492   5.491   2.677
 4201TIP3   OH212547   0.489   4.683   3.046
 4201TIP3    H112548   0.501   4.637   3.129
 4201TIP3    H212549   0.577   4.705   3.017
 4202TIP3   OH212550   0.361   5.743   3.038
 4202TIP3    H112551   0.278   5.729   3.083
 4202TIP3    H212552   0.356   5.832   3.004
 4203TIP3   OH212553   0.664   4.635   3.408
 4203TIP3    H112554   0.579   4.664   3.376
 4203TIP3    H212555   0.727   4.668   3.344
 4204TIP3   OH212556   8.462   4.273   3.379
 4204TIP3    H112557   8.454   4.179   3.398
 4204TIP3    H212558   8.418   4.316   3.452
 4205TIP3   OH212559   0.069   5.764   2.699
 4205TIP3    H112560   0.117   5.682   2.684
 4205TIP3    H212561   0.130   5.832   2.672
 4206TIP3   OH212562   0.200   5.536   2.634
 4206TIP3    H112563   0.227   5.465   2.575
 4206TIP3    H212564   0.245   5.517   2.716
 4207TIP3   OH212565   0.616   5.651   3.396
 4207TIP3    H112566   0.547   5.585   3.399
 4207TIP3    H212567   0.584   5.717   3.335
 4208TIP3   OH212568   8.383   5.068   2.647
 4208TIP3    H112569   8.308   5.013   2.670
 4208TIP3    H212570   8.408   5.039   2.559
 4209TIP3   OH212571   8.370   4.833   2.368
 4209TIP3    H112572   8.439   4.887   2.406
 4209TIP3    H212573   8.417   4.766   2.317
 4210TIP3   OH212574   0.803   5.295   3.238
 4210TIP3    H112575   0.717   5.335   3.246
 4210TIP3    H212576   0.829   5.311   3.147
 4211TIP3   OH212577   0.241   5.130   2.620
 4211TIP3    H112578   0.185   5.150   2.695
 4211TIP3    H212579   0.324   5.101   2.658
 4212TIP3   OH212580   0.464   5.173   3.525
 4212TIP3    H112581   0.466   5.263   3.560
 4212TIP3    H212582   0.387   5.171   3.468
 4213TIP3   OH212583   0.134   5.735   3.181
 4213TIP3    H112584   0.114   5.826   3.206
 4213TIP3    H212585   0.152   5.691   3.265
 4214TIP3   OH212586   0.078   4.989   2.448
 4214TIP3    H112587   0.131   5.046   2.504
 4214TIP3    H212588   0.104   5.013   2.359
 4215TIP3   OH212589   0.589   4.233   2.491
 4215TIP3    H112590   0.510   4.248   2.544
 4215TIP3    H212591   0.611   4.319   2.457
 4216TIP3   OH212592   0.395   5.591   2.041
 4216TIP3    H112593   0.399   5.687   2.033
 4216TIP3    H212594   0.486   5.563   2.032
 4217TIP3   OH212595   0.831   6.003   3.437
 4217TIP3    H112596   0.837   5.908   3.447
 4217TIP3    H212597   0.751   6.027   3.483
 4218TIP3   OH212598   8.457   5.843   2.166
 4218TIP3    H112599   8.481   5.757   2.132
 4218TIP3    H212600   8.443   5.829   2.259
 4219TIP3   OH212601   8.447   5.865   2.453
 4219TIP3    H112602   8.381   5.867   2.522
 4219TIP3    H212603   8.529   5.846   2.499
 4220TIP3   OH212604   0.722   5.128   3.714
 4220TIP3    H112605   0.642   5.147   3.664
 4220TIP3    H212606   0.738   5.034   3.700
 4221TIP3   OH212607   0.265   4.472   3.715
 4221TIP3    H112608   0.334   4.448   3.777
 4221TIP3    H212609   0.184   4.458   3.764
 4222TIP3   OH212610   0.486   4.906   3.631
 4222TIP3    H112611   0.440   4.903   3.714
 4222TIP3    H212612   0.467   4.994   3.596
 4223TIP3   OH212613   0.156   5.044   2.197
 4223TIP3    H112614   0.117   5.012   2.116
 4223TIP3    H212615   0.241   5.077   2.171
 4224TIP3   OH212616   8.348   4.414   2.471
 4224TIP3    H112617   8.338   4.417   2.567
 4224TIP3    H212618   8.325   4.325   2.447
 4225TIP3   OH212619   0.028   4.854   2.782
 4225TIP3    H112620  -0.019   4.928   2.744
 4225TIP3    H212621   0.080   4.818   2.710
 4226TIP3   OH212622   0.228   5.113   3.857
 4226TIP3    H112623   0.202   5.043   3.917
 4226TIP3    H212624   0.321   5.129   3.877
 4227TIP3   OH212625   0.175   4.869   3.018
 4227TIP3    H112626   0.117   4.901   2.950
 4227TIP3    H212627   0.218   4.792   2.979
 4228TIP3   OH212628   0.167   5.103   3.436
 4228TIP3    H112629   0.211   5.039   3.380
 4228TIP3    H212630   0.155   5.056   3.519
 4229TIP3   OH212631   8.371   4.574   3.105
 4229TIP3    H112632   8.285   4.610   3.128
 4229TIP3    H212633   8.427   4.597   3.179
 4230TIP3   OH212634   0.357   4.653   3.332
 4230TIP3    H112635   0.316   4.673   3.416
 4230TIP3    H212636   0.293   4.598   3.287
 4231TIP3   OH212637   0.531   6.347   3.539
 4231TIP3    H112638   0.525   6.369   3.446
 4231TIP3    H212639   0.604   6.399   3.571
 4232TIP3   OH212640   8.461   4.895   3.206
 4232TIP3    H112641   8.535   4.874   3.150
 4232TIP3    H212642   8.488   4.867   3.294
 4233TIP3   OH212643   8.447   4.794   3.511
 4233TIP3    H112644   8.384   4.864   3.494
 4233TIP3    H212645   8.519   4.838   3.555
 4234TIP3   OH212646   0.565   5.413   3.223
 4234TIP3    H112647   0.578   5.482   3.159
 4234TIP3    H212648   0.470   5.401   3.225
 4235TIP3   OH212649   0.109   4.512   2.459
 4235TIP3    H112650   0.015   4.498   2.467
 4235TIP3    H212651   0.122   4.601   2.490
 4236TIP3   OH212652  -0.005   5.486   3.634
 4236TIP3    H112653   0.091   5.486   3.629
 4236TIP3    H212654  -0.030   5.576   3.614
 4237TIP3   OH212655   0.185   4.758   2.565
 4237TIP3    H112656   0.279   4.760   2.586
 4237TIP3    H212657   0.171   4.838   2.514
 4238TIP3   OH212658   8.294   5.347   2.432
 4238TIP3    H112659   8.235   5.421   2.419
 4238TIP3    H212660   8.245   5.285   2.484
 4239TIP3   OH212661   0.009   5.225   3.971
 4239TIP3    H112662  -0.060   5.205   3.909
 4239TIP3    H212663   0.090   5.206   3.924
 4240TIP3   OH212664   0.197   5.843   3.465
 4240TIP3    H112665   0.134   5.774   3.484
 4240TIP3    H212666   0.241   5.860   3.548
 4241TIP3   OH212667   0.622   4.854   2.394
 4241TIP3    H112668   0.562   4.805   2.337
 4241TIP3    H212669   0.622   4.943   2.358
 4242TIP3   OH212670   0.863   5.725   3.469
 4242TIP3    H112671   0.768   5.710   3.471
 4242TIP3    H212672   0.891   5.687   3.387
 4243TIP3   OH212673   0.342   5.660   2.312
 4243TIP3    H112674   0.289   5.600   2.364
 4243TIP3    H212675   0.340   5.623   2.223
 4244TIP3   OH212676   0.316   5.308   3.095
 4244TIP3    H112677   0.235   5.284   3.141
 4244TIP3    H212678   0.354   5.224   3.070
 4245TIP3   OH212679   0.094   5.405   2.210
 4245TIP3    H112680   0.138   5.378   2.291
 4245TIP3    H212681   0.006   5.369   2.217
 4246TIP3   OH212682   0.367   6.035   3.377
 4246TIP3    H112683   0.297   5.971   3.394
 4246TIP3    H212684   0.331   6.092   3.309
 4247TIP3   OH212685   0.426   5.863   2.037
 4247TIP3    H112686   0.446   5.913   1.958
 4247TIP3    H212687   0.356   5.914   2.079
 4248TIP3   OH212688   0.244   5.335   2.440
 4248TIP3    H112689   0.227   5.263   2.501
 4248TIP3    H212690   0.336   5.323   2.414
 4249TIP3   OH212691   0.276   4.718   3.588
 4249TIP3    H112692   0.361   4.756   3.608
 4249TIP3    H212693   0.275   4.635   3.635
 4250TIP3   OH212694   0.169   4.457   2.748
 4250TIP3    H112695   0.152   4.478   2.656
 4250TIP3    H212696   0.207   4.537   2.785
 4251TIP3   OH212697   8.345   4.656   2.843
 4251TIP3    H112698   8.412   4.723   2.831
 4251TIP3    H212699   8.348   4.635   2.936
 4252TIP3   OH212700   0.127   4.950   3.655
 4252TIP3    H112701   0.158   5.008   3.725
 4252TIP3    H212702   0.185   4.874   3.660
 4253TIP3   OH212703  -0.003   4.363   2.953
 4253TIP3    H112704  -0.024   4.441   3.005
 4253TIP3    H212705   0.055   4.396   2.884
 4254TIP3   OH212706   0.754   4.861   3.633
 4254TIP3    H112707   0.658   4.861   3.637
 4254TIP3    H212708   0.775   4.829   3.545
 4255TIP3   OH212709   0.409   5.047   3.014
 4255TIP3    H112710   0.336   4.988   3.030
 4255TIP3    H212711   0.482   5.009   3.063
 4256TIP3   OH212712   0.381   6.014   2.966
 4256TIP3    H112713   0.337   6.059   2.894
 4256TIP3    H212714   0.474   6.027   2.951
 4257TIP3   OH212715   0.289   5.902   3.713
 4257TIP3    H112716   0.265   5.846   3.787
 4257TIP3    H212717   0.350   5.966   3.750
 4258TIP3   OH212718   0.080   5.614   2.028
 4258TIP3    H112719   0.096   5.550   2.096
 4258TIP3    H212720   0.146   5.596   1.961
 4259TIP3   OH212721   8.302   5.281   2.165
 4259TIP3    H112722   8.294   5.290   2.260
 4259TIP3    H212723   8.294   5.187   2.149
 4260TIP3   OH212724   8.106   4.811   2.460
 4260TIP3    H112725   8.077   4.803   2.369
 4260TIP3    H212726   8.202   4.811   2.454
 4261TIP3   OH212727   0.250   5.472   3.938
 4261TIP3    H112728   0.305   5.441   3.866
 4261TIP3    H212729   0.252   5.402   4.002
 4262TIP3   OH212730   0.384   5.124   2.067
 4262TIP3    H112731   0.368   5.075   1.987
 4262TIP3    H212732   0.351   5.212   2.049
 4263TIP3   OH212733   8.322   4.595   3.650
 4263TIP3    H112734   8.376   4.650   3.594
 4263TIP3    H212735   8.282   4.655   3.713
 4264TIP3   OH212736   8.446   5.235   3.547
 4264TIP3    H112737   8.529   5.207   3.510
 4264TIP3    H212738   8.456   5.329   3.561
 4265TIP3   OH212739   0.479   5.138   3.975
 4265TIP3    H112740   0.532   5.059   3.983
 4265TIP3    H212741   0.537   5.201   3.931
 4266TIP3   OH212742   0.513   5.409   3.732
 4266TIP3    H112743   0.446   5.434   3.669
 4266TIP3    H212744   0.596   5.429   3.688
 4267TIP3   OH212745   8.501   4.408   3.785
 4267TIP3    H112746   8.444   4.479   3.753
 4267TIP3    H212747   8.449   4.328   3.772
 4268TIP3   OH212748   0.133   4.909   4.016
 4268TIP3    H112749   0.160   4.909   4.108
 4268TIP3    H212750   0.043   4.876   4.018
 4269TIP3   OH212751   0.362   4.849   3.866
 4269TIP3    H112752   0.289   4.854   3.927
 4269TIP3    H212753   0.438   4.825   3.920
 4270TIP3   OH212754   0.587   4.799   4.019
 4270TIP3    H112755   0.601   4.705   4.033
 4270TIP3    H212756   0.583   4.836   4.108
 4271TIP3   OH212757   0.091   4.408   4.047
 4271TIP3    H112758   0.159   4.341   4.040
 4271TIP3    H212759   0.053   4.412   3.959
 4272TIP3   OH212760   0.166   4.619   4.206
 4272TIP3    H112761   0.148   4.545   4.147
 4272TIP3    H212762   0.085   4.670   4.205
 4273TIP3   OH212763   0.637   6.098   2.931
 4273TIP3    H112764   0.656   6.124   3.021
 4273TIP3    H212765   0.696   6.151   2.877
 4274TIP3   OH212766   0.665   6.117   3.210
 4274TIP3    H112767   0.611   6.038   3.205
 4274TIP3    H212768   0.735   6.095   3.271
 4275TIP3   OH212769   0.716   5.802   3.785
 4275TIP3    H112770   0.640   5.808   3.844
 4275TIP3    H212771   0.755   5.889   3.787
 4276TIP3   OH212772   0.514   5.304   2.409
 4276TIP3    H112773   0.550   5.392   2.409
 4276TIP3    H212774   0.556   5.260   2.483
 4277TIP3   OH212775   0.649   5.187   2.611
 4277TIP3    H112776   0.587   5.141   2.668
 4277TIP3    H212777   0.718   5.216   2.670
 4278TIP3   OH212778   0.712   5.578   3.038
 4278TIP3    H112779   0.761   5.506   2.998
 4278TIP3    H212780   0.700   5.640   2.967
 4279TIP3   OH212781   0.532   5.873   3.226
 4279TIP3    H112782   0.466   5.915   3.281
 4279TIP3    H212783   0.483   5.824   3.160
 4280TIP3   OH212784   0.585   5.092   2.248
 4280TIP3    H112785   0.516   5.087   2.182
 4280TIP3    H212786   0.557   5.161   2.307
 4281TIP3   OH212787   0.454   4.763   2.200
 4281TIP3    H112788   0.413   4.790   2.118
 4281TIP3    H212789   0.437   4.668   2.205
 4282TIP3   OH212790   0.466   5.036   2.749
 4282TIP3    H112791   0.473   4.941   2.737
 4282TIP3    H212792   0.452   5.048   2.843
 4283TIP3   OH212793   0.756   5.463   3.611
 4283TIP3    H112794   0.826   5.400   3.594
 4283TIP3    H212795   0.750   5.515   3.531
 4284TIP3   OH212796   0.940   5.259   3.618
 4284TIP3    H112797   0.863   5.217   3.657
 4284TIP3    H212798   1.012   5.199   3.635
 4285TIP3   OH212799   0.401   4.498   2.187
 4285TIP3    H112800   0.482   4.471   2.231
 4285TIP3    H212801   0.336   4.434   2.216
 4286TIP3   OH212802   0.459   4.760   2.639
 4286TIP3    H112803   0.486   4.671   2.659
 4286TIP3    H212804   0.520   4.789   2.571
 4287TIP3   OH212805   0.623   4.943   3.149
 4287TIP3    H112806   0.706   4.957   3.104
 4287TIP3    H212807   0.638   4.972   3.239
 4288TIP3   OH212808   0.697   5.077   3.380
 4288TIP3    H112809   0.617   5.108   3.421
 4288TIP3    H212810   0.730   5.153   3.331
 4289TIP3   OH212811   1.143   4.663   3.925
 4289TIP3    H112812   1.203   4.600   3.886
 4289TIP3    H212813   1.112   4.715   3.851
 4290TIP3   OH212814   0.543   4.514   2.686
 4290TIP3    H112815   0.615   4.524   2.748
 4290TIP3    H212816   0.515   4.423   2.697
 4291TIP3   OH212817   1.007   4.798   3.731
 4291TIP3    H112818   0.925   4.845   3.746
 4291TIP3    H212819   0.983   4.725   3.674
 4292TIP3   OH212820   0.647   4.442   2.299
 4292TIP3    H112821   0.689   4.363   2.263
 4292TIP3    H212822   0.719   4.494   2.334
 4293TIP3   OH212823   0.217   5.956   2.587
 4293TIP3    H112824   0.273   5.954   2.509
 4293TIP3    H212825   0.253   6.027   2.640
 4294TIP3   OH212826   0.114   6.194   3.519
 4294TIP3    H112827   0.170   6.120   3.495
 4294TIP3    H212828   0.171   6.253   3.569
 4295TIP3   OH212829   0.911   4.562   3.614
 4295TIP3    H112830   0.825   4.559   3.572
 4295TIP3    H212831   0.946   4.474   3.603
 4296TIP3   OH212832   0.081   6.014   3.224
 4296TIP3    H112833   0.012   6.032   3.288
 4296TIP3    H212834   0.117   6.099   3.203
 4297TIP3   OH212835   0.316   6.204   3.160
 4297TIP3    H112836   0.296   6.283   3.110
 4297TIP3    H212837   0.333   6.137   3.094
 4298TIP3   OH212838   0.134   4.479   3.244
 4298TIP3    H112839   0.082   4.404   3.271
 4298TIP3    H212840   0.202   4.443   3.187
 4299TIP3   OH212841   0.653   4.366   3.116
 4299TIP3    H112842   0.700   4.425   3.057
 4299TIP3    H212843   0.562   4.395   3.111
 4300TIP3   OH212844   8.332   4.210   3.134
 4300TIP3    H112845   8.368   4.258   3.060
 4300TIP3    H212846   8.373   4.249   3.211
 4301TIP3   OH212847   0.349   4.365   3.112
 4301TIP3    H112848   0.363   4.331   3.024
 4301TIP3    H212849   0.342   4.287   3.168
 4302TIP3   OH212850   0.384   4.279   2.673
 4302TIP3    H112851   0.308   4.333   2.693
 4302TIP3    H212852   0.367   4.197   2.719
 4303TIP3   OH212853   8.324   4.402   2.738
 4303TIP3    H112854   8.352   4.357   2.817
 4303TIP3    H212855   8.313   4.493   2.765
 4304TIP3   OH212856   0.369   5.929   2.359
 4304TIP3    H112857   0.366   5.834   2.348
 4304TIP3    H212858   0.321   5.963   2.284
 4305TIP3   OH212859   0.653   4.527   4.045
 4305TIP3    H112860   0.670   4.498   4.134
 4305TIP3    H212861   0.739   4.525   4.002
 4306TIP3   OH212862   0.586   6.080   3.541
 4306TIP3    H112863   0.513   6.046   3.489
 4306TIP3    H212864   0.569   6.174   3.548
 4307TIP3   OH212865   1.854   5.454   2.298
 4307TIP3    H112866   1.825   5.544   2.281
 4307TIP3    H212867   1.781   5.400   2.270
 4308TIP3   OH212868   1.851   5.451   2.692
 4308TIP3    H112869   1.889   5.430   2.778
 4308TIP3    H212870   1.812   5.369   2.663
 4309TIP3   OH212871   1.153   5.344   3.048
 4309TIP3    H112872   1.175   5.272   3.108
 4309TIP3    H212873   1.228   5.403   3.054
 4310TIP3   OH212874   2.098   5.758   2.370
 4310TIP3    H112875   2.084   5.686   2.431
 4310TIP3    H212876   2.130   5.830   2.425
 4311TIP3   OH212877   1.126   5.755   2.765
 4311TIP3    H112878   1.114   5.660   2.769
 4311TIP3    H212879   1.221   5.766   2.776
 4312TIP3   OH212880   0.831   4.963   2.555
 4312TIP3    H112881   0.781   5.043   2.574
 4312TIP3    H212882   0.765   4.902   2.521
 4313TIP3   OH212883   0.894   5.240   2.731
 4313TIP3    H112884   0.933   5.164   2.775
 4313TIP3    H212885   0.958   5.265   2.664
 4314TIP3   OH212886   1.752   6.217   2.386
 4314TIP3    H112887   1.792   6.146   2.335
 4314TIP3    H212888   1.740   6.179   2.473
 4315TIP3   OH212889   1.656   5.679   2.733
 4315TIP3    H112890   1.691   5.599   2.694
 4315TIP3    H212891   1.734   5.729   2.758
 4316TIP3   OH212892   2.668   4.999   2.730
 4316TIP3    H112893   2.697   5.079   2.774
 4316TIP3    H212894   2.691   5.013   2.638
 4317TIP3   OH212895   2.066   5.177   2.760
 4317TIP3    H112896   2.108   5.095   2.785
 4317TIP3    H212897   2.032   5.161   2.673
 4318TIP3   OH212898   1.409   4.839   2.720
 4318TIP3    H112899   1.386   4.911   2.662
 4318TIP3    H212900   1.362   4.764   2.684
 4319TIP3   OH212901   2.103   4.931   2.349
 4319TIP3    H112902   2.169   4.915   2.417
 4319TIP3    H212903   2.153   4.965   2.275
 4320TIP3   OH212904   1.039   5.035   2.837
 4320TIP3    H112905   1.120   5.021   2.886
 4320TIP3    H212906   1.048   4.980   2.760
 4321TIP3   OH212907   1.478   5.236   2.631
 4321TIP3    H112908   1.570   5.214   2.645
 4321TIP3    H212909   1.438   5.154   2.601
 4322TIP3   OH212910   2.739   5.208   2.901
 4322TIP3    H112911   2.655   5.250   2.882
 4322TIP3    H212912   2.758   5.233   2.992
 4323TIP3   OH212913   1.395   4.825   3.165
 4323TIP3    H112914   1.334   4.851   3.095
 4323TIP3    H212915   1.347   4.839   3.246
 4324TIP3   OH212916   1.740   5.674   2.170
 4324TIP3    H112917   1.704   5.658   2.083
 4324TIP3    H212918   1.696   5.754   2.200
 4325TIP3   OH212919   1.507   5.601   2.955
 4325TIP3    H112920   1.446   5.665   2.993
 4325TIP3    H212921   1.550   5.648   2.884
 4326TIP3   OH212922   2.304   4.937   2.529
 4326TIP3    H112923   2.289   4.889   2.611
 4326TIP3    H212924   2.355   5.013   2.555
 4327TIP3   OH212925   1.279   4.941   2.939
 4327TIP3    H112926   1.339   5.009   2.970
 4327TIP3    H212927   1.326   4.898   2.867
 4328TIP3   OH212928   1.332   5.797   3.055
 4328TIP3    H112929   1.311   5.884   3.022
 4328TIP3    H212930   1.258   5.773   3.110
 4329TIP3   OH212931   2.163   6.000   2.532
 4329TIP3    H112932   2.077   5.988   2.572
 4329TIP3    H212933   2.158   6.086   2.490
 4330TIP3   OH212934   2.460   4.898   2.895
 4330TIP3    H112935   2.374   4.925   2.864
 4330TIP3    H212936   2.520   4.929   2.828
 4331TIP3   OH212937   1.750   4.537   2.882
 4331TIP3    H112938   1.738   4.444   2.898
 4331TIP3    H212939   1.676   4.579   2.927
 4332TIP3   OH212940   1.865   6.042   2.200
 4332TIP3    H112941   1.911   5.959   2.187
 4332TIP3    H212942   1.924   6.108   2.163
 4333TIP3   OH212943   2.011   5.827   2.118
 4333TIP3    H112944   1.978   5.748   2.077
 4333TIP3    H212945   2.049   5.798   2.201
 4334TIP3   OH212946   2.392   5.910   2.874
 4334TIP3    H112947   2.380   5.832   2.819
 4334TIP3    H212948   2.376   5.983   2.815
 4335TIP3   OH212949   1.683   5.305   2.133
 4335TIP3    H112950   1.607   5.357   2.111
 4335TIP3    H212951   1.733   5.299   2.052
 4336TIP3   OH212952   1.646   5.092   1.847
 4336TIP3    H112953   1.710   5.143   1.896
 4336TIP3    H212954   1.698   5.027   1.800
 4337TIP3   OH212955   2.586   5.551   2.721
 4337TIP3    H112956   2.503   5.599   2.728
 4337TIP3    H212957   2.618   5.571   2.634
 4338TIP3   OH212958   2.035   5.388   2.106
 4338TIP3    H112959   1.979   5.410   2.181
 4338TIP3    H212960   2.118   5.361   2.145
 4339TIP3   OH212961   2.264   5.425   3.023
 4339TIP3    H112962   2.265   5.506   3.074
 4339TIP3    H212963   2.181   5.427   2.977
 4340TIP3   OH212964   1.269   5.385   2.526
 4340TIP3    H112965   1.219   5.328   2.468
 4340TIP3    H212966   1.342   5.330   2.556
 4341TIP3   OH212967   1.405   5.801   2.665
 4341TIP3    H112968   1.380   5.746   2.591
 4341TIP3    H212969   1.492   5.768   2.690
 4342TIP3   OH212970   1.403   5.356   2.875
 4342TIP3    H112971   1.436   5.331   2.789
 4342TIP3    H212972   1.444   5.440   2.894
 4343TIP3   OH212973   1.925   5.993   2.656
 4343TIP3    H112974   1.914   6.071   2.709
 4343TIP3    H212975   1.910   5.920   2.716
 4344TIP3   OH212976   1.536   5.912   3.201
 4344TIP3    H112977   1.479   5.973   3.249
 4344TIP3    H212978   1.476   5.857   3.150
 4345TIP3   OH212979   1.871   5.250   1.931
 4345TIP3    H112980   1.929   5.305   1.982
 4345TIP3    H212981   1.895   5.267   1.840
 4346TIP3   OH212982   1.291   5.469   3.304
 4346TIP3    H112983   1.299   5.555   3.346
 4346TIP3    H212984   1.200   5.444   3.319
 4347TIP3   OH212985   1.616   5.924   2.207
 4347TIP3    H112986   1.699   5.970   2.217
 4347TIP3    H212987   1.558   5.987   2.165
 4348TIP3   OH212988   1.330   6.077   3.290
 4348TIP3    H112989   1.297   6.078   3.200
 4348TIP3    H212990   1.253   6.055   3.344
 4349TIP3   OH212991   2.387   4.485   1.982
 4349TIP3    H112992   2.307   4.503   2.031
 4349TIP3    H212993   2.403   4.565   1.932
 4350TIP3   OH212994   1.107   5.233   2.338
 4350TIP3    H112995   1.101   5.236   2.243
 4350TIP3    H212996   1.094   5.140   2.359
 4351TIP3   OH212997   2.191   5.851   1.532
 4351TIP3    H112998   2.197   5.945   1.516
 4351TIP3    H212999   2.280   5.819   1.519
 4352TIP3   OH213000   0.916   5.610   3.233
 4352TIP3    H113001   0.839   5.594   3.179
 4352TIP3    H213002   0.948   5.522   3.255
 4353TIP3   OH213003   0.767   5.812   2.853
 4353TIP3    H113004   0.861   5.803   2.866
 4353TIP3    H213005   0.740   5.879   2.916
 4354TIP3   OH213006   2.619   6.252   2.922
 4354TIP3    H113007   2.624   6.157   2.938
 4354TIP3    H213008   2.541   6.280   2.969
 4355TIP3   OH213009   1.732   6.042   3.060
 4355TIP3    H113010   1.732   6.133   3.090
 4355TIP3    H213011   1.664   5.999   3.111
 4356TIP3   OH213012   1.499   6.169   2.009
 4356TIP3    H113013   1.451   6.150   1.929
 4356TIP3    H213014   1.465   6.253   2.038
 4357TIP3   OH213015   0.925   6.005   2.397
 4357TIP3    H113016   0.978   6.000   2.476
 4357TIP3    H213017   0.840   5.969   2.422
 4358TIP3   OH213018   1.702   6.071   1.649
 4358TIP3    H113019   1.757   6.002   1.613
 4358TIP3    H213020   1.733   6.081   1.739
 4359TIP3   OH213021   1.750   6.119   1.920
 4359TIP3    H113022   1.663   6.129   1.958
 4359TIP3    H213023   1.802   6.079   1.990
 4360TIP3   OH213024   2.517   5.382   3.199
 4360TIP3    H113025   2.435   5.394   3.151
 4360TIP3    H213026   2.537   5.289   3.192
 4361TIP3   OH213027   1.116   5.794   3.220
 4361TIP3    H113028   1.164   5.780   3.301
 4361TIP3    H213029   1.044   5.732   3.223
 4362TIP3   OH213030   1.512   4.618   3.011
 4362TIP3    H113031   1.428   4.584   2.979
 4362TIP3    H213032   1.488   4.697   3.059
 4363TIP3   OH213033   2.051   4.730   3.205
 4363TIP3    H113034   2.120   4.702   3.266
 4363TIP3    H213035   1.969   4.711   3.251
 4364TIP3   OH213036   2.285   5.162   3.123
 4364TIP3    H113037   2.236   5.158   3.205
 4364TIP3    H213038   2.262   5.247   3.086
 4365TIP3   OH213039   1.950   5.290   1.676
 4365TIP3    H113040   1.912   5.266   1.591
 4365TIP3    H213041   2.034   5.330   1.654
 4366TIP3   OH213042   1.659   4.663   1.982
 4366TIP3    H113043   1.627   4.662   2.073
 4366TIP3    H213044   1.622   4.584   1.943
 4367TIP3   OH213045   1.450   5.138   3.029
 4367TIP3    H113046   1.398   5.152   3.109
 4367TIP3    H213047   1.434   5.216   2.976
 4368TIP3   OH213048   1.324   5.021   2.537
 4368TIP3    H113049   1.237   4.990   2.562
 4368TIP3    H213050   1.341   4.980   2.453
 4369TIP3   OH213051   1.822   5.105   2.269
 4369TIP3    H113052   1.772   5.174   2.227
 4369TIP3    H213053   1.878   5.069   2.200
 4370TIP3   OH213054   1.998   5.378   3.356
 4370TIP3    H113055   1.973   5.308   3.415
 4370TIP3    H213056   2.091   5.394   3.375
 4371TIP3   OH213057   1.978   5.128   2.502
 4371TIP3    H113058   1.914   5.157   2.437
 4371TIP3    H213059   2.017   5.049   2.464
 4372TIP3   OH213060   1.267   5.159   3.234
 4372TIP3    H113061   1.289   5.222   3.302
 4372TIP3    H213062   1.254   5.076   3.281
 4373TIP3   OH213063   1.316   4.642   1.946
 4373TIP3    H113064   1.309   4.635   2.041
 4373TIP3    H213065   1.238   4.689   1.919
 4374TIP3   OH213066   0.842   4.681   2.346
 4374TIP3    H113067   0.882   4.708   2.263
 4374TIP3    H213068   0.772   4.744   2.360
 4375TIP3   OH213069   1.987   5.374   2.927
 4375TIP3    H113070   2.022   5.308   2.867
 4375TIP3    H213071   1.958   5.324   3.003
 4376TIP3   OH213072   1.664   4.844   2.602
 4376TIP3    H113073   1.583   4.840   2.653
 4376TIP3    H213074   1.734   4.832   2.667
 4377TIP3   OH213075   1.093   4.895   2.606
 4377TIP3    H113076   1.001   4.902   2.580
 4377TIP3    H213077   1.114   4.802   2.594
 4378TIP3   OH213078   1.359   4.898   2.298
 4378TIP3    H113079   1.453   4.904   2.279
 4378TIP3    H213080   1.317   4.913   2.213
 4379TIP3   OH213081   2.148   4.916   2.806
 4379TIP3    H113082   2.120   4.931   2.896
 4379TIP3    H213083   2.083   4.856   2.770
 4380TIP3   OH213084   1.202   4.942   2.074
 4380TIP3    H113085   1.134   4.886   2.036
 4380TIP3    H213086   1.254   4.970   1.998
 4381TIP3   OH213087   2.325   6.607   3.025
 4381TIP3    H113088   2.323   6.628   2.932
 4381TIP3    H213089   2.404   6.650   3.058
 4382TIP3   OH213090   1.279   5.717   3.446
 4382TIP3    H113091   1.359   5.746   3.491
 4382TIP3    H213092   1.213   5.712   3.515
 4383TIP3   OH213093   1.740   5.171   2.702
 4383TIP3    H113094   1.811   5.128   2.654
 4383TIP3    H213095   1.740   5.129   2.788
 4384TIP3   OH213096   1.264   4.651   2.583
 4384TIP3    H113097   1.222   4.585   2.638
 4384TIP3    H213098   1.312   4.601   2.517
 4385TIP3   OH213099   1.717   5.074   2.983
 4385TIP3    H113100   1.628   5.104   3.002
 4385TIP3    H213101   1.773   5.131   3.035
 4386TIP3   OH213102   1.445   5.455   2.080
 4386TIP3    H113103   1.377   5.389   2.072
 4386TIP3    H213104   1.434   5.490   2.169
 4387TIP3   OH213105   2.352   5.694   2.708
 4387TIP3    H113106   2.377   5.743   2.630
 4387TIP3    H213107   2.270   5.650   2.684
 4388TIP3   OH213108   1.910   4.768   1.949
 4388TIP3    H113109   1.817   4.747   1.959
 4388TIP3    H213110   1.916   4.860   1.976
 4389TIP3   OH213111   1.855   5.778   3.081
 4389TIP3    H113112   1.883   5.753   3.169
 4389TIP3    H213113   1.814   5.864   3.092
 4390TIP3   OH213114   1.981   5.018   2.052
 4390TIP3    H113115   2.075   5.021   2.069
 4390TIP3    H213116   1.963   5.097   2.001
 4391TIP3   OH213117   1.149   5.481   2.760
 4391TIP3    H113118   1.190   5.449   2.679
 4391TIP3    H213119   1.182   5.423   2.828
 4392TIP3   OH213120   1.598   5.607   1.908
 4392TIP3    H113121   1.552   5.691   1.910
 4392TIP3    H213122   1.547   5.550   1.966
 4393TIP3   OH213123   1.032   5.393   3.373
 4393TIP3    H113124   1.040   5.378   3.468
 4393TIP3    H213125   0.959   5.337   3.346
 4394TIP3   OH213126   1.756   5.514   3.391
 4394TIP3    H113127   1.692   5.455   3.352
 4394TIP3    H213128   1.841   5.479   3.364
 4395TIP3   OH213129   2.010   6.043   2.976
 4395TIP3    H113130   1.916   6.034   2.989
 4395TIP3    H213131   2.041   6.089   3.054
 4396TIP3   OH213132   2.418   5.111   1.883
 4396TIP3    H113133   2.358   5.064   1.824
 4396TIP3    H213134   2.420   5.200   1.848
 4397TIP3   OH213135   2.641   5.966   2.963
 4397TIP3    H113136   2.545   5.959   2.958
 4397TIP3    H213137   2.671   5.937   2.877
 4398TIP3   OH213138   2.132   5.933   1.797
 4398TIP3    H113139   2.100   5.868   1.860
 4398TIP3    H213140   2.140   5.885   1.715
 4399TIP3   OH213141   2.118   5.554   2.624
 4399TIP3    H113142   2.026   5.532   2.641
 4399TIP3    H213143   2.154   5.476   2.583
 4400TIP3   OH213144   1.239   5.781   2.373
 4400TIP3    H113145   1.257   5.857   2.316
 4400TIP3    H213146   1.165   5.809   2.427
 4401TIP3   OH213147   0.804   5.079   2.089
 4401TIP3    H113148   0.835   5.170   2.092
 4401TIP3    H213149   0.731   5.077   2.150
 4402TIP3   OH213150   1.379   5.546   2.325
 4402TIP3    H113151   1.339   5.632   2.341
 4402TIP3    H213152   1.352   5.492   2.399
 4403TIP3   OH213153   1.522   6.127   2.852
 4403TIP3    H113154   1.563   6.198   2.803
 4403TIP3    H213155   1.593   6.087   2.901
 4404TIP3   OH213156   1.163   6.028   2.234
 4404TIP3    H113157   1.080   6.031   2.281
 4404TIP3    H213158   1.196   6.118   2.239
 4405TIP3   OH213159   1.905   5.761   2.814
 4405TIP3    H113160   1.891   5.761   2.909
 4405TIP3    H213161   1.982   5.706   2.801
 4406TIP3   OH213162   1.883   5.658   1.699
 4406TIP3    H113163   1.938   5.634   1.774
 4406TIP3    H213164   1.796   5.625   1.722
 4407TIP3   OH213165   2.151   6.291   2.864
 4407TIP3    H113166   2.076   6.232   2.863
 4407TIP3    H213167   2.135   6.353   2.792
 4408TIP3   OH213168   2.213   6.128   1.510
 4408TIP3    H113169   2.223   6.179   1.429
 4408TIP3    H213170   2.141   6.171   1.556
 4409TIP3   OH213171   1.236   4.905   3.380
 4409TIP3    H113172   1.140   4.906   3.383
 4409TIP3    H213173   1.262   4.846   3.451
 4410TIP3   OH213174   2.045   5.587   1.913
 4410TIP3    H113175   2.030   5.522   1.982
 4410TIP3    H213176   2.140   5.585   1.898
 4411TIP3   OH213177   0.962   5.984   3.011
 4411TIP3    H113178   1.011   5.913   3.054
 4411TIP3    H213179   0.973   6.059   3.069
 4412TIP3   OH213180   1.245   5.634   1.700
 4412TIP3    H113181   1.256   5.545   1.667
 4412TIP3    H213182   1.223   5.623   1.792
 4413TIP3   OH213183   1.192   5.643   1.974
 4413TIP3    H113184   1.273   5.614   2.017
 4413TIP3    H213185   1.196   5.739   1.977
 4414TIP3   OH213186   2.079   4.967   3.066
 4414TIP3    H113187   2.158   5.006   3.102
 4414TIP3    H213188   2.066   4.888   3.118
 4415TIP3   OH213189   1.959   4.718   2.231
 4415TIP3    H113190   1.946   4.739   2.139
 4415TIP3    H213191   1.999   4.798   2.268
 4416TIP3   OH213192   1.453   5.836   1.916
 4416TIP3    H113193   1.369   5.861   1.954
 4416TIP3    H213194   1.473   5.906   1.854
 4417TIP3   OH213195   1.642   4.904   2.334
 4417TIP3    H113196   1.705   4.974   2.315
 4417TIP3    H213197   1.648   4.890   2.428
 4418TIP3   OH213198   1.918   5.216   3.137
 4418TIP3    H113199   1.940   5.267   3.215
 4418TIP3    H213200   1.969   5.135   3.146
 4419TIP3   OH213201   1.789   4.623   2.432
 4419TIP3    H113202   1.784   4.697   2.492
 4419TIP3    H213203   1.849   4.653   2.363
 4420TIP3   OH213204   1.200   5.914   1.987
 4420TIP3    H113205   1.174   5.981   1.923
 4420TIP3    H213206   1.186   5.956   2.072
 4421TIP3   OH213207   1.304   4.628   2.221
 4421TIP3    H113208   1.295   4.711   2.268
 4421TIP3    H213209   1.397   4.607   2.227
 4422TIP3   OH213210   2.551   5.117   3.118
 4422TIP3    H113211   2.455   5.119   3.128
 4422TIP3    H213212   2.565   5.068   3.037
 4423TIP3   OH213213   2.206   5.310   2.507
 4423TIP3    H113214   2.129   5.254   2.520
 4423TIP3    H213215   2.276   5.266   2.554
 4424TIP3   OH213216   0.934   5.562   2.012
 4424TIP3    H113217   1.005   5.619   1.984
 4424TIP3    H213218   0.956   5.477   1.975
 4425TIP3   OH213219   0.865   4.812   2.105
 4425TIP3    H113220   0.858   4.907   2.102
 4425TIP3    H213221   0.785   4.781   2.063
 4426TIP3   OH213222   2.179   6.272   2.455
 4426TIP3    H113223   2.131   6.316   2.385
 4426TIP3    H213224   2.271   6.291   2.437
 4427TIP3   OH213225   1.251   4.536   2.974
 4427TIP3    H113226   1.217   4.508   2.890
 4427TIP3    H213227   1.235   4.462   3.033
 4428TIP3   OH213228   0.950   6.300   3.433
 4428TIP3    H113229   1.033   6.301   3.479
 4428TIP3    H213230   0.924   6.208   3.432
 4429TIP3   OH213231   1.427   6.257   3.477
 4429TIP3    H113232   1.520   6.238   3.486
 4429TIP3    H213233   1.397   6.198   3.409
 4430TIP3   OH213234   1.410   5.832   1.607
 4430TIP3    H113235   1.355   5.765   1.646
 4430TIP3    H213236   1.485   5.784   1.573
 4431TIP3   OH213237   2.068   6.167   3.215
 4431TIP3    H113238   2.058   6.099   3.281
 4431TIP3    H213239   2.143   6.219   3.244
 4432TIP3   OH213240   1.846   5.874   1.522
 4432TIP3    H113241   1.881   5.808   1.581
 4432TIP3    H213242   1.901   5.868   1.444
 4433TIP3   OH213243   1.081   5.703   3.639
 4433TIP3    H113244   1.096   5.609   3.644
 4433TIP3    H213245   0.998   5.712   3.592
 4434TIP3   OH213246   1.052   5.359   1.848
 4434TIP3    H113247   1.112   5.321   1.912
 4434TIP3    H213248   1.104   5.366   1.767
 4435TIP3   OH213249   1.684   5.790   3.407
 4435TIP3    H113250   1.642   5.809   3.323
 4435TIP3    H213251   1.714   5.700   3.399
 4436TIP3   OH213252   1.569   5.551   1.640
 4436TIP3    H113253   1.572   5.565   1.734
 4436TIP3    H213254   1.572   5.456   1.630
 4437TIP3   OH213255   2.176   5.804   3.015
 4437TIP3    H113256   2.253   5.844   2.973
 4437TIP3    H213257   2.105   5.867   3.000
 4438TIP3   OH213258   1.201   5.443   3.622
 4438TIP3    H113259   1.274   5.387   3.593
 4438TIP3    H213260   1.228   5.474   3.708
 4439TIP3   OH213261   1.256   5.244   2.057
 4439TIP3    H113262   1.266   5.187   2.134
 4439TIP3    H213263   1.291   5.193   1.984
 4440TIP3   OH213264   1.533   5.328   3.281
 4440TIP3    H113265   1.454   5.381   3.281
 4440TIP3    H213266   1.583   5.357   3.205
 4441TIP3   OH213267   1.366   5.063   1.885
 4441TIP3    H113268   1.341   5.063   1.793
 4441TIP3    H213269   1.462   5.059   1.884
 4442TIP3   OH213270   2.051   5.724   3.412
 4442TIP3    H113271   2.128   5.694   3.364
 4442TIP3    H213272   2.041   5.661   3.484
 4443TIP3   OH213273   2.180   5.383   1.555
 4443TIP3    H113274   2.164   5.336   1.474
 4443TIP3    H213275   2.148   5.472   1.538
 4444TIP3   OH213276   1.655   5.113   3.401
 4444TIP3    H113277   1.655   5.035   3.346
 4444TIP3    H213278   1.612   5.180   3.348
 4445TIP3   OH213279   1.656   4.900   3.210
 4445TIP3    H113280   1.686   4.938   3.127
 4445TIP3    H213281   1.564   4.878   3.194
 4446TIP3   OH213282   1.681   5.432   3.085
 4446TIP3    H113283   1.767   5.442   3.043
 4446TIP3    H213284   1.625   5.496   3.040
 4447TIP3   OH213285   2.265   5.398   3.464
 4447TIP3    H113286   2.308   5.314   3.479
 4447TIP3    H213287   2.333   5.454   3.428
 4448TIP3   OH213288   2.307   5.656   3.199
 4448TIP3    H113289   2.248   5.708   3.144
 4448TIP3    H213290   2.394   5.673   3.164
 4449TIP3   OH213291   1.534   5.216   3.637
 4449TIP3    H113292   1.467   5.150   3.654
 4449TIP3    H213293   1.568   5.195   3.551
 4450TIP3   OH213294   1.787   4.661   3.281
 4450TIP3    H113295   1.739   4.741   3.259
 4450TIP3    H213296   1.722   4.591   3.270
 4451TIP3   OH213297   1.912   5.162   3.498
 4451TIP3    H113298   1.903   5.147   3.592
 4451TIP3    H213299   1.827   5.139   3.461
 4452TIP3   OH213300   2.153   5.115   3.354
 4452TIP3    H113301   2.079   5.115   3.414
 4452TIP3    H213302   2.227   5.084   3.406
 4453TIP3   OH213303   2.382   5.055   3.501
 4453TIP3    H113304   2.396   4.961   3.515
 4453TIP3    H213305   2.379   5.092   3.590
 4454TIP3   OH213306   1.374   4.997   3.694
 4454TIP3    H113307   1.375   4.909   3.657
 4454TIP3    H213308   1.411   4.987   3.782
 4455TIP3   OH213309   1.883   4.669   3.538
 4455TIP3    H113310   1.948   4.600   3.535
 4455TIP3    H213311   1.841   4.666   3.452
 4456TIP3   OH213312   1.949   4.886   3.696
 4456TIP3    H113313   1.930   4.814   3.635
 4456TIP3    H213314   1.872   4.943   3.691
 4457TIP3   OH213315   1.178   6.118   1.803
 4457TIP3    H113316   1.269   6.110   1.776
 4457TIP3    H213317   1.134   6.158   1.729
 4458TIP3   OH213318   0.661   5.491   2.013
 4458TIP3    H113319   0.746   5.508   1.973
 4458TIP3    H213320   0.634   5.407   1.976
 4459TIP3   OH213321   0.569   6.106   2.430
 4459TIP3    H113322   0.501   6.048   2.393
 4459TIP3    H213323   0.612   6.052   2.496
 4460TIP3   OH213324   0.716   5.960   2.612
 4460TIP3    H113325   0.696   5.887   2.671
 4460TIP3    H213326   0.761   6.023   2.667
 4461TIP3   OH213327   2.429   6.374   2.415
 4461TIP3    H113328   2.452   6.387   2.507
 4461TIP3    H213329   2.508   6.395   2.366
 4462TIP3   OH213330   2.459   6.373   2.696
 4462TIP3    H113331   2.410   6.291   2.694
 4462TIP3    H213332   2.535   6.355   2.751
 4463TIP3   OH213333   2.502   6.059   3.270
 4463TIP3    H113334   2.432   6.065   3.335
 4463TIP3    H213335   2.546   6.143   3.273
 4464TIP3   OH213336   2.322   5.568   1.890
 4464TIP3    H113337   2.387   5.631   1.857
 4464TIP3    H213338   2.363   5.530   1.968
 4465TIP3   OH213339   2.447   5.437   2.095
 4465TIP3    H113340   2.383   5.395   2.152
 4465TIP3    H213341   2.514   5.470   2.155
 4466TIP3   OH213342   2.504   5.829   2.520
 4466TIP3    H113343   2.557   5.761   2.480
 4466TIP3    H213344   2.500   5.899   2.455
 4467TIP3   OH213345   2.329   6.130   2.716
 4467TIP3    H113346   2.260   6.168   2.770
 4467TIP3    H213347   2.283   6.082   2.647
 4468TIP3   OH213348   2.382   5.347   1.738
 4468TIP3    H113349   2.314   5.345   1.671
 4468TIP3    H213350   2.357   5.419   1.795
 4469TIP3   OH213351   2.253   5.016   1.690
 4469TIP3    H113352   2.211   5.051   1.611
 4469TIP3    H213353   2.235   4.922   1.687
 4470TIP3   OH213354   2.260   5.293   2.239
 4470TIP3    H113355   2.269   5.198   2.229
 4470TIP3    H213356   2.246   5.307   2.333
 4471TIP3   OH213357   0.888   5.369   2.980
 4471TIP3    H113358   0.885   5.336   2.891
 4471TIP3    H213359   0.982   5.371   3.001
 4472TIP3   OH213360   2.554   5.719   3.095
 4472TIP3    H113361   2.621   5.651   3.086
 4472TIP3    H213362   2.579   5.787   3.033
 4473TIP3   OH213363   2.734   5.516   3.106
 4473TIP3    H113364   2.659   5.471   3.144
 4473TIP3    H213365   2.808   5.457   3.121
 4474TIP3   OH213366   2.200   4.751   1.676
 4474TIP3    H113367   2.272   4.719   1.730
 4474TIP3    H213368   2.127   4.693   1.697
 4475TIP3   OH213369   2.261   5.008   2.128
 4475TIP3    H113370   2.297   4.922   2.146
 4475TIP3    H213371   2.316   5.043   2.058
 4476TIP3   OH213372   2.420   5.183   2.628
 4476TIP3    H113373   2.502   5.204   2.585
 4476TIP3    H213374   2.430   5.216   2.717
 4477TIP3   OH213375   2.489   5.329   2.857
 4477TIP3    H113376   2.414   5.360   2.907
 4477TIP3    H213377   2.523   5.407   2.813
 4478TIP3   OH213378   1.108   5.050   3.665
 4478TIP3    H113379   1.203   5.046   3.664
 4478TIP3    H213380   1.081   4.965   3.700
 4479TIP3   OH213381   2.938   4.919   3.411
 4479TIP3    H113382   2.999   4.856   3.375
 4479TIP3    H213383   2.910   4.972   3.336
 4480TIP3   OH213384   2.366   4.759   2.172
 4480TIP3    H113385   2.415   4.745   2.253
 4480TIP3    H213386   2.305   4.685   2.168
 4481TIP3   OH213387   1.088   4.764   3.065
 4481TIP3    H113388   1.112   4.679   3.030
 4481TIP3    H213389   1.138   4.827   3.012
 4482TIP3   OH213390   0.867   5.022   3.064
 4482TIP3    H113391   0.916   5.000   2.985
 4482TIP3    H213392   0.906   5.104   3.094
 4483TIP3   OH213393   2.806   5.055   3.214
 4483TIP3    H113394   2.724   5.099   3.237
 4483TIP3    H213395   2.780   4.981   3.160
 4484TIP3   OH213396   2.446   4.692   1.803
 4484TIP3    H113397   2.483   4.621   1.750
 4484TIP3    H213398   2.512   4.761   1.801
 4485TIP3   OH213399   0.842   4.484   2.542
 4485TIP3    H113400   0.827   4.509   2.633
 4485TIP3    H213401   0.845   4.567   2.494
 4486TIP3   OH213402   2.010   6.228   2.070
 4486TIP3    H113403   2.064   6.217   1.992
 4486TIP3    H213404   2.064   6.282   2.129
 4487TIP3   OH213405   1.073   4.600   3.380
 4487TIP3    H113406   1.020   4.602   3.460
 4487TIP3    H213407   1.018   4.641   3.313
 4488TIP3   OH213408   1.110   6.032   3.455
 4488TIP3    H113409   1.020   6.008   3.436
 4488TIP3    H213410   1.123   6.008   3.547
 4489TIP3   OH213411   1.295   6.067   3.000
 4489TIP3    H113412   1.242   6.139   2.965
 4489TIP3    H213413   1.380   6.078   2.958
 4490TIP3   OH213414   1.736   6.308   3.140
 4490TIP3    H113415   1.774   6.304   3.228
 4490TIP3    H213416   1.799   6.358   3.088
 4491TIP3   OH213417   1.916   6.462   3.002
 4491TIP3    H113418   1.983   6.407   2.961
 4491TIP3    H213419   1.964   6.518   3.062
 4492TIP3   OH213420   2.710   4.815   3.098
 4492TIP3    H113421   2.620   4.806   3.066
 4492TIP3    H213422   2.747   4.727   3.091
 4493TIP3   OH213423   0.965   6.323   3.027
 4493TIP3    H113424   0.876   6.352   3.004
 4493TIP3    H213425   0.981   6.361   3.114
 4494TIP3   OH213426   1.201   6.300   2.885
 4494TIP3    H113427   1.117   6.310   2.930
 4494TIP3    H213428   1.184   6.331   2.796
 4495TIP3   OH213429   1.628   6.328   2.682
 4495TIP3    H113430   1.557   6.344   2.619
 4495TIP3    H213431   1.640   6.412   2.726
 4496TIP3   OH213432   1.897   6.266   2.734
 4496TIP3    H113433   1.805   6.281   2.715
 4496TIP3    H213434   1.942   6.340   2.694
 4497TIP3   OH213435   2.105   6.457   2.647
 4497TIP3    H113436   2.091   6.539   2.600
 4497TIP3    H213437   2.133   6.395   2.579
 4498TIP3   OH213438   0.887   6.113   2.771
 4498TIP3    H113439   0.905   6.085   2.861
 4498TIP3    H213440   0.954   6.068   2.719
 4499TIP3   OH213441   1.076   5.980   2.623
 4499TIP3    H113442   1.085   5.901   2.676
 4499TIP3    H213443   1.163   6.020   2.625
 4500TIP3   OH213444   1.343   6.073   2.638
 4500TIP3    H113445   1.370   5.982   2.628
 4500TIP3    H213446   1.387   6.103   2.718
 4501TIP3   OH213447   1.911   4.731   2.717
 4501TIP3    H113448   1.870   4.663   2.770
 4501TIP3    H213449   1.986   4.687   2.676
 4502TIP3   OH213450   2.433   4.617   2.620
 4502TIP3    H113451   2.470   4.667   2.547
 4502TIP3    H213452   2.339   4.634   2.616
 4503TIP3   OH213453   2.533   4.716   2.385
 4503TIP3    H113454   2.604   4.662   2.349
 4503TIP3    H213455   2.564   4.806   2.373
 4504TIP3   OH213456   1.162   4.444   2.728
 4504TIP3    H113457   1.070   4.416   2.729
 4504TIP3    H213458   1.212   4.362   2.725
 4505TIP3   OH213459   0.931   4.304   2.359
 4505TIP3    H113460   0.977   4.365   2.301
 4505TIP3    H213461   0.905   4.358   2.434
 4506TIP3   OH213462   1.609   4.476   2.613
 4506TIP3    H113463   1.668   4.522   2.553
 4506TIP3    H213464   1.629   4.512   2.699
 4507TIP3   OH213465   2.150   4.621   2.598
 4507TIP3    H113466   2.153   4.581   2.511
 4507TIP3    H213467   2.140   4.546   2.658
 4508TIP3   OH213468   2.181   4.547   2.163
 4508TIP3    H113469   2.097   4.590   2.178
 4508TIP3    H213470   2.172   4.461   2.206
 4509TIP3   OH213471   0.682   5.853   2.162
 4509TIP3    H113472   0.590   5.838   2.141
 4509TIP3    H213473   0.692   5.948   2.161
 4510TIP3   OH213474   1.072   4.478   2.138
 4510TIP3    H113475   1.116   4.410   2.085
 4510TIP3    H213476   1.144   4.527   2.177
 4511TIP3   OH213477   1.580   4.653   2.246
 4511TIP3    H113478   1.634   4.599   2.303
 4511TIP3    H213479   1.602   4.743   2.270
 4512TIP3   OH213480   1.442   6.070   1.739
 4512TIP3    H113481   1.529   6.093   1.707
 4512TIP3    H213482   1.416   5.995   1.684
 4513TIP3   OH213483   2.161   6.201   1.843
 4513TIP3    H113484   2.161   6.106   1.835
 4513TIP3    H213485   2.118   6.231   1.763
 4514TIP3   OH213486   1.371   4.723   3.630
 4514TIP3    H113487   1.334   4.653   3.683
 4514TIP3    H213488   1.464   4.725   3.654
 4515TIP3   OH213489   1.622   4.720   3.745
 4515TIP3    H113490   1.705   4.698   3.704
 4515TIP3    H213491   1.609   4.652   3.811
 4516TIP3   OH213492   0.743   5.852   1.824
 4516TIP3    H113493   0.741   5.923   1.887
 4516TIP3    H213494   0.835   5.847   1.797
 4517TIP3   OH213495   2.449   4.785   3.533
 4517TIP3    H113496   2.464   4.754   3.622
 4517TIP3    H213497   2.536   4.780   3.492
 4518TIP3   OH213498   2.377   6.337   3.025
 4518TIP3    H113499   2.302   6.304   2.976
 4518TIP3    H213500   2.361   6.431   3.034
 4519TIP3   OH213501   3.651   5.711   1.785
 4519TIP3    H113502   3.622   5.801   1.767
 4519TIP3    H213503   3.577   5.657   1.757
 4520TIP3   OH213504   3.652   5.706   2.177
 4520TIP3    H113505   3.687   5.686   2.264
 4520TIP3    H213506   3.609   5.626   2.149
 4521TIP3   OH213507   2.947   5.601   2.540
 4521TIP3    H113508   2.974   5.532   2.601
 4521TIP3    H213509   3.023   5.658   2.533
 4522TIP3   OH213510   3.897   6.013   1.857
 4522TIP3    H113511   3.877   5.944   1.920
 4522TIP3    H213512   3.925   6.087   1.911
 4523TIP3   OH213513   2.918   6.013   2.249
 4523TIP3    H113514   2.911   5.918   2.256
 4523TIP3    H213515   3.012   6.030   2.258
 4524TIP3   OH213516   2.626   5.215   2.040
 4524TIP3    H113517   2.581   5.298   2.061
 4524TIP3    H213518   2.557   5.161   2.001
 4525TIP3   OH213519   2.685   5.500   2.222
 4525TIP3    H113520   2.732   5.424   2.257
 4525TIP3    H213521   2.746   5.539   2.159
 4526TIP3   OH213522   3.541   6.476   1.865
 4526TIP3    H113523   3.585   6.401   1.826
 4526TIP3    H213524   3.529   6.451   1.957
 4527TIP3   OH213525   3.451   5.934   2.219
 4527TIP3    H113526   3.488   5.857   2.177
 4527TIP3    H213527   3.527   5.986   2.246
 4528TIP3   OH213528   4.465   5.257   2.218
 4528TIP3    H113529   4.494   5.337   2.262
 4528TIP3    H213530   4.481   5.274   2.125
 4529TIP3   OH213531   3.863   5.433   2.248
 4529TIP3    H113532   3.904   5.350   2.272
 4529TIP3    H213533   3.829   5.418   2.160
 4530TIP3   OH213534   3.200   5.095   2.212
 4530TIP3    H113535   3.182   5.168   2.153
 4530TIP3    H213536   3.154   5.021   2.174
 4531TIP3   OH213537   3.899   5.187   1.836
 4531TIP3    H113538   3.965   5.172   1.904
 4531TIP3    H213539   3.949   5.222   1.762
 4532TIP3   OH213540   2.835   5.295   2.323
 4532TIP3    H113541   2.915   5.279   2.373
 4532TIP3    H213542   2.845   5.242   2.244
 4533TIP3   OH213543   3.273   5.492   2.120
 4533TIP3    H113544   3.365   5.471   2.132
 4533TIP3    H213545   3.234   5.411   2.087
 4534TIP3   OH213546   4.536   5.468   2.386
 4534TIP3    H113547   4.452   5.508   2.366
 4534TIP3    H213548   4.549   5.483   2.480
 4535TIP3   OH213549   3.194   5.079   2.651
 4535TIP3    H113550   3.137   5.115   2.583
 4535TIP3    H213551   3.145   5.093   2.733
 4536TIP3   OH213552   3.539   5.932   1.656
 4536TIP3    H113553   3.499   5.913   1.571
 4536TIP3    H213554   3.495   6.012   1.686
 4537TIP3   OH213555   3.302   5.857   2.443
 4537TIP3    H113556   3.241   5.921   2.480
 4537TIP3    H213557   3.345   5.904   2.371
 4538TIP3   OH213558   4.101   5.193   2.016
 4538TIP3    H113559   4.081   5.148   2.098
 4538TIP3    H213560   4.150   5.270   2.043
 4539TIP3   OH213561   3.070   5.194   2.433
 4539TIP3    H113562   3.127   5.266   2.460
 4539TIP3    H213563   3.117   5.152   2.360
 4540TIP3   OH213564   3.127   6.048   2.532
 4540TIP3    H113565   3.139   6.138   2.503
 4540TIP3    H213566   3.047   6.051   2.586
 4541TIP3   OH213567   2.521   5.740   1.777
 4541TIP3    H113568   2.482   5.765   1.694
 4541TIP3    H213569   2.556   5.822   1.813
 4542TIP3   OH213570   3.962   6.259   2.019
 4542TIP3    H113571   3.877   6.245   2.061
 4542TIP3    H213572   3.953   6.342   1.974
 4543TIP3   OH213573   4.256   5.156   2.383
 4543TIP3    H113574   4.169   5.181   2.352
 4543TIP3    H213575   4.315   5.187   2.314
 4544TIP3   OH213576   3.545   4.793   2.368
 4544TIP3    H113577   3.534   4.699   2.386
 4544TIP3    H213578   3.471   4.834   2.413
 4545TIP3   OH213579   3.666   6.298   1.689
 4545TIP3    H113580   3.712   6.215   1.673
 4545TIP3    H213581   3.724   6.365   1.653
 4546TIP3   OH213582   3.809   6.082   1.606
 4546TIP3    H113583   3.767   6.005   1.568
 4546TIP3    H213584   3.847   6.051   1.688
 4547TIP3   OH213585   4.189   6.166   2.361
 4547TIP3    H113586   4.175   6.088   2.307
 4547TIP3    H213587   4.170   6.240   2.302
 4548TIP3   OH213588   3.480   5.561   1.621
 4548TIP3    H113589   3.401   5.612   1.602
 4548TIP3    H213590   3.527   5.556   1.538
 4549TIP3   OH213591   3.441   5.348   1.333
 4549TIP3    H113592   3.504   5.400   1.383
 4549TIP3    H213593   3.495   5.284   1.286
 4550TIP3   OH213594   4.383   5.810   2.209
 4550TIP3    H113595   4.299   5.855   2.216
 4550TIP3    H213596   4.414   5.830   2.121
 4551TIP3   OH213597   3.831   5.644   1.593
 4551TIP3    H113598   3.775   5.667   1.666
 4551TIP3    H213599   3.914   5.619   1.634
 4552TIP3   OH213600   4.060   5.683   2.509
 4552TIP3    H113601   4.060   5.763   2.560
 4552TIP3    H213602   3.977   5.683   2.463
 4553TIP3   OH213603   3.063   5.638   2.010
 4553TIP3    H113604   3.021   5.582   1.945
 4553TIP3    H213605   3.137   5.587   2.042
 4554TIP3   OH213606   3.192   6.057   2.154
 4554TIP3    H113607   3.174   6.014   2.071
 4554TIP3    H213608   3.278   6.023   2.180
 4555TIP3   OH213609   3.195   5.614   2.363
 4555TIP3    H113610   3.229   5.588   2.277
 4555TIP3    H213611   3.238   5.697   2.383
 4556TIP3   OH213612   3.726   6.249   2.145
 4556TIP3    H113613   3.708   6.327   2.197
 4556TIP3    H213614   3.706   6.176   2.204
 4557TIP3   OH213615   3.329   6.139   2.707
 4557TIP3    H113616   3.289   6.223   2.729
 4557TIP3    H213617   3.273   6.104   2.637
 4558TIP3   OH213618   3.668   5.505   1.418
 4558TIP3    H113619   3.725   5.562   1.469
 4558TIP3    H213620   3.692   5.522   1.327
 4559TIP3   OH213621   3.089   5.722   2.795
 4559TIP3    H113622   3.097   5.811   2.831
 4559TIP3    H213623   2.997   5.701   2.806
 4560TIP3   OH213624   3.416   6.179   1.693
 4560TIP3    H113625   3.497   6.228   1.704
 4560TIP3    H213626   3.355   6.242   1.653
 4561TIP3   OH213627   3.138   6.351   2.791
 4561TIP3    H113628   3.138   6.359   2.696
 4561TIP3    H213629   3.051   6.317   2.813
 4562TIP3   OH213630   4.183   4.741   1.469
 4562TIP3    H113631   4.103   4.759   1.518
 4562TIP3    H213632   4.199   4.821   1.419
 4563TIP3   OH213633   2.927   5.483   1.812
 4563TIP3    H113634   2.859   5.524   1.759
 4563TIP3    H213635   2.895   5.394   1.828
 4564TIP3   OH213636   3.986   6.108   1.018
 4564TIP3    H113637   3.991   6.202   1.002
 4564TIP3    H213638   4.075   6.076   1.005
 4565TIP3   OH213639   2.709   5.867   2.721
 4565TIP3    H113640   2.643   5.844   2.656
 4565TIP3    H213641   2.747   5.783   2.747
 4566TIP3   OH213642   2.568   6.062   2.354
 4566TIP3    H113643   2.661   6.045   2.339
 4566TIP3    H213644   2.566   6.134   2.416
 4567TIP3   OH213645   4.424   6.513   2.412
 4567TIP3    H113646   4.427   6.418   2.425
 4567TIP3    H213647   4.344   6.540   2.456
 4568TIP3   OH213648   3.540   6.298   2.557
 4568TIP3    H113649   3.533   6.391   2.576
 4568TIP3    H213650   3.450   6.267   2.553
 4569TIP3   OH213651   3.291   6.424   1.497
 4569TIP3    H113652   3.249   6.405   1.413
 4569TIP3    H213653   3.261   6.512   1.520
 4570TIP3   OH213654   2.719   6.304   1.893
 4570TIP3    H113655   2.771   6.286   1.971
 4570TIP3    H213656   2.671   6.223   1.876
 4571TIP3   OH213657   3.496   6.327   1.137
 4571TIP3    H113658   3.551   6.258   1.099
 4571TIP3    H213659   3.529   6.338   1.226
 4572TIP3   OH213660   3.544   6.376   1.409
 4572TIP3    H113661   3.457   6.384   1.449
 4572TIP3    H213662   3.598   6.337   1.478
 4573TIP3   OH213663   4.316   5.641   2.683
 4573TIP3    H113664   4.231   5.652   2.640
 4573TIP3    H213665   4.334   5.548   2.678
 4574TIP3   OH213666   2.911   6.055   2.707
 4574TIP3    H113667   2.966   6.037   2.783
 4574TIP3    H213668   2.840   5.990   2.712
 4575TIP3   OH213669   3.308   4.874   2.498
 4575TIP3    H113670   3.224   4.841   2.467
 4575TIP3    H213671   3.286   4.953   2.547
 4576TIP3   OH213672   3.848   4.986   2.692
 4576TIP3    H113673   3.916   4.959   2.753
 4576TIP3    H213674   3.766   4.967   2.738
 4577TIP3   OH213675   4.083   5.420   2.612
 4577TIP3    H113676   4.033   5.415   2.693
 4577TIP3    H213677   4.058   5.505   2.574
 4578TIP3   OH213678   3.747   5.546   1.162
 4578TIP3    H113679   3.709   5.521   1.078
 4578TIP3    H213680   3.830   5.588   1.141
 4579TIP3   OH213681   3.455   4.918   1.469
 4579TIP3    H113682   3.423   4.919   1.559
 4579TIP3    H213683   3.418   4.839   1.430
 4580TIP3   OH213684   3.242   5.393   2.514
 4580TIP3    H113685   3.195   5.410   2.595
 4580TIP3    H213686   3.228   5.471   2.460
 4581TIP3   OH213687   3.125   5.274   2.025
 4581TIP3    H113688   3.036   5.250   2.048
 4581TIP3    H213689   3.140   5.235   1.940
 4582TIP3   OH213690   3.618   5.362   1.756
 4582TIP3    H113691   3.567   5.431   1.714
 4582TIP3    H213692   3.673   5.326   1.686
 4583TIP3   OH213693   3.795   5.634   2.841
 4583TIP3    H113694   3.769   5.565   2.901
 4583TIP3    H213695   3.887   5.651   2.862
 4584TIP3   OH213696   3.774   5.385   1.989
 4584TIP3    H113697   3.710   5.415   1.925
 4584TIP3    H213698   3.812   5.306   1.950
 4585TIP3   OH213699   3.062   5.416   2.723
 4585TIP3    H113700   3.096   5.479   2.787
 4585TIP3    H213701   3.052   5.335   2.773
 4586TIP3   OH213702   3.112   4.898   1.433
 4586TIP3    H113703   3.105   4.895   1.529
 4586TIP3    H213704   3.036   4.949   1.405
 4587TIP3   OH213705   2.658   4.939   2.302
 4587TIP3    H113706   2.730   4.971   2.356
 4587TIP3    H213707   2.700   4.906   2.223
 4588TIP3   OH213708   2.621   4.921   1.820
 4588TIP3    H113709   2.669   4.953   1.744
 4588TIP3    H213710   2.560   4.992   1.842
 4589TIP3   OH213711   3.786   5.630   2.414
 4589TIP3    H113712   3.819   5.563   2.354
 4589TIP3    H213713   3.755   5.581   2.490
 4590TIP3   OH213714   3.459   5.098   2.090
 4590TIP3    H113715   3.379   5.096   2.142
 4590TIP3    H213716   3.529   5.089   2.154
 4591TIP3   OH213717   2.889   5.153   2.094
 4591TIP3    H113718   2.797   5.161   2.067
 4591TIP3    H213719   2.912   5.063   2.074
 4592TIP3   OH213720   3.154   5.148   1.786
 4592TIP3    H113721   3.247   5.162   1.765
 4592TIP3    H213722   3.109   5.170   1.704
 4593TIP3   OH213723   3.945   5.172   2.291
 4593TIP3    H113724   3.919   5.186   2.382
 4593TIP3    H213725   3.880   5.112   2.256
 4594TIP3   OH213726   3.003   5.186   1.559
 4594TIP3    H113727   2.932   5.139   1.515
 4594TIP3    H213728   3.056   5.222   1.488
 4595TIP3   OH213729   4.122   6.863   2.511
 4595TIP3    H113730   4.118   6.883   2.417
 4595TIP3    H213731   4.201   6.907   2.542
 4596TIP3   OH213732   3.072   5.974   2.929
 4596TIP3    H113733   3.153   6.004   2.970
 4596TIP3    H213734   3.009   5.970   3.002
 4597TIP3   OH213735   3.537   5.427   2.189
 4597TIP3    H113736   3.609   5.386   2.141
 4597TIP3    H213737   3.538   5.385   2.275
 4598TIP3   OH213738   3.056   4.910   2.070
 4598TIP3    H113739   3.019   4.836   2.119
 4598TIP3    H213740   3.105   4.868   1.999
 4599TIP3   OH213741   3.513   5.330   2.471
 4599TIP3    H113742   3.424   5.361   2.489
 4599TIP3    H213743   3.569   5.387   2.523
 4600TIP3   OH213744   3.247   5.711   1.570
 4600TIP3    H113745   3.178   5.646   1.557
 4600TIP3    H213746   3.231   5.746   1.658
 4601TIP3   OH213747   4.148   5.949   2.196
 4601TIP3    H113748   4.171   5.999   2.118
 4601TIP3    H213749   4.065   5.906   2.173
 4602TIP3   OH213750   3.706   5.023   1.438
 4602TIP3    H113751   3.613   5.003   1.446
 4602TIP3    H213752   3.713   5.116   1.462
 4603TIP3   OH213753   3.655   6.041   2.569
 4603TIP3    H113754   3.670   6.013   2.660
 4603TIP3    H213755   3.611   6.126   2.577
 4604TIP3   OH213756   3.777   5.275   1.540
 4604TIP3    H113757   3.871   5.279   1.555
 4604TIP3    H213758   3.757   5.353   1.488
 4605TIP3   OH213759   2.943   5.735   2.243
 4605TIP3    H113760   2.982   5.708   2.160
 4605TIP3    H213761   2.988   5.681   2.309
 4606TIP3   OH213762   3.394   5.862   1.395
 4606TIP3    H113763   3.348   5.946   1.397
 4606TIP3    H213764   3.343   5.806   1.453
 4607TIP3   OH213765   2.825   5.655   2.863
 4607TIP3    H113766   2.847   5.644   2.955
 4607TIP3    H213767   2.758   5.589   2.845
 4608TIP3   OH213768   3.553   5.769   2.877
 4608TIP3    H113769   3.490   5.711   2.833
 4608TIP3    H213770   3.639   5.735   2.851
 4609TIP3   OH213771   3.810   6.300   2.466
 4609TIP3    H113772   3.716   6.287   2.481
 4609TIP3    H213773   3.841   6.348   2.543
 4610TIP3   OH213774   4.217   5.367   1.370
 4610TIP3    H113775   4.157   5.320   1.312
 4610TIP3    H213776   4.218   5.456   1.335
 4611TIP3   OH213777   4.438   6.225   2.448
 4611TIP3    H113778   4.343   6.219   2.446
 4611TIP3    H213779   4.466   6.194   2.362
 4612TIP3   OH213780   3.923   6.181   1.284
 4612TIP3    H113781   3.893   6.112   1.343
 4612TIP3    H213782   3.934   6.137   1.199
 4613TIP3   OH213783   3.916   5.810   2.112
 4613TIP3    H113784   3.823   5.790   2.128
 4613TIP3    H213785   3.950   5.732   2.069
 4614TIP3   OH213786   3.045   6.038   1.866
 4614TIP3    H113787   3.042   6.120   1.816
 4614TIP3    H213788   2.953   6.019   1.886
 4615TIP3   OH213789   2.608   5.345   1.579
 4615TIP3    H113790   2.655   5.425   1.599
 4615TIP3    H213791   2.533   5.345   1.638
 4616TIP3   OH213792   3.177   5.802   1.814
 4616TIP3    H113793   3.146   5.890   1.831
 4616TIP3    H213794   3.146   5.750   1.888
 4617TIP3   OH213795   2.952   6.286   1.725
 4617TIP3    H113796   2.870   6.295   1.773
 4617TIP3    H213797   2.992   6.373   1.730
 4618TIP3   OH213798   3.700   6.016   2.303
 4618TIP3    H113799   3.685   6.021   2.398
 4618TIP3    H213800   3.778   5.962   2.294
 4619TIP3   OH213801   3.679   5.912   1.185
 4619TIP3    H113802   3.734   5.888   1.260
 4619TIP3    H213803   3.591   5.883   1.210
 4620TIP3   OH213804   3.948   6.548   2.349
 4620TIP3    H113805   3.873   6.489   2.349
 4620TIP3    H213806   3.931   6.609   2.278
 4621TIP3   OH213807   4.014   6.383   1.003
 4621TIP3    H113808   4.047   6.443   0.937
 4621TIP3    H213809   3.937   6.428   1.039
 4622TIP3   OH213810   3.033   5.160   2.866
 4622TIP3    H113811   2.938   5.163   2.877
 4622TIP3    H213812   3.064   5.105   2.938
 4623TIP3   OH213813   3.841   5.842   1.397
 4623TIP3    H113814   3.827   5.778   1.468
 4623TIP3    H213815   3.936   5.841   1.384
 4624TIP3   OH213816   2.752   6.242   2.506
 4624TIP3    H113817   2.802   6.170   2.543
 4624TIP3    H213818   2.786   6.320   2.548
 4625TIP3   OH213819   3.039   5.889   1.185
 4625TIP3    H113820   3.054   5.799   1.155
 4625TIP3    H213821   3.019   5.880   1.278
 4626TIP3   OH213822   2.984   5.898   1.458
 4626TIP3    H113823   3.059   5.866   1.509
 4626TIP3    H213824   2.989   5.993   1.465
 4627TIP3   OH213825   2.719   5.588   1.658
 4627TIP3    H113826   2.654   5.629   1.715
 4627TIP3    H213827   2.736   5.654   1.591
 4628TIP3   OH213828   3.878   5.221   2.551
 4628TIP3    H113829   3.955   5.262   2.593
 4628TIP3    H213830   3.862   5.143   2.603
 4629TIP3   OH213831   3.756   4.974   1.718
 4629TIP3    H113832   3.741   4.994   1.626
 4629TIP3    H213833   3.795   5.054   1.754
 4630TIP3   OH213834   3.251   6.092   1.402
 4630TIP3    H113835   3.167   6.116   1.440
 4630TIP3    H213836   3.271   6.163   1.340
 4631TIP3   OH213837   3.440   5.159   1.820
 4631TIP3    H113838   3.501   5.230   1.802
 4631TIP3    H213839   3.444   5.147   1.915
 4632TIP3   OH213840   3.714   5.473   2.624
 4632TIP3    H113841   3.735   5.526   2.701
 4632TIP3    H213842   3.764   5.392   2.636
 4633TIP3   OH213843   3.585   4.879   1.917
 4633TIP3    H113844   3.577   4.953   1.978
 4633TIP3    H213845   3.645   4.909   1.850
 4634TIP3   OH213846   2.998   6.172   1.473
 4634TIP3    H113847   2.970   6.239   1.411
 4634TIP3    H213848   2.981   6.210   1.559
 4635TIP3   OH213849   3.100   4.885   1.708
 4635TIP3    H113850   3.093   4.972   1.748
 4635TIP3    H213851   3.192   4.862   1.715
 4636TIP3   OH213852   4.347   5.374   2.601
 4636TIP3    H113853   4.253   5.378   2.615
 4636TIP3    H213854   4.357   5.319   2.523
 4637TIP3   OH213855   4.002   5.566   1.993
 4637TIP3    H113856   3.925   5.511   2.006
 4637TIP3    H213857   4.071   5.521   2.041
 4638TIP3   OH213858   2.720   5.794   1.459
 4638TIP3    H113859   2.791   5.857   1.472
 4638TIP3    H213860   2.755   5.732   1.395
 4639TIP3   OH213861   2.657   5.074   1.597
 4639TIP3    H113862   2.659   5.169   1.595
 4639TIP3    H213863   2.577   5.050   1.549
 4640TIP3   OH213864   3.971   6.531   1.939
 4640TIP3    H113865   3.926   6.576   1.868
 4640TIP3    H213866   4.064   6.545   1.921
 4641TIP3   OH213867   3.045   4.791   2.468
 4641TIP3    H113868   3.016   4.758   2.383
 4641TIP3    H213869   3.037   4.716   2.527
 4642TIP3   OH213870   2.587   6.032   1.844
 4642TIP3    H113871   2.517   6.047   1.907
 4642TIP3    H213872   2.553   6.067   1.762
 4643TIP3   OH213873   2.748   6.558   2.923
 4643TIP3    H113874   2.833   6.561   2.967
 4643TIP3    H213875   2.727   6.465   2.916
 4644TIP3   OH213876   3.232   6.525   2.970
 4644TIP3    H113877   3.324   6.499   2.975
 4644TIP3    H213878   3.193   6.465   2.907
 4645TIP3   OH213879   3.204   6.090   1.093
 4645TIP3    H113880   3.149   6.021   1.131
 4645TIP3    H213881   3.280   6.043   1.060
 4646TIP3   OH213882   3.865   6.427   2.703
 4646TIP3    H113883   3.855   6.357   2.767
 4646TIP3    H213884   3.941   6.477   2.733
 4647TIP3   OH213885   3.640   6.131   1.007
 4647TIP3    H113886   3.680   6.068   1.066
 4647TIP3    H213887   3.695   6.129   0.929
 4648TIP3   OH213888   2.871   5.960   3.122
 4648TIP3    H113889   2.890   5.867   3.130
 4648TIP3    H213890   2.786   5.964   3.077
 4649TIP3   OH213891   2.854   5.606   1.319
 4649TIP3    H113892   2.907   5.575   1.392
 4649TIP3    H213893   2.916   5.614   1.246
 4650TIP3   OH213894   3.486   6.047   2.903
 4650TIP3    H113895   3.436   6.070   2.825
 4650TIP3    H213896   3.512   5.956   2.889
 4651TIP3   OH213897   3.365   5.808   1.127
 4651TIP3    H113898   3.367   5.822   1.221
 4651TIP3    H213899   3.367   5.713   1.117
 4652TIP3   OH213900   3.973   6.058   2.502
 4652TIP3    H113901   4.046   6.104   2.461
 4652TIP3    H213902   3.899   6.118   2.492
 4653TIP3   OH213903   2.995   5.698   3.106
 4653TIP3    H113904   3.069   5.646   3.077
 4653TIP3    H213905   3.020   5.729   3.193
 4654TIP3   OH213906   3.054   5.515   1.535
 4654TIP3    H113907   3.030   5.476   1.619
 4654TIP3    H213908   3.094   5.442   1.486
 4655TIP3   OH213909   3.326   5.579   2.763
 4655TIP3    H113910   3.250   5.637   2.766
 4655TIP3    H213911   3.378   5.611   2.689
 4656TIP3   OH213912   3.162   5.312   1.374
 4656TIP3    H113913   3.135   5.318   1.283
 4656TIP3    H213914   3.258   5.313   1.371
 4657TIP3   OH213915   3.848   5.981   2.900
 4657TIP3    H113916   3.923   5.948   2.851
 4657TIP3    H213917   3.837   5.919   2.972
 4658TIP3   OH213918   3.977   5.639   1.042
 4658TIP3    H113919   3.960   5.591   0.961
 4658TIP3    H213920   3.946   5.728   1.025
 4659TIP3   OH213921   3.450   5.370   2.888
 4659TIP3    H113922   3.452   5.291   2.834
 4659TIP3    H213923   3.407   5.435   2.834
 4660TIP3   OH213924   3.453   5.157   2.697
 4660TIP3    H113925   3.482   5.196   2.615
 4660TIP3    H213926   3.362   5.133   2.682
 4661TIP3   OH213927   3.476   5.689   2.572
 4661TIP3    H113928   3.562   5.702   2.532
 4661TIP3    H213929   3.420   5.753   2.529
 4662TIP3   OH213930   4.060   5.654   2.950
 4662TIP3    H113931   4.104   5.571   2.971
 4662TIP3    H213932   4.129   5.710   2.916
 4663TIP3   OH213933   4.103   5.912   2.687
 4663TIP3    H113934   4.044   5.963   2.632
 4663TIP3    H213935   4.190   5.930   2.651
 4664TIP3   OH213936   3.329   5.473   3.123
 4664TIP3    H113937   3.262   5.407   3.141
 4664TIP3    H213938   3.363   5.450   3.037
 4665TIP3   OH213939   3.583   4.916   2.767
 4665TIP3    H113940   3.536   4.997   2.746
 4665TIP3    H213941   3.518   4.847   2.758
 4666TIP3   OH213942   3.709   5.419   2.985
 4666TIP3    H113943   3.701   5.405   3.079
 4666TIP3    H213944   3.623   5.397   2.949
 4667TIP3   OH213945   3.949   5.369   2.840
 4667TIP3    H113946   3.875   5.370   2.900
 4667TIP3    H213947   4.023   5.339   2.893
 4668TIP3   OH213948   4.182   5.312   2.986
 4668TIP3    H113949   4.194   5.218   3.002
 4668TIP3    H213950   4.175   5.350   3.074
 4669TIP3   OH213951   3.169   5.253   3.180
 4669TIP3    H113952   3.171   5.164   3.146
 4669TIP3    H213953   3.207   5.246   3.268
 4670TIP3   OH213954   3.680   4.927   3.023
 4670TIP3    H113955   3.745   4.857   3.023
 4670TIP3    H213956   3.639   4.922   2.937
 4671TIP3   OH213957   3.746   5.144   3.181
 4671TIP3    H113958   3.727   5.072   3.120
 4671TIP3    H213959   3.668   5.199   3.177
 4672TIP3   OH213960   2.971   6.376   1.285
 4672TIP3    H113961   3.064   6.362   1.269
 4672TIP3    H213962   2.940   6.423   1.208
 4673TIP3   OH213963   2.450   5.753   1.497
 4673TIP3    H113964   2.542   5.775   1.484
 4673TIP3    H213965   2.440   5.666   1.459
 4674TIP3   OH213966   2.488   6.257   2.093
 4674TIP3    H113967   2.462   6.174   2.133
 4674TIP3    H213968   2.548   6.295   2.157
 4675TIP3   OH213969   4.228   6.615   1.903
 4675TIP3    H113970   4.252   6.644   1.991
 4675TIP3    H213971   4.292   6.657   1.846
 4676TIP3   OH213972   4.256   6.631   2.185
 4676TIP3    H113973   4.206   6.550   2.179
 4676TIP3    H213974   4.328   6.609   2.245
 4677TIP3   OH213975   4.299   6.315   2.757
 4677TIP3    H113976   4.229   6.321   2.821
 4677TIP3    H213977   4.343   6.400   2.761
 4678TIP3   OH213978   4.120   5.824   1.377
 4678TIP3    H113979   4.183   5.889   1.346
 4678TIP3    H213980   4.161   5.786   1.455
 4679TIP3   OH213981   4.246   5.691   1.583
 4679TIP3    H113982   4.178   5.650   1.636
 4679TIP3    H213983   4.306   5.729   1.646
 4680TIP3   OH213984   4.304   6.089   2.011
 4680TIP3    H113985   4.353   6.020   1.967
 4680TIP3    H213986   4.294   6.157   1.945
 4681TIP3   OH213987   4.125   6.388   2.203
 4681TIP3    H113988   4.056   6.426   2.257
 4681TIP3    H213989   4.079   6.341   2.134
 4682TIP3   OH213990   4.180   5.604   1.223
 4682TIP3    H113991   4.112   5.601   1.156
 4682TIP3    H213992   4.154   5.676   1.280
 4683TIP3   OH213993   4.052   5.271   1.177
 4683TIP3    H113994   4.008   5.309   1.100
 4683TIP3    H213995   4.031   5.178   1.173
 4684TIP3   OH213996   4.058   5.550   1.725
 4684TIP3    H113997   4.063   5.455   1.716
 4684TIP3    H213998   4.042   5.563   1.819
 4685TIP3   OH213999   2.684   5.625   2.470
 4685TIP3    H114000   2.679   5.590   2.382
 4685TIP3    H214001   2.778   5.626   2.490
 4686TIP3   OH214002   4.350   5.975   2.582
 4686TIP3    H114003   4.418   5.909   2.572
 4686TIP3    H214004   4.373   6.042   2.517
 4687TIP3   OH214005   4.532   5.773   2.589
 4687TIP3    H114006   4.457   5.730   2.628
 4687TIP3    H214007   4.606   5.714   2.606
 4688TIP3   OH214008   3.995   5.007   1.165
 4688TIP3    H114009   4.065   4.973   1.220
 4688TIP3    H214010   3.921   4.949   1.182
 4689TIP3   OH214011   4.058   5.265   1.616
 4689TIP3    H114012   4.093   5.178   1.633
 4689TIP3    H214013   4.112   5.300   1.545
 4690TIP3   OH214014   4.216   5.436   2.116
 4690TIP3    H114015   4.298   5.459   2.072
 4690TIP3    H214016   4.225   5.472   2.204
 4691TIP3   OH214017   4.284   5.586   2.343
 4691TIP3    H114018   4.209   5.615   2.395
 4691TIP3    H214019   4.317   5.666   2.301
 4692TIP3   OH214020   2.905   5.307   3.148
 4692TIP3    H114021   3.000   5.305   3.151
 4692TIP3    H214022   2.877   5.223   3.185
 4693TIP3   OH214023   4.736   5.177   2.897
 4693TIP3    H114024   4.796   5.113   2.860
 4693TIP3    H214025   4.707   5.229   2.822
 4694TIP3   OH214026   4.163   5.015   1.658
 4694TIP3    H114027   4.210   5.001   1.740
 4694TIP3    H214028   4.101   4.942   1.653
 4695TIP3   OH214029   2.865   5.002   2.477
 4695TIP3    H114030   2.922   4.925   2.486
 4695TIP3    H214031   2.925   5.076   2.469
 4696TIP3   OH214032   2.663   5.275   2.546
 4696TIP3    H114033   2.712   5.270   2.464
 4696TIP3    H214034   2.695   5.355   2.589
 4697TIP3   OH214035   4.603   5.313   2.700
 4697TIP3    H114036   4.522   5.357   2.728
 4697TIP3    H214037   4.574   5.240   2.647
 4698TIP3   OH214038   4.243   4.947   1.292
 4698TIP3    H114039   4.277   4.877   1.236
 4698TIP3    H214040   4.308   5.016   1.286
 4699TIP3   OH214041   2.649   4.778   2.050
 4699TIP3    H114042   2.558   4.772   2.080
 4699TIP3    H214043   2.645   4.836   1.974
 4700TIP3   OH214044   3.809   6.487   1.556
 4700TIP3    H114045   3.856   6.471   1.474
 4700TIP3    H214046   3.864   6.548   1.605
 4701TIP3   OH214047   2.868   4.861   2.865
 4701TIP3    H114048   2.820   4.853   2.948
 4701TIP3    H214049   2.804   4.896   2.803
 4702TIP3   OH214050   2.894   6.297   2.945
 4702TIP3    H114051   2.806   6.264   2.929
 4702TIP3    H214052   2.918   6.261   3.030
 4703TIP3   OH214053   3.539   6.575   2.633
 4703TIP3    H114054   3.581   6.564   2.719
 4703TIP3    H214055   3.603   6.621   2.580
 4704TIP3   OH214056   3.718   6.721   2.485
 4704TIP3    H114057   3.781   6.663   2.444
 4704TIP3    H214058   3.770   6.774   2.546
 4705TIP3   OH214059   4.505   5.072   2.584
 4705TIP3    H114060   4.415   5.062   2.554
 4705TIP3    H214061   4.542   4.983   2.578
 4706TIP3   OH214062   2.751   6.565   2.510
 4706TIP3    H114063   2.664   6.605   2.498
 4706TIP3    H214064   2.784   6.604   2.591
 4707TIP3   OH214065   2.988   6.619   2.365
 4707TIP3    H114066   2.919   6.577   2.415
 4707TIP3    H214067   2.969   6.598   2.274
 4708TIP3   OH214068   3.448   6.612   2.133
 4708TIP3    H114069   3.359   6.606   2.098
 4708TIP3    H214070   3.442   6.677   2.202
 4709TIP3   OH214071   3.696   6.525   2.220
 4709TIP3    H114072   3.603   6.537   2.198
 4709TIP3    H214073   3.740   6.599   2.177
 4710TIP3   OH214074   3.908   6.717   2.133
 4710TIP3    H114075   3.890   6.798   2.085
 4710TIP3    H214076   3.930   6.653   2.065
 4711TIP3   OH214077   2.683   6.365   2.268
 4711TIP3    H114078   2.705   6.341   2.358
 4711TIP3    H214079   2.749   6.321   2.214
 4712TIP3   OH214080   2.873   6.244   2.112
 4712TIP3    H114081   2.880   6.160   2.157
 4712TIP3    H214082   2.962   6.278   2.111
 4713TIP3   OH214083   3.137   6.340   2.139
 4713TIP3    H114084   3.170   6.251   2.129
 4713TIP3    H214085   3.155   6.362   2.231
 4714TIP3   OH214086   3.709   4.988   2.205
 4714TIP3    H114087   3.667   4.920   2.258
 4714TIP3    H214088   3.783   4.944   2.163
 4715TIP3   OH214089   4.230   4.873   2.106
 4715TIP3    H114090   4.266   4.924   2.034
 4715TIP3    H214091   4.136   4.890   2.103
 4716TIP3   OH214092   4.330   4.974   1.872
 4716TIP3    H114093   4.402   4.921   1.836
 4716TIP3    H214094   4.359   5.065   1.860
 4717TIP3   OH214095   2.957   4.696   2.220
 4717TIP3    H114096   2.866   4.667   2.224
 4717TIP3    H214097   3.008   4.615   2.216
 4718TIP3   OH214098   2.745   4.574   1.871
 4718TIP3    H114099   2.776   4.627   1.798
 4718TIP3    H214100   2.720   4.637   1.939
 4719TIP3   OH214101   3.405   4.733   2.103
 4719TIP3    H114102   3.460   4.779   2.040
 4719TIP3    H214103   3.432   4.768   2.188
 4720TIP3   OH214104   3.947   4.878   2.085
 4720TIP3    H114105   3.949   4.838   1.998
 4720TIP3    H214106   3.936   4.803   2.144
 4721TIP3   OH214107   3.978   4.803   1.651
 4721TIP3    H114108   3.895   4.848   1.665
 4721TIP3    H214109   3.967   4.718   1.693
 4722TIP3   OH214110   2.461   6.154   1.635
 4722TIP3    H114111   2.378   6.111   1.612
 4722TIP3    H214112   2.450   6.245   1.606
 4723TIP3   OH214113   2.868   4.730   1.630
 4723TIP3    H114114   2.912   4.665   1.574
 4723TIP3    H214115   2.939   4.782   1.666
 4724TIP3   OH214116   3.376   4.909   1.733
 4724TIP3    H114117   3.432   4.858   1.790
 4724TIP3    H214118   3.395   5.000   1.756
 4725TIP3   OH214119   3.237   6.325   1.229
 4725TIP3    H114120   3.323   6.351   1.197
 4725TIP3    H214121   3.211   6.252   1.172
 4726TIP3   OH214122   3.954   6.448   1.325
 4726TIP3    H114123   3.950   6.353   1.316
 4726TIP3    H214124   3.911   6.481   1.246
 4727TIP3   OH214125   3.168   4.980   3.115
 4727TIP3    H114126   3.130   4.910   3.168
 4727TIP3    H214127   3.261   4.981   3.140
 4728TIP3   OH214128   3.418   4.976   3.232
 4728TIP3    H114129   3.503   4.952   3.193
 4728TIP3    H214130   3.403   4.909   3.299
 4729TIP3   OH214131   2.546   6.165   1.290
 4729TIP3    H114132   2.554   6.171   1.386
 4729TIP3    H214133   2.627   6.122   1.262
 4730TIP3   OH214134   4.245   5.041   3.020
 4730TIP3    H114135   4.258   5.011   3.110
 4730TIP3    H214136   4.332   5.035   2.980
 4731TIP3   OH214137   4.177   6.593   2.509
 4731TIP3    H114138   4.101   6.559   2.461
 4731TIP3    H214139   4.158   6.687   2.520
 4732TIP3   OH214140   5.443   5.967   1.270
 4732TIP3    H114141   5.414   6.056   1.247
 4732TIP3    H214142   5.366   5.912   1.255
 4733TIP3   OH214143   5.446   5.966   1.666
 4733TIP3    H114144   5.482   5.941   1.752
 4733TIP3    H214145   5.407   5.886   1.633
 4734TIP3   OH214146   4.747   5.855   2.023
 4734TIP3    H114147   4.769   5.785   2.083
 4734TIP3    H214148   4.819   5.918   2.032
 4735TIP3   OH214149   5.678   6.267   1.353
 4735TIP3    H114150   5.669   6.183   1.399
 4735TIP3    H214151   5.759   6.305   1.387
 4736TIP3   OH214152   4.720   6.270   1.745
 4736TIP3    H114153   4.707   6.175   1.746
 4736TIP3    H214154   4.815   6.281   1.745
 4737TIP3   OH214155   4.424   5.477   1.527
 4737TIP3    H114156   4.375   5.556   1.549
 4737TIP3    H214157   4.359   5.418   1.489
 4738TIP3   OH214158   4.482   5.760   1.712
 4738TIP3    H114159   4.529   5.683   1.744
 4738TIP3    H214160   4.537   5.793   1.641
 4739TIP3   OH214161   5.342   6.734   1.356
 4739TIP3    H114162   5.382   6.663   1.304
 4739TIP3    H214163   5.306   6.690   1.433
 4740TIP3   OH214164   5.248   6.191   1.704
 4740TIP3    H114165   5.276   6.109   1.662
 4740TIP3    H214166   5.330   6.232   1.732
 4741TIP3   OH214167   6.259   5.513   1.703
 4741TIP3    H114168   6.289   5.592   1.748
 4741TIP3    H214169   6.285   5.525   1.612
 4742TIP3   OH214170   5.656   5.693   1.735
 4742TIP3    H114171   5.700   5.612   1.761
 4742TIP3    H214172   5.625   5.675   1.646
 4743TIP3   OH214173   4.994   5.348   1.704
 4743TIP3    H114174   4.973   5.423   1.649
 4743TIP3    H214175   4.950   5.274   1.661
 4744TIP3   OH214176   5.695   5.446   1.322
 4744TIP3    H114177   5.760   5.429   1.390
 4744TIP3    H214178   5.746   5.477   1.247
 4745TIP3   OH214179   4.631   5.551   1.808
 4745TIP3    H114180   4.710   5.534   1.859
 4745TIP3    H214181   4.639   5.494   1.732
 4746TIP3   OH214182   5.073   5.751   1.603
 4746TIP3    H114183   5.165   5.729   1.619
 4746TIP3    H214184   5.033   5.668   1.577
 4747TIP3   OH214185   6.333   5.720   1.876
 4747TIP3    H114186   6.248   5.762   1.860
 4747TIP3    H214187   6.360   5.753   1.962
 4748TIP3   OH214188   4.990   5.336   2.139
 4748TIP3    H114189   4.931   5.372   2.072
 4748TIP3    H214190   4.942   5.348   2.221
 4749TIP3   OH214191   5.320   6.182   1.148
 4749TIP3    H114192   5.302   6.177   1.054
 4749TIP3    H214193   5.281   6.265   1.175
 4750TIP3   OH214194   5.099   6.115   1.928
 4750TIP3    H114195   5.037   6.176   1.968
 4750TIP3    H214196   5.136   6.163   1.854
 4751TIP3   OH214197   5.895   5.451   1.503
 4751TIP3    H114198   5.890   5.400   1.584
 4751TIP3    H214199   5.950   5.526   1.526
 4752TIP3   OH214200   4.865   5.452   1.922
 4752TIP3    H114201   4.924   5.523   1.949
 4752TIP3    H214202   4.913   5.408   1.851
 4753TIP3   OH214203   4.924   6.308   2.030
 4753TIP3    H114204   4.902   6.394   1.994
 4753TIP3    H214205   4.850   6.285   2.086
 4754TIP3   OH214206   4.320   5.997   1.265
 4754TIP3    H114207   4.277   6.018   1.183
 4754TIP3    H214208   4.350   6.081   1.300
 4755TIP3   OH214209   5.751   6.541   1.543
 4755TIP3    H114210   5.696   6.477   1.497
 4755TIP3    H214211   5.784   6.598   1.473
 4756TIP3   OH214212   6.052   5.411   1.868
 4756TIP3    H114213   5.966   5.439   1.837
 4756TIP3    H214214   6.113   5.443   1.802
 4757TIP3   OH214215   5.339   5.048   1.853
 4757TIP3    H114216   5.331   4.955   1.874
 4757TIP3    H214217   5.267   5.090   1.899
 4758TIP3   OH214218   5.466   6.556   1.183
 4758TIP3    H114219   5.505   6.471   1.161
 4758TIP3    H214220   5.526   6.621   1.147
 4759TIP3   OH214221   5.593   6.335   1.091
 4759TIP3    H114222   5.587   6.260   1.032
 4759TIP3    H214223   5.624   6.298   1.174
 4760TIP3   OH214224   5.970   6.439   1.824
 4760TIP3    H114225   5.956   6.349   1.796
 4760TIP3    H214226   5.996   6.486   1.744
 4761TIP3   OH214227   5.264   5.799   1.100
 4761TIP3    H114228   5.199   5.867   1.085
 4761TIP3    H214229   5.324   5.805   1.026
 4762TIP3   OH214230   5.249   5.593   0.841
 4762TIP3    H114231   5.315   5.657   0.870
 4762TIP3    H214232   5.297   5.535   0.781
 4763TIP3   OH214233   6.179   6.062   1.696
 4763TIP3    H114234   6.098   6.113   1.704
 4763TIP3    H214235   6.211   6.082   1.607
 4764TIP3   OH214236   5.627   5.898   1.080
 4764TIP3    H114237   5.572   5.921   1.155
 4764TIP3    H214238   5.710   5.871   1.119
 4765TIP3   OH214239   5.858   5.937   1.997
 4765TIP3    H114240   5.859   6.016   2.051
 4765TIP3    H214241   5.773   5.940   1.952
 4766TIP3   OH214242   4.859   5.891   1.495
 4766TIP3    H114243   4.820   5.834   1.430
 4766TIP3    H214244   4.935   5.843   1.528
 4767TIP3   OH214245   4.991   6.312   1.640
 4767TIP3    H114246   4.964   6.276   1.556
 4767TIP3    H214247   5.076   6.272   1.656
 4768TIP3   OH214248   5.000   5.867   1.850
 4768TIP3    H114249   5.030   5.845   1.761
 4768TIP3    H214250   5.038   5.953   1.868
 4769TIP3   OH214251   5.507   6.507   1.693
 4769TIP3    H114252   5.414   6.527   1.697
 4769TIP3    H214253   5.513   6.416   1.723
 4770TIP3   OH214254   5.126   6.421   2.178
 4770TIP3    H114255   5.070   6.483   2.225
 4770TIP3    H214256   5.066   6.368   2.126
 4771TIP3   OH214257   5.459   5.767   0.902
 4771TIP3    H114258   5.522   5.820   0.951
 4771TIP3    H214259   5.479   5.784   0.810
 4772TIP3   OH214260   4.883   5.983   2.276
 4772TIP3    H114261   4.892   6.068   2.319
 4772TIP3    H214262   4.793   5.957   2.293
 4773TIP3   OH214263   5.211   6.436   1.188
 4773TIP3    H114264   5.290   6.490   1.189
 4773TIP3    H214265   5.149   6.487   1.135
 4774TIP3   OH214266   4.923   6.589   2.264
 4774TIP3    H114267   4.889   6.591   2.174
 4774TIP3    H214268   4.847   6.569   2.318
 4775TIP3   OH214269   5.982   5.000   0.956
 4775TIP3    H114270   5.902   5.021   1.003
 4775TIP3    H214271   5.998   5.077   0.900
 4776TIP3   OH214272   4.725   5.732   1.298
 4776TIP3    H114273   4.669   5.780   1.238
 4776TIP3    H214274   4.670   5.661   1.331
 4777TIP3   OH214275   4.505   6.123   2.208
 4777TIP3    H114276   4.436   6.104   2.144
 4777TIP3    H214277   4.540   6.037   2.231
 4778TIP3   OH214278   4.359   6.320   1.837
 4778TIP3    H114279   4.454   6.313   1.833
 4778TIP3    H214280   4.342   6.395   1.894
 4779TIP3   OH214281   6.213   6.747   1.903
 4779TIP3    H114282   6.227   6.652   1.900
 4779TIP3    H214283   6.184   6.764   1.992
 4780TIP3   OH214284   5.300   6.559   2.021
 4780TIP3    H114285   5.312   6.644   2.062
 4780TIP3    H214286   5.241   6.512   2.080
 4781TIP3   OH214287   5.085   6.680   0.989
 4781TIP3    H114288   5.043   6.660   0.906
 4781TIP3    H214289   5.054   6.768   1.011
 4782TIP3   OH214290   4.528   6.529   1.371
 4782TIP3    H114291   4.573   6.522   1.455
 4782TIP3    H214292   4.475   6.449   1.366
 4783TIP3   OH214293   5.309   6.543   0.670
 4783TIP3    H114294   5.396   6.506   0.655
 4783TIP3    H214295   5.312   6.577   0.760
 4784TIP3   OH214296   5.340   6.630   0.922
 4784TIP3    H114297   5.252   6.644   0.957
 4784TIP3    H214298   5.390   6.598   0.997
 4785TIP3   OH214299   6.107   5.892   2.172
 4785TIP3    H114300   6.025   5.899   2.124
 4785TIP3    H214301   6.129   5.799   2.170
 4786TIP3   OH214302   4.708   6.305   2.195
 4786TIP3    H114303   4.757   6.291   2.276
 4786TIP3    H214304   4.635   6.244   2.200
 4787TIP3   OH214305   5.104   5.132   1.984
 4787TIP3    H114306   5.020   5.097   1.954
 4787TIP3    H214307   5.081   5.209   2.035
 4788TIP3   OH214308   5.644   5.243   2.179
 4788TIP3    H114309   5.713   5.216   2.239
 4788TIP3    H214310   5.563   5.224   2.226
 4789TIP3   OH214311   5.875   5.672   2.094
 4789TIP3    H114312   5.829   5.668   2.178
 4789TIP3    H214313   5.854   5.759   2.060
 4790TIP3   OH214314   5.526   5.803   0.638
 4790TIP3    H114315   5.519   5.761   0.553
 4790TIP3    H214316   5.611   5.847   0.636
 4791TIP3   OH214317   5.247   5.181   0.961
 4791TIP3    H114318   5.216   5.172   1.051
 4791TIP3    H214319   5.213   5.104   0.915
 4792TIP3   OH214320   5.040   5.648   2.003
 4792TIP3    H114321   4.991   5.665   2.084
 4792TIP3    H214322   5.025   5.727   1.950
 4793TIP3   OH214323   4.923   5.530   1.518
 4793TIP3    H114324   4.832   5.508   1.536
 4793TIP3    H214325   4.946   5.477   1.441
 4794TIP3   OH214326   5.413   5.611   1.240
 4794TIP3    H114327   5.368   5.682   1.195
 4794TIP3    H214328   5.475   5.577   1.175
 4795TIP3   OH214329   5.590   5.892   2.329
 4795TIP3    H114330   5.565   5.822   2.388
 4795TIP3    H214331   5.683   5.908   2.349
 4796TIP3   OH214332   5.571   5.641   1.475
 4796TIP3    H114333   5.507   5.668   1.409
 4796TIP3    H214334   5.612   5.563   1.438
 4797TIP3   OH214335   4.859   5.671   2.211
 4797TIP3    H114336   4.885   5.734   2.278
 4797TIP3    H214337   4.846   5.589   2.258
 4798TIP3   OH214338   4.912   5.166   0.919
 4798TIP3    H114339   4.895   5.147   1.011
 4798TIP3    H214340   4.833   5.211   0.888
 4799TIP3   OH214341   4.452   5.199   1.787
 4799TIP3    H114342   4.527   5.224   1.840
 4799TIP3    H214343   4.490   5.158   1.709
 4800TIP3   OH214344   4.419   5.180   1.311
 4800TIP3    H114345   4.461   5.213   1.232
 4800TIP3    H214346   4.355   5.247   1.334
 4801TIP3   OH214347   5.579   5.889   1.901
 4801TIP3    H114348   5.614   5.823   1.841
 4801TIP3    H214349   5.552   5.840   1.978
 4802TIP3   OH214350   5.248   5.364   1.576
 4802TIP3    H114351   5.174   5.354   1.636
 4802TIP3    H214352   5.325   5.343   1.629
 4803TIP3   OH214353   4.685   5.408   1.573
 4803TIP3    H114354   4.592   5.424   1.551
 4803TIP3    H214355   4.696   5.314   1.562
 4804TIP3   OH214356   5.743   5.434   1.781
 4804TIP3    H114357   5.712   5.445   1.871
 4804TIP3    H214358   5.683   5.370   1.743
 4805TIP3   OH214359   4.873   6.231   2.419
 4805TIP3    H114360   4.952   6.258   2.465
 4805TIP3    H214361   4.806   6.224   2.487
 4806TIP3   OH214362   5.334   5.686   1.676
 4806TIP3    H114363   5.405   5.643   1.628
 4806TIP3    H214364   5.332   5.642   1.761
 4807TIP3   OH214365   4.864   5.157   1.548
 4807TIP3    H114366   4.813   5.097   1.603
 4807TIP3    H214367   4.930   5.101   1.507
 4808TIP3   OH214368   5.310   5.590   1.953
 4808TIP3    H114369   5.221   5.618   1.976
 4808TIP3    H214370   5.366   5.642   2.009
 4809TIP3   OH214371   5.047   5.968   1.064
 4809TIP3    H114372   4.957   5.952   1.038
 4809TIP3    H214373   5.040   6.006   1.152
 4810TIP3   OH214374   5.945   6.208   1.685
 4810TIP3    H114375   5.974   6.252   1.605
 4810TIP3    H214376   5.865   6.161   1.659
 4811TIP3   OH214377   5.504   5.275   0.934
 4811TIP3    H114378   5.410   5.259   0.935
 4811TIP3    H214379   5.512   5.370   0.944
 4812TIP3   OH214380   5.479   6.313   2.052
 4812TIP3    H114381   5.473   6.266   2.135
 4812TIP3    H214382   5.416   6.385   2.060
 4813TIP3   OH214383   5.575   5.534   1.027
 4813TIP3    H114384   5.670   5.532   1.041
 4813TIP3    H214385   5.561   5.608   0.969
 4814TIP3   OH214386   4.745   5.995   1.733
 4814TIP3    H114387   4.780   5.962   1.650
 4814TIP3    H214388   4.777   5.935   1.799
 4815TIP3   OH214389   5.195   6.121   0.882
 4815TIP3    H114390   5.150   6.205   0.885
 4815TIP3    H214391   5.144   6.065   0.940
 4816TIP3   OH214392   4.623   5.908   2.347
 4816TIP3    H114393   4.639   5.896   2.441
 4816TIP3    H214394   4.553   5.845   2.327
 4817TIP3   OH214395   5.350   6.029   2.362
 4817TIP3    H114396   5.286   5.968   2.325
 4817TIP3    H214397   5.435   5.992   2.338
 4818TIP3   OH214398   6.005   5.621   0.860
 4818TIP3    H114399   5.948   5.575   0.798
 4818TIP3    H214400   6.009   5.711   0.827
 4819TIP3   OH214401   6.223   6.473   1.937
 4819TIP3    H114402   6.128   6.472   1.933
 4819TIP3    H214403   6.251   6.443   1.850
 4820TIP3   OH214404   5.735   6.433   0.754
 4820TIP3    H114405   5.705   6.377   0.825
 4820TIP3    H214406   5.691   6.399   0.676
 4821TIP3   OH214407   5.711   6.068   1.595
 4821TIP3    H114408   5.620   6.045   1.613
 4821TIP3    H214409   5.749   5.989   1.558
 4822TIP3   OH214410   4.840   6.299   1.357
 4822TIP3    H114411   4.838   6.379   1.303
 4822TIP3    H214412   4.748   6.279   1.374
 4823TIP3   OH214413   4.408   5.603   1.068
 4823TIP3    H114414   4.449   5.687   1.085
 4823TIP3    H214415   4.330   5.602   1.123
 4824TIP3   OH214416   4.971   6.063   1.303
 4824TIP3    H114417   4.939   6.151   1.319
 4824TIP3    H214418   4.937   6.011   1.375
 4825TIP3   OH214419   5.113   6.638   1.826
 4825TIP3    H114420   5.154   6.711   1.780
 4825TIP3    H214421   5.181   6.604   1.884
 4826TIP3   OH214422   4.760   6.535   1.212
 4826TIP3    H114423   4.675   6.543   1.255
 4826TIP3    H214424   4.795   6.624   1.212
 4827TIP3   OH214425   5.501   6.257   1.789
 4827TIP3    H114426   5.493   6.264   1.884
 4827TIP3    H214427   5.570   6.191   1.776
 4828TIP3   OH214428   5.457   6.148   0.679
 4828TIP3    H114429   5.518   6.133   0.751
 4828TIP3    H214430   5.371   6.140   0.719
 4829TIP3   OH214431   4.828   5.416   2.353
 4829TIP3    H114432   4.734   5.421   2.364
 4829TIP3    H214433   4.859   5.362   2.425
 4830TIP3   OH214434   5.636   6.109   0.901
 4830TIP3    H114435   5.625   6.037   0.962
 4830TIP3    H214436   5.728   6.105   0.875
 4831TIP3   OH214437   4.551   6.499   1.986
 4831TIP3    H114438   4.601   6.426   2.022
 4831TIP3    H214439   4.569   6.572   2.044
 4832TIP3   OH214440   4.826   6.153   0.674
 4832TIP3    H114441   4.858   6.071   0.637
 4832TIP3    H214442   4.817   6.135   0.767
 4833TIP3   OH214443   4.797   6.155   0.953
 4833TIP3    H114444   4.863   6.154   1.023
 4833TIP3    H214445   4.781   6.248   0.937
 4834TIP3   OH214446   4.522   5.852   1.146
 4834TIP3    H114447   4.456   5.888   1.205
 4834TIP3    H214448   4.530   5.916   1.075
 4835TIP3   OH214449   5.669   5.480   2.041
 4835TIP3    H114450   5.749   5.520   2.074
 4835TIP3    H214451   5.658   5.401   2.093
 4836TIP3   OH214452   5.544   5.237   1.208
 4836TIP3    H114453   5.536   5.251   1.113
 4836TIP3    H214454   5.588   5.315   1.240
 4837TIP3   OH214455   5.052   6.348   0.898
 4837TIP3    H114456   4.965   6.377   0.928
 4837TIP3    H214457   5.065   6.395   0.816
 4838TIP3   OH214458   5.212   5.435   1.308
 4838TIP3    H114459   5.288   5.491   1.290
 4838TIP3    H214460   5.222   5.411   1.400
 4839TIP3   OH214461   5.511   5.730   2.110
 4839TIP3    H114462   5.532   5.779   2.189
 4839TIP3    H214463   5.560   5.648   2.118
 4840TIP3   OH214464   5.380   5.137   1.403
 4840TIP3    H114465   5.396   5.198   1.475
 4840TIP3    H214466   5.438   5.167   1.333
 4841TIP3   OH214467   4.793   6.426   0.956
 4841TIP3    H114468   4.764   6.492   0.893
 4841TIP3    H214469   4.777   6.466   1.042
 4842TIP3   OH214470   4.892   5.125   1.189
 4842TIP3    H114471   4.875   5.185   1.262
 4842TIP3    H214472   4.986   5.108   1.194
 4843TIP3   OH214473   6.142   5.629   2.093
 4843TIP3    H114474   6.046   5.627   2.101
 4843TIP3    H214475   6.161   5.584   2.011
 4844TIP3   OH214476   5.797   5.827   1.484
 4844TIP3    H114477   5.723   5.767   1.493
 4844TIP3    H214478   5.870   5.782   1.528
 4845TIP3   OH214479   4.512   6.050   0.949
 4845TIP3    H114480   4.569   6.127   0.955
 4845TIP3    H214481   4.553   5.995   0.883
 4846TIP3   OH214482   4.450   5.330   1.089
 4846TIP3    H114483   4.450   5.426   1.084
 4846TIP3    H214484   4.380   5.302   1.030
 4847TIP3   OH214485   5.770   6.792   1.432
 4847TIP3    H114486   5.723   6.836   1.361
 4847TIP3    H214487   5.861   6.816   1.419
 4848TIP3   OH214488   4.843   5.046   1.954
 4848TIP3    H114489   4.812   5.013   1.870
 4848TIP3    H214490   4.834   4.972   2.014
 4849TIP3   OH214491   4.377   6.268   1.331
 4849TIP3    H114492   4.317   6.294   1.400
 4849TIP3    H214493   4.343   6.310   1.252
 4850TIP3   OH214494   4.543   6.814   2.408
 4850TIP3    H114495   4.626   6.816   2.454
 4850TIP3    H214496   4.518   6.722   2.407
 4851TIP3   OH214497   5.019   6.772   2.448
 4851TIP3    H114498   5.111   6.748   2.463
 4851TIP3    H214499   4.989   6.712   2.380
 4852TIP3   OH214500   5.013   6.338   0.599
 4852TIP3    H114501   4.934   6.287   0.616
 4852TIP3    H214502   5.081   6.272   0.582
 4853TIP3   OH214503   5.677   6.703   2.166
 4853TIP3    H114504   5.630   6.628   2.205
 4853TIP3    H214505   5.762   6.702   2.210
 4854TIP3   OH214506   4.669   6.218   2.606
 4854TIP3    H114507   4.685   6.124   2.618
 4854TIP3    H214508   4.583   6.221   2.564
 4855TIP3   OH214509   4.641   5.874   0.791
 4855TIP3    H114510   4.687   5.806   0.840
 4855TIP3    H214511   4.700   5.895   0.719
 4856TIP3   OH214512   5.279   6.305   2.381
 4856TIP3    H114513   5.231   6.321   2.300
 4856TIP3    H214514   5.308   6.213   2.374
 4857TIP3   OH214515   5.133   6.072   0.613
 4857TIP3    H114516   5.156   6.083   0.705
 4857TIP3    H214517   5.141   5.978   0.597
 4858TIP3   OH214518   5.772   6.296   1.990
 4858TIP3    H114519   5.821   6.365   1.944
 4858TIP3    H214520   5.684   6.332   1.999
 4859TIP3   OH214521   4.795   5.957   2.592
 4859TIP3    H114522   4.864   5.893   2.571
 4859TIP3    H214523   4.818   5.989   2.679
 4860TIP3   OH214524   5.123   5.840   2.253
 4860TIP3    H114525   5.045   5.894   2.253
 4860TIP3    H214526   5.175   5.872   2.179
 4861TIP3   OH214527   4.981   5.565   0.881
 4861TIP3    H114528   4.915   5.559   0.811
 4861TIP3    H214529   5.064   5.577   0.834
 4862TIP3   OH214530   5.647   6.244   2.383
 4862TIP3    H114531   5.730   6.213   2.347
 4862TIP3    H214532   5.628   6.185   2.455
 4863TIP3   OH214533   5.776   5.859   0.534
 4863TIP3    H114534   5.800   5.796   0.466
 4863TIP3    H214535   5.774   5.943   0.489
 4864TIP3   OH214536   5.247   5.626   2.375
 4864TIP3    H114537   5.248   5.547   2.321
 4864TIP3    H214538   5.203   5.691   2.321
 4865TIP3   OH214539   5.249   5.414   2.184
 4865TIP3    H114540   5.278   5.450   2.100
 4865TIP3    H214541   5.158   5.389   2.169
 4866TIP3   OH214542   5.273   5.949   2.060
 4866TIP3    H114543   5.356   5.948   2.012
 4866TIP3    H214544   5.217   6.009   2.011
 4867TIP3   OH214545   5.858   5.910   2.437
 4867TIP3    H114546   5.898   5.826   2.457
 4867TIP3    H214547   5.929   5.963   2.402
 4868TIP3   OH214548   5.908   6.164   2.176
 4868TIP3    H114549   5.848   6.211   2.118
 4868TIP3    H214550   5.995   6.180   2.139
 4869TIP3   OH214551   5.125   5.730   2.609
 4869TIP3    H114552   5.058   5.665   2.629
 4869TIP3    H214553   5.159   5.704   2.524
 4870TIP3   OH214554   5.379   5.173   2.253
 4870TIP3    H114555   5.331   5.254   2.233
 4870TIP3    H214556   5.314   5.104   2.245
 4871TIP3   OH214557   5.504   5.677   2.472
 4871TIP3    H114558   5.497   5.662   2.567
 4871TIP3    H214559   5.418   5.654   2.438
 4872TIP3   OH214560   5.746   5.628   2.327
 4872TIP3    H114561   5.672   5.628   2.388
 4872TIP3    H214562   5.820   5.597   2.379
 4873TIP3   OH214563   5.973   5.567   2.475
 4873TIP3    H114564   5.988   5.474   2.489
 4873TIP3    H214565   5.970   5.605   2.563
 4874TIP3   OH214566   4.967   5.510   2.667
 4874TIP3    H114567   4.968   5.420   2.633
 4874TIP3    H214568   5.004   5.503   2.755
 4875TIP3   OH214569   5.477   5.183   2.510
 4875TIP3    H114570   5.542   5.114   2.509
 4875TIP3    H214571   5.435   5.179   2.424
 4876TIP3   OH214572   5.542   5.400   2.668
 4876TIP3    H114573   5.523   5.328   2.608
 4876TIP3    H214574   5.464   5.456   2.664
 4877TIP3   OH214575   4.763   6.628   0.768
 4877TIP3    H114576   4.858   6.623   0.753
 4877TIP3    H214577   4.729   6.675   0.692
 4878TIP3   OH214578   4.244   6.007   0.987
 4878TIP3    H114579   4.335   6.030   0.972
 4878TIP3    H214580   4.233   5.921   0.946
 4879TIP3   OH214581   4.159   6.619   1.404
 4879TIP3    H114582   4.094   6.561   1.363
 4879TIP3    H214583   4.204   6.562   1.467
 4880TIP3   OH214584   4.295   6.466   1.591
 4880TIP3    H114585   4.281   6.396   1.654
 4880TIP3    H214586   4.345   6.532   1.639
 4881TIP3   OH214587   6.025   6.886   1.400
 4881TIP3    H114588   6.076   6.963   1.425
 4881TIP3    H214589   6.063   6.858   1.317
 4882TIP3   OH214590   6.030   6.883   1.697
 4882TIP3    H114591   6.038   6.848   1.608
 4882TIP3    H214592   6.111   6.856   1.741
 4883TIP3   OH214593   6.084   6.579   2.231
 4883TIP3    H114594   6.021   6.581   2.304
 4883TIP3    H214595   6.138   6.657   2.245
 4884TIP3   OH214596   5.912   6.080   0.871
 4884TIP3    H114597   5.978   6.142   0.841
 4884TIP3    H214598   5.951   6.037   0.946
 4885TIP3   OH214599   6.040   5.948   1.070
 4885TIP3    H114600   5.978   5.906   1.129
 4885TIP3    H214601   6.109   5.981   1.127
 4886TIP3   OH214602   6.083   6.336   1.482
 4886TIP3    H114603   6.146   6.270   1.455
 4886TIP3    H214604   6.088   6.404   1.415
 4887TIP3   OH214605   5.975   5.855   0.723
 4887TIP3    H114606   5.903   5.840   0.661
 4887TIP3    H214607   5.948   5.932   0.772
 4888TIP3   OH214608   5.847   5.540   0.657
 4888TIP3    H114609   5.830   5.562   0.565
 4888TIP3    H214610   5.816   5.450   0.665
 4889TIP3   OH214611   5.851   5.806   1.214
 4889TIP3    H114612   5.862   5.712   1.202
 4889TIP3    H214613   5.839   5.816   1.309
 4890TIP3   OH214614   4.481   5.880   1.959
 4890TIP3    H114615   4.474   5.846   1.870
 4890TIP3    H214616   4.575   5.880   1.977
 4891TIP3   OH214617   6.147   6.233   2.063
 4891TIP3    H114618   6.210   6.161   2.059
 4891TIP3    H214619   6.185   6.301   2.007
 4892TIP3   OH214620   6.321   6.030   2.083
 4892TIP3    H114621   6.248   5.981   2.120
 4892TIP3    H214622   6.398   5.974   2.097
 4893TIP3   OH214623   5.779   5.278   0.666
 4893TIP3    H114624   5.859   5.239   0.702
 4893TIP3    H214625   5.712   5.212   0.682
 4894TIP3   OH214626   5.854   5.522   1.101
 4894TIP3    H114627   5.889   5.435   1.119
 4894TIP3    H214628   5.908   5.556   1.029
 4895TIP3   OH214629   6.012   5.699   1.601
 4895TIP3    H114630   6.095   5.719   1.557
 4895TIP3    H214631   6.025   5.729   1.691
 4896TIP3   OH214632   6.082   5.841   1.831
 4896TIP3    H114633   6.007   5.872   1.881
 4896TIP3    H214634   6.117   5.919   1.788
 4897TIP3   OH214635   4.702   5.565   2.637
 4897TIP3    H114636   4.798   5.560   2.639
 4897TIP3    H214637   4.674   5.481   2.672
 4898TIP3   OH214638   6.533   5.434   2.385
 4898TIP3    H114639   6.593   5.369   2.348
 4898TIP3    H214640   6.503   5.485   2.310
 4899TIP3   OH214641   5.955   5.273   1.149
 4899TIP3    H114642   6.006   5.258   1.228
 4899TIP3    H214643   5.897   5.197   1.143
 4900TIP3   OH214644   4.663   5.257   1.956
 4900TIP3    H114645   4.720   5.181   1.970
 4900TIP3    H214646   4.722   5.332   1.956
 4901TIP3   OH214647   4.461   5.531   2.034
 4901TIP3    H114648   4.508   5.529   1.951
 4901TIP3    H214649   4.488   5.613   2.076
 4902TIP3   OH214650   6.398   5.567   2.190
 4902TIP3    H114651   6.316   5.611   2.215
 4902TIP3    H214652   6.371   5.494   2.134
 4903TIP3   OH214653   6.038   5.203   0.773
 4903TIP3    H114654   6.074   5.131   0.722
 4903TIP3    H214655   6.106   5.271   0.769
 4904TIP3   OH214656   4.446   5.039   1.542
 4904TIP3    H114657   4.354   5.028   1.569
 4904TIP3    H214658   4.441   5.094   1.464
 4905TIP3   OH214659   5.616   6.734   1.049
 4905TIP3    H114660   5.652   6.721   0.961
 4905TIP3    H214661   5.663   6.810   1.083
 4906TIP3   OH214662   4.664   5.117   2.351
 4906TIP3    H114663   4.616   5.108   2.434
 4906TIP3    H214664   4.599   5.153   2.291
 4907TIP3   OH214665   4.704   6.545   2.429
 4907TIP3    H114666   4.613   6.521   2.411
 4907TIP3    H214667   4.717   6.522   2.521
 4908TIP3   OH214668   4.886   6.580   1.975
 4908TIP3    H114669   4.833   6.651   1.940
 4908TIP3    H214670   4.970   6.589   1.930
 4909TIP3   OH214671   5.338   6.825   2.117
 4909TIP3    H114672   5.357   6.817   2.210
 4909TIP3    H214673   5.424   6.835   2.075
 4910TIP3   OH214674   6.301   5.328   2.072
 4910TIP3    H114675   6.211   5.318   2.040
 4910TIP3    H214676   6.339   5.240   2.064
 4911TIP3   OH214677   4.559   6.836   2.001
 4911TIP3    H114678   4.471   6.865   1.976
 4911TIP3    H214679   4.573   6.875   2.087
 4912TIP3   OH214680   4.794   6.813   1.859
 4912TIP3    H114681   4.710   6.824   1.904
 4912TIP3    H214682   4.777   6.843   1.769
 4913TIP3   OH214683   5.236   6.834   1.658
 4913TIP3    H114684   5.165   6.844   1.594
 4913TIP3    H214685   5.245   6.920   1.698
 4914TIP3   OH214686   5.519   6.794   1.701
 4914TIP3    H114687   5.425   6.813   1.694
 4914TIP3    H214688   5.561   6.878   1.684
 4915TIP3   OH214689   5.694   6.979   1.624
 4915TIP3    H114690   5.680   7.064   1.581
 4915TIP3    H214691   5.732   6.924   1.555
 4916TIP3   OH214692   4.474   6.625   1.746
 4916TIP3    H114693   4.496   6.598   1.835
 4916TIP3    H214694   4.541   6.584   1.691
 4917TIP3   OH214695   4.667   6.498   1.605
 4917TIP3    H114696   4.679   6.416   1.653
 4917TIP3    H214697   4.756   6.534   1.599
 4918TIP3   OH214698   4.936   6.587   1.609
 4918TIP3    H114699   4.961   6.496   1.596
 4918TIP3    H214700   4.979   6.613   1.691
 4919TIP3   OH214701   5.491   5.237   1.674
 4919TIP3    H114702   5.459   5.173   1.737
 4919TIP3    H214703   5.575   5.202   1.644
 4920TIP3   OH214704   6.026   5.133   1.596
 4920TIP3    H114705   6.063   5.180   1.522
 4920TIP3    H214706   5.931   5.149   1.590
 4921TIP3   OH214707   6.125   5.230   1.360
 4921TIP3    H114708   6.195   5.175   1.324
 4921TIP3    H214709   6.156   5.320   1.347
 4922TIP3   OH214710   4.753   4.956   1.703
 4922TIP3    H114711   4.662   4.927   1.709
 4922TIP3    H214712   4.804   4.875   1.701
 4923TIP3   OH214713   4.545   4.830   1.360
 4923TIP3    H114714   4.571   4.882   1.284
 4923TIP3    H214715   4.517   4.894   1.425
 4924TIP3   OH214716   5.195   4.998   1.590
 4924TIP3    H114717   5.255   5.038   1.526
 4924TIP3    H214718   5.229   5.024   1.675
 4925TIP3   OH214719   5.738   5.134   1.573
 4925TIP3    H114720   5.750   5.095   1.487
 4925TIP3    H214721   5.729   5.060   1.632
 4926TIP3   OH214722   5.774   5.059   1.137
 4926TIP3    H114723   5.687   5.098   1.146
 4926TIP3    H214724   5.767   4.974   1.181
 4927TIP3   OH214725   4.256   6.406   1.132
 4927TIP3    H114726   4.172   6.369   1.103
 4927TIP3    H214727   4.253   6.497   1.103
 4928TIP3   OH214728   4.660   4.979   1.116
 4928TIP3    H114729   4.700   4.913   1.058
 4928TIP3    H214730   4.735   5.028   1.150
 4929TIP3   OH214731   5.165   5.173   1.226
 4929TIP3    H114732   5.225   5.121   1.279
 4929TIP3    H214733   5.185   5.264   1.249
 4930TIP3   OH214734   5.033   6.585   0.716
 4930TIP3    H114735   5.124   6.602   0.690
 4930TIP3    H214736   5.007   6.510   0.662
 4931TIP3   OH214737   5.750   6.705   0.808
 4931TIP3    H114738   5.743   6.613   0.785
 4931TIP3    H214739   5.753   6.752   0.724
 4932TIP3   OH214740   4.965   5.238   2.602
 4932TIP3    H114741   4.925   5.168   2.654
 4932TIP3    H214742   5.057   5.238   2.628
 4933TIP3   OH214743   5.215   5.232   2.720
 4933TIP3    H114744   5.299   5.207   2.681
 4933TIP3    H214745   5.198   5.166   2.787
 4934TIP3   OH214746   4.337   6.413   0.776
 4934TIP3    H114747   4.340   6.443   0.867
 4934TIP3    H214748   4.424   6.374   0.761
 4935TIP3   OH214749   6.042   5.298   2.506
 4935TIP3    H114750   6.056   5.268   2.596
 4935TIP3    H214751   6.128   5.293   2.465
 4936TIP3   OH214752   7.227   6.206   1.151
 4936TIP3    H114753   7.272   6.202   1.235
 4936TIP3    H214754   7.185   6.121   1.142
 4937TIP3   OH214755   6.536   6.116   1.522
 4937TIP3    H114756   6.568   6.046   1.579
 4937TIP3    H214757   6.613   6.170   1.504
 4938TIP3   OH214758   6.531   6.517   1.285
 4938TIP3    H114759   6.517   6.424   1.265
 4938TIP3    H214760   6.614   6.539   1.243
 4939TIP3   OH214761   6.218   5.728   1.011
 4939TIP3    H114762   6.172   5.810   1.032
 4939TIP3    H214763   6.150   5.672   0.974
 4940TIP3   OH214764   6.276   6.016   1.198
 4940TIP3    H114765   6.324   5.939   1.229
 4940TIP3    H214766   6.341   6.067   1.150
 4941TIP3   OH214767   7.042   6.446   1.193
 4941TIP3    H114768   7.081   6.369   1.151
 4941TIP3    H214769   7.118   6.499   1.219
 4942TIP3   OH214770   8.045   5.779   1.194
 4942TIP3    H114771   8.079   5.852   1.246
 4942TIP3    H214772   8.074   5.797   1.105
 4943TIP3   OH214773   7.454   5.947   1.234
 4943TIP3    H114774   7.496   5.864   1.256
 4943TIP3    H214775   7.423   5.935   1.145
 4944TIP3   OH214776   6.794   5.607   1.186
 4944TIP3    H114777   6.775   5.680   1.127
 4944TIP3    H214778   6.748   5.532   1.148
 4945TIP3   OH214779   7.462   5.700   0.844
 4945TIP3    H114780   7.542   5.684   0.894
 4945TIP3    H214781   7.493   5.717   0.755
 4946TIP3   OH214782   6.427   5.808   1.295
 4946TIP3    H114783   6.507   5.792   1.345
 4946TIP3    H214784   6.437   5.755   1.216
 4947TIP3   OH214785   6.864   6.003   1.095
 4947TIP3    H114786   6.957   5.982   1.107
 4947TIP3    H214787   6.826   5.922   1.061
 4948TIP3   OH214788   6.785   5.592   1.624
 4948TIP3    H114789   6.728   5.628   1.556
 4948TIP3    H214790   6.737   5.607   1.706
 4949TIP3   OH214791   6.892   6.369   1.416
 4949TIP3    H114792   6.835   6.435   1.457
 4949TIP3    H214793   6.935   6.416   1.345
 4950TIP3   OH214794   7.697   5.705   0.989
 4950TIP3    H114795   7.673   5.663   1.071
 4950TIP3    H214796   7.740   5.787   1.015
 4951TIP3   OH214797   6.663   5.708   1.406
 4951TIP3    H114798   6.720   5.779   1.433
 4951TIP3    H214799   6.710   5.665   1.334
 4952TIP3   OH214800   6.721   6.562   1.528
 4952TIP3    H114801   6.696   6.631   1.467
 4952TIP3    H214802   6.644   6.549   1.583
 4953TIP3   OH214803   6.107   6.241   0.754
 4953TIP3    H114804   6.037   6.265   0.693
 4953TIP3    H214805   6.140   6.324   0.787
 4954TIP3   OH214806   7.851   5.659   1.355
 4954TIP3    H114807   7.765   5.695   1.335
 4954TIP3    H214808   7.909   5.696   1.289
 4955TIP3   OH214809   7.136   5.306   1.340
 4955TIP3    H114810   7.128   5.213   1.361
 4955TIP3    H214811   7.064   5.348   1.387
 4956TIP3   OH214812   8.011   6.297   1.215
 4956TIP3    H114813   7.920   6.324   1.225
 4956TIP3    H214814   8.039   6.336   1.133
 4957TIP3   OH214815   7.651   6.193   1.486
 4957TIP3    H114816   7.653   6.271   1.542
 4957TIP3    H214817   7.569   6.200   1.437
 4958TIP3   OH214818   6.660   6.152   0.984
 4958TIP3    H114819   6.615   6.093   0.923
 4958TIP3    H214820   6.734   6.101   1.016
 4959TIP3   OH214821   6.777   6.556   1.141
 4959TIP3    H114822   6.759   6.535   1.050
 4959TIP3    H214823   6.867   6.528   1.154
 4960TIP3   OH214824   6.780   6.130   1.336
 4960TIP3    H114825   6.817   6.103   1.252
 4960TIP3    H214826   6.826   6.211   1.358
 4961TIP3   OH214827   7.283   6.743   1.096
 4961TIP3    H114828   7.303   6.825   1.141
 4961TIP3    H214829   7.290   6.676   1.164
 4962TIP3   OH214830   6.926   6.680   1.668
 4962TIP3    H114831   6.870   6.743   1.713
 4962TIP3    H214832   6.865   6.629   1.615
 4963TIP3   OH214833   6.683   6.234   1.775
 4963TIP3    H114834   6.692   6.323   1.811
 4963TIP3    H214835   6.589   6.216   1.779
 4964TIP3   OH214836   6.720   6.849   1.746
 4964TIP3    H114837   6.692   6.850   1.655
 4964TIP3    H214838   6.639   6.834   1.796
 4965TIP3   OH214839   6.514   5.989   0.815
 4965TIP3    H114840   6.455   6.033   0.754
 4965TIP3    H214841   6.474   5.904   0.832
 4966TIP3   OH214842   6.294   6.376   1.699
 4966TIP3    H114843   6.252   6.351   1.616
 4966TIP3    H214844   6.339   6.296   1.727
 4967TIP3   OH214845   7.114   6.815   1.518
 4967TIP3    H114846   7.115   6.906   1.546
 4967TIP3    H214847   7.049   6.773   1.574
 4968TIP3   OH214848   6.321   6.789   0.865
 4968TIP3    H114849   6.394   6.804   0.925
 4968TIP3    H214850   6.251   6.755   0.920
 4969TIP3   OH214851   7.918   6.165   1.666
 4969TIP3    H114852   7.849   6.178   1.600
 4969TIP3    H214853   7.950   6.077   1.649
 4970TIP3   OH214854   6.503   6.564   1.698
 4970TIP3    H114855   6.558   6.538   1.772
 4970TIP3    H214856   6.432   6.500   1.698
 4971TIP3   OH214857   6.900   5.387   1.470
 4971TIP3    H114858   6.815   5.355   1.440
 4971TIP3    H214859   6.879   5.466   1.520
 4972TIP3   OH214860   7.441   5.498   1.667
 4972TIP3    H114861   7.510   5.472   1.727
 4972TIP3    H214862   7.360   5.481   1.714
 4973TIP3   OH214863   7.666   5.925   1.576
 4973TIP3    H114864   7.625   5.923   1.663
 4973TIP3    H214865   7.656   6.015   1.547
 4974TIP3   OH214866   6.833   5.907   1.485
 4974TIP3    H114867   6.790   5.926   1.569
 4974TIP3    H214868   6.819   5.986   1.433
 4975TIP3   OH214869   6.718   5.783   0.997
 4975TIP3    H114870   6.628   5.762   1.023
 4975TIP3    H214871   6.724   5.751   0.907
 4976TIP3   OH214872   7.386   6.148   1.815
 4976TIP3    H114873   7.365   6.078   1.876
 4976TIP3    H214874   7.479   6.167   1.832
 4977TIP3   OH214875   7.361   5.908   0.983
 4977TIP3    H114876   7.322   5.958   0.912
 4977TIP3    H214877   7.391   5.827   0.941
 4978TIP3   OH214878   6.654   5.930   1.699
 4978TIP3    H114879   6.698   5.991   1.758
 4978TIP3    H214880   6.646   5.849   1.749
 4979TIP3   OH214881   6.246   5.455   1.280
 4979TIP3    H114882   6.323   5.482   1.329
 4979TIP3    H214883   6.280   5.418   1.199
 4980TIP3   OH214884   6.216   5.436   0.805
 4980TIP3    H114885   6.262   5.466   0.726
 4980TIP3    H214886   6.152   5.505   0.822
 4981TIP3   OH214887   7.365   6.146   1.389
 4981TIP3    H114888   7.406   6.082   1.331
 4981TIP3    H214889   7.340   6.095   1.467
 4982TIP3   OH214890   7.047   5.609   1.060
 4982TIP3    H114891   6.967   5.608   1.114
 4982TIP3    H214892   7.118   5.606   1.124
 4983TIP3   OH214893   6.479   5.666   1.066
 4983TIP3    H114894   6.388   5.674   1.040
 4983TIP3    H214895   6.502   5.575   1.048
 4984TIP3   OH214896   6.750   5.674   0.740
 4984TIP3    H114897   6.844   5.674   0.760
 4984TIP3    H214898   6.743   5.723   0.658
 4985TIP3   OH214899   7.537   5.685   1.259
 4985TIP3    H114900   7.514   5.698   1.351
 4985TIP3    H214901   7.470   5.625   1.226
 4986TIP3   OH214902   6.664   6.481   1.907
 4986TIP3    H114903   6.745   6.520   1.939
 4986TIP3    H214904   6.606   6.477   1.983
 4987TIP3   OH214905   7.129   5.937   1.164
 4987TIP3    H114906   7.209   5.905   1.123
 4987TIP3    H214907   7.130   5.898   1.251
 4988TIP3   OH214908   6.653   5.421   1.042
 4988TIP3    H114909   6.612   5.350   1.091
 4988TIP3    H214910   6.705   5.376   0.975
 4989TIP3   OH214911   7.106   5.845   1.445
 4989TIP3    H114912   7.018   5.878   1.464
 4989TIP3    H214913   7.164   5.900   1.497
 4990TIP3   OH214914   7.752   6.367   1.154
 4990TIP3    H114915   7.742   6.462   1.140
 4990TIP3    H214916   7.662   6.335   1.157
 4991TIP3   OH214917   7.239   6.533   1.549
 4991TIP3    H114918   7.267   6.516   1.639
 4991TIP3    H214919   7.204   6.622   1.551
 4992TIP3   OH214920   6.527   6.227   1.214
 4992TIP3    H114921   6.568   6.212   1.129
 4992TIP3    H214922   6.586   6.187   1.277
 4993TIP3   OH214923   6.416   6.173   1.844
 4993TIP3    H114924   6.440   6.160   1.936
 4993TIP3    H214925   6.356   6.102   1.824
 4994TIP3   OH214926   7.147   6.286   1.853
 4994TIP3    H114927   7.087   6.223   1.811
 4994TIP3    H214928   7.234   6.254   1.832
 4995TIP3   OH214929   7.387   6.784   1.468
 4995TIP3    H114930   7.293   6.791   1.451
 4995TIP3    H214931   7.401   6.833   1.548
 4996TIP3   OH214932   7.488   6.304   1.117
 4996TIP3    H114933   7.393   6.294   1.111
 4996TIP3    H214934   7.523   6.236   1.059
 4997TIP3   OH214935   6.638   6.559   0.883
 4997TIP3    H114936   6.644   6.607   0.801
 4997TIP3    H214937   6.556   6.590   0.922
 4998TIP3   OH214938   6.196   5.858   0.565
 4998TIP3    H114939   6.242   5.935   0.601
 4998TIP3    H214940   6.119   5.848   0.621
 4999TIP3   OH214941   6.762   6.332   0.798
 4999TIP3    H114942   6.739   6.415   0.840
 4999TIP3    H214943   6.745   6.266   0.866
 5000TIP3   OH214944   6.907   6.883   1.323
 5000TIP3    H114945   6.941   6.950   1.264
 5000TIP3    H214946   6.984   6.849   1.369
 5001TIP3   OH214947   7.293   6.519   1.278
 5001TIP3    H114948   7.280   6.516   1.373
 5001TIP3    H214949   7.373   6.469   1.263
 5002TIP3   OH214950   6.627   5.673   1.840
 5002TIP3    H114951   6.532   5.674   1.851
 5002TIP3    H214952   6.659   5.619   1.913
 5003TIP3   OH214953   6.338   6.772   1.491
 5003TIP3    H114954   6.369   6.685   1.466
 5003TIP3    H214955   6.409   6.810   1.541
 5004TIP3   OH214956   6.316   6.096   0.654
 5004TIP3    H114957   6.243   6.131   0.705
 5004TIP3    H214958   6.352   6.171   0.608
 5005TIP3   OH214959   7.472   5.730   1.516
 5005TIP3    H114960   7.545   5.780   1.552
 5005TIP3    H214961   7.462   5.656   1.576
 5006TIP3   OH214962   7.019   5.662   0.794
 5006TIP3    H114963   7.091   5.722   0.773
 5006TIP3    H214964   7.026   5.649   0.889
 5007TIP3   OH214965   7.305   5.985   1.602
 5007TIP3    H114966   7.327   6.042   1.675
 5007TIP3    H214967   7.361   5.908   1.613
 5008TIP3   OH214968   7.193   5.404   0.903
 5008TIP3    H114969   7.179   5.460   0.979
 5008TIP3    H214970   7.265   5.447   0.856
 5009TIP3   OH214971   6.688   5.398   0.675
 5009TIP3    H114972   6.677   5.488   0.707
 5009TIP3    H214973   6.772   5.370   0.710
 5010TIP3   OH214974   7.939   5.908   1.563
 5010TIP3    H114975   7.844   5.902   1.575
 5010TIP3    H214976   7.958   5.849   1.491
 5011TIP3   OH214977   7.587   6.088   0.979
 5011TIP3    H114978   7.519   6.022   0.988
 5011TIP3    H214979   7.667   6.046   1.011
 5012TIP3   OH214980   6.250   5.587   0.579
 5012TIP3    H114981   6.237   5.682   0.572
 5012TIP3    H214982   6.187   5.550   0.516
 5013TIP3   OH214983   6.637   5.304   1.441
 5013TIP3    H114984   6.608   5.271   1.356
 5013TIP3    H214985   6.628   5.229   1.500
 5014TIP3   OH214986   6.177   6.496   0.816
 5014TIP3    H114987   6.145   6.531   0.899
 5014TIP3    H214988   6.269   6.522   0.813
 5015TIP3   OH214989   6.346   7.068   1.902
 5015TIP3    H114990   6.426   7.087   1.950
 5015TIP3    H214991   6.350   6.975   1.883
 5016TIP3   OH214992   6.808   7.027   1.940
 5016TIP3    H114993   6.903   7.018   1.950
 5016TIP3    H214994   6.787   6.967   1.868
 5017TIP3   OH214995   7.452   6.928   1.688
 5017TIP3    H114996   7.448   6.862   1.757
 5017TIP3    H214997   7.532   6.977   1.707
 5018TIP3   OH214998   6.460   6.469   2.097
 5018TIP3    H114999   6.481   6.377   2.113
 5018TIP3    H215000   6.377   6.467   2.049
 5019TIP3   OH215001   7.073   6.557   1.875
 5019TIP3    H115002   7.034   6.583   1.791
 5019TIP3    H215003   7.104   6.468   1.860
 5020TIP3   OH215004   7.560   6.568   1.470
 5020TIP3    H115005   7.621   6.633   1.436
 5020TIP3    H215006   7.476   6.614   1.475
 5021TIP3   OH215007   6.602   6.215   2.088
 5021TIP3    H115008   6.660   6.167   2.030
 5021TIP3    H215009   6.661   6.259   2.150
 5022TIP3   OH215010   6.916   6.086   1.732
 5022TIP3    H115011   6.845   6.150   1.740
 5022TIP3    H215012   6.971   6.121   1.661
 5023TIP3   OH215013   7.444   6.491   1.869
 5023TIP3    H115014   7.521   6.464   1.819
 5023TIP3    H215015   7.440   6.429   1.942
 5024TIP3   OH215016   7.048   5.878   1.853
 5024TIP3    H115017   7.050   5.801   1.796
 5024TIP3    H215018   7.004   5.945   1.800
 5025TIP3   OH215019   7.046   5.667   1.667
 5025TIP3    H115020   7.075   5.708   1.585
 5025TIP3    H215021   6.954   5.645   1.651
 5026TIP3   OH215022   7.067   6.199   1.541
 5026TIP3    H115023   7.156   6.215   1.508
 5026TIP3    H215024   7.013   6.265   1.499
 5027TIP3   OH215025   7.659   6.167   1.923
 5027TIP3    H115026   7.706   6.084   1.935
 5027TIP3    H215027   7.725   6.227   1.888
 5028TIP3   OH215028   7.668   6.425   1.673
 5028TIP3    H115029   7.614   6.475   1.612
 5028TIP3    H215030   7.757   6.430   1.637
 5029TIP3   OH215031   6.932   5.968   2.090
 5029TIP3    H115032   6.858   5.910   2.108
 5029TIP3    H215033   6.962   5.942   2.003
 5030TIP3   OH215034   7.175   5.429   1.741
 5030TIP3    H115035   7.129   5.510   1.719
 5030TIP3    H215036   7.109   5.360   1.732
 5031TIP3   OH215037   7.301   5.932   1.959
 5031TIP3    H115038   7.289   5.917   2.052
 5031TIP3    H215039   7.217   5.909   1.919
 5032TIP3   OH215040   7.541   5.882   1.813
 5032TIP3    H115041   7.469   5.885   1.876
 5032TIP3    H215042   7.616   5.854   1.865
 5033TIP3   OH215043   7.770   5.826   1.963
 5033TIP3    H115044   7.783   5.732   1.976
 5033TIP3    H215045   7.768   5.863   2.051
 5034TIP3   OH215046   6.753   5.764   2.154
 5034TIP3    H115047   6.758   5.674   2.122
 5034TIP3    H215048   6.790   5.759   2.243
 5035TIP3   OH215049   7.271   5.438   1.999
 5035TIP3    H115050   7.338   5.370   1.997
 5035TIP3    H215051   7.231   5.435   1.912
 5036TIP3   OH215052   7.338   5.652   2.158
 5036TIP3    H115053   7.318   5.583   2.095
 5036TIP3    H215054   7.265   5.713   2.150
 5037TIP3   OH215055   5.955   6.868   0.908
 5037TIP3    H115056   5.889   6.816   0.864
 5037TIP3    H215057   6.002   6.805   0.964
 5038TIP3   OH215058   6.275   6.144   1.446
 5038TIP3    H115059   6.270   6.108   1.358
 5038TIP3    H215060   6.369   6.144   1.466
 5039TIP3   OH215061   7.896   6.465   1.534
 5039TIP3    H115062   7.980   6.429   1.562
 5039TIP3    H215063   7.918   6.526   1.464
 5040TIP3   OH215064   7.808   5.949   1.075
 5040TIP3    H115065   7.889   5.982   1.037
 5040TIP3    H215066   7.808   5.981   1.165
 5041TIP3   OH215067   7.849   6.081   1.306
 5041TIP3    H115068   7.784   6.119   1.364
 5041TIP3    H215069   7.917   6.148   1.298
 5042TIP3   OH215070   6.489   5.818   2.113
 5042TIP3    H115071   6.584   5.820   2.120
 5042TIP3    H215072   6.463   5.736   2.156
 5043TIP3   OH215073   6.458   5.515   1.453
 5043TIP3    H115074   6.515   5.438   1.461
 5043TIP3    H215075   6.518   5.589   1.443
 5044TIP3   OH215076   6.255   5.791   1.518
 5044TIP3    H115077   6.304   5.782   1.436
 5044TIP3    H215078   6.293   5.867   1.561
 5045TIP3   OH215079   6.241   5.300   1.036
 5045TIP3    H115080   6.148   5.285   1.055
 5045TIP3    H215081   6.241   5.351   0.955
 5046TIP3   OH215082   6.460   5.374   1.838
 5046TIP3    H115083   6.412   5.366   1.921
 5046TIP3    H215084   6.395   5.408   1.777
 5047TIP3   OH215085   6.497   6.816   1.911
 5047TIP3    H115086   6.424   6.757   1.892
 5047TIP3    H215087   6.529   6.787   1.997
 5048TIP3   OH215088   6.677   6.843   1.466
 5048TIP3    H115089   6.631   6.916   1.423
 5048TIP3    H215090   6.764   6.843   1.426
 5049TIP3   OH215091   7.139   7.091   1.597
 5049TIP3    H115092   7.168   7.081   1.688
 5049TIP3    H215093   7.210   7.138   1.555
 5050TIP3   OH215094   8.079   5.564   1.575
 5050TIP3    H115095   8.007   5.595   1.520
 5050TIP3    H215096   8.133   5.511   1.516
 5051TIP3   OH215097   6.357   7.108   1.486
 5051TIP3    H115098   6.266   7.127   1.467
 5051TIP3    H215099   6.371   7.140   1.575
 5052TIP3   OH215100   6.584   7.065   1.341
 5052TIP3    H115101   6.499   7.077   1.385
 5052TIP3    H215102   6.566   7.083   1.249
 5053TIP3   OH215103   7.000   7.071   1.159
 5053TIP3    H115104   6.948   7.105   1.085
 5053TIP3    H215105   7.027   7.150   1.207
 5054TIP3   OH215106   6.271   6.891   1.242
 5054TIP3    H115107   6.305   6.861   1.327
 5054TIP3    H215108   6.240   6.811   1.199
 5055TIP3   OH215109   6.736   6.859   1.090
 5055TIP3    H115110   6.741   6.763   1.082
 5055TIP3    H215111   6.783   6.878   1.172
 5056TIP3   OH215112   7.294   5.493   1.166
 5056TIP3    H115113   7.258   5.429   1.228
 5056TIP3    H215114   7.375   5.454   1.135
 5057TIP3   OH215115   7.828   5.382   1.084
 5057TIP3    H115116   7.869   5.432   1.013
 5057TIP3    H215117   7.735   5.407   1.079
 5058TIP3   OH215118   0.640   7.851   2.096
 5058TIP3    H115119   0.693   7.806   2.030
 5058TIP3    H215120   0.643   7.943   2.069
 5059TIP3   OH215121   6.550   5.210   1.193
 5059TIP3    H115122   6.458   5.183   1.195
 5059TIP3    H215123   6.599   5.128   1.188
 5060TIP3   OH215124   6.355   5.083   0.856
 5060TIP3    H115125   6.384   5.133   0.780
 5060TIP3    H215126   6.318   5.148   0.915
 5061TIP3   OH215127   6.997   5.243   1.084
 5061TIP3    H115128   7.053   5.295   1.025
 5061TIP3    H215129   7.019   5.275   1.171
 5062TIP3   OH215130   7.539   5.388   1.057
 5062TIP3    H115131   7.553   5.344   0.973
 5062TIP3    H215132   7.529   5.317   1.120
 5063TIP3   OH215133   6.461   5.227   0.649
 5063TIP3    H115134   6.468   5.189   0.562
 5063TIP3    H215135   6.537   5.285   0.656
 5064TIP3   OH215136   6.938   5.397   0.777
 5064TIP3    H115137   7.013   5.347   0.809
 5064TIP3    H215138   6.968   5.488   0.778
 5065TIP3   OH215139   6.761   5.489   2.087
 5065TIP3    H115140   6.722   5.420   2.141
 5065TIP3    H215141   6.853   5.491   2.112
 5066TIP3   OH215142   7.009   5.490   2.205
 5066TIP3    H115143   7.094   5.468   2.165
 5066TIP3    H215144   6.996   5.422   2.272
 5067TIP3   OH215145   7.833   5.555   1.995
 5067TIP3    H115146   7.850   5.524   2.084
 5067TIP3    H215147   7.918   5.552   1.951
 5068TIP3   OH215148   0.510   6.558   2.881
 5068TIP3    H115149   0.536   6.638   2.927
 5068TIP3    H215150   0.530   6.576   2.789
 5069TIP3   OH215151   8.441   6.457   2.496
 5069TIP3    H115152   8.502   6.470   2.568
 5069TIP3    H215153   8.467   6.522   2.430
 5070TIP3   OH215154   0.574   6.767   3.055
 5070TIP3    H115155   0.490   6.811   3.040
 5070TIP3    H215156   0.602   6.799   3.141
 5071TIP3   OH215157   0.141   6.505   2.672
 5071TIP3    H115158   0.152   6.425   2.724
 5071TIP3    H215159   0.201   6.568   2.713
 5072TIP3   OH215160   0.306   6.466   3.047
 5072TIP3    H115161   0.225   6.505   3.015
 5072TIP3    H215162   0.372   6.489   2.982
 5073TIP3   OH215163   0.224   7.484   3.029
 5073TIP3    H115164   0.208   7.398   2.991
 5073TIP3    H215165   0.260   7.536   2.957
 5074TIP3   OH215166   0.430   7.107   2.870
 5074TIP3    H115167   0.349   7.156   2.882
 5074TIP3    H215168   0.460   7.131   2.783
 5075TIP3   OH215169   0.238   6.033   2.147
 5075TIP3    H115170   0.158   6.049   2.197
 5075TIP3    H215171   0.254   6.115   2.100
 5076TIP3   OH215172   0.377   6.943   3.353
 5076TIP3    H115173   0.295   6.970   3.312
 5076TIP3    H215174   0.379   6.847   3.343
 5077TIP3   OH215175   0.200   7.255   2.870
 5077TIP3    H115176   0.233   7.303   2.794
 5077TIP3    H215177   0.110   7.231   2.846
 5078TIP3   OH215178   0.474   7.507   3.124
 5078TIP3    H115179   0.379   7.515   3.112
 5078TIP3    H215180   0.508   7.492   3.036
 5079TIP3   OH215181   0.371   6.677   3.273
 5079TIP3    H115182   0.292   6.632   3.304
 5079TIP3    H215183   0.389   6.637   3.188
 5080TIP3   OH215184   0.047   6.846   2.648
 5080TIP3    H115185  -0.021   6.783   2.671
 5080TIP3    H215186   0.125   6.817   2.695
 5081TIP3   OH215187   0.300   6.595   3.692
 5081TIP3    H115188   0.301   6.500   3.689
 5081TIP3    H215189   0.208   6.619   3.695
 5082TIP3   OH215190   0.301   6.992   2.227
 5082TIP3    H115191   0.232   6.953   2.281
 5082TIP3    H215192   0.364   7.027   2.290
 5083TIP3   OH215193   0.331   7.382   2.673
 5083TIP3    H115194   0.394   7.326   2.628
 5083TIP3    H215195   0.334   7.465   2.625
 5084TIP3   OH215196   0.133   6.835   2.386
 5084TIP3    H115197   0.126   6.740   2.381
 5084TIP3    H215198   0.103   6.857   2.474
 5085TIP3   OH215199   0.386   7.268   3.247
 5085TIP3    H115200   0.459   7.206   3.238
 5085TIP3    H215201   0.410   7.340   3.190
 5086TIP3   OH215202   0.584   7.077   3.250
 5086TIP3    H115203   0.510   7.036   3.295
 5086TIP3    H215204   0.657   7.017   3.265
 5087TIP3   OH215205   0.135   6.564   2.308
 5087TIP3    H115206   0.146   6.480   2.351
 5087TIP3    H215207   0.162   6.549   2.217
 5088TIP3   OH215208   0.264   6.743   2.785
 5088TIP3    H115209   0.345   6.763   2.739
 5088TIP3    H215210   0.274   6.783   2.871
 5089TIP3   OH215211   0.319   6.890   3.009
 5089TIP3    H115212   0.238   6.918   3.052
 5089TIP3    H215213   0.355   6.970   2.971
 5090TIP3   OH215214   0.787   6.482   3.560
 5090TIP3    H115215   0.842   6.415   3.521
 5090TIP3    H215216   0.753   6.531   3.485
 5091TIP3   OH215217   0.219   6.299   2.318
 5091TIP3    H115218   0.261   6.291   2.403
 5091TIP3    H215219   0.148   6.235   2.319
 5092TIP3   OH215220   0.644   6.614   3.367
 5092TIP3    H115221   0.568   6.657   3.406
 5092TIP3    H215222   0.606   6.544   3.313
 5093TIP3   OH215223   0.367   6.256   1.980
 5093TIP3    H115224   0.290   6.219   1.936
 5093TIP3    H215225   0.372   6.346   1.948
 5094TIP3   OH215226   0.548   6.370   3.249
 5094TIP3    H115227   0.458   6.354   3.221
 5094TIP3    H215228   0.590   6.284   3.244
 5095TIP3   OH215229   0.296   6.168   2.763
 5095TIP3    H115230   0.333   6.220   2.692
 5095TIP3    H215231   0.202   6.189   2.763
 5096TIP3   OH215232   0.380   6.283   2.535
 5096TIP3    H115233   0.452   6.230   2.500
 5096TIP3    H215234   0.408   6.373   2.522
 5097TIP3   OH215235   0.035   6.215   2.740
 5097TIP3    H115236  -0.036   6.220   2.676
 5097TIP3    H215237   0.017   6.135   2.790
 5098TIP3   OH215238   8.528   6.097   2.312
 5098TIP3    H115239   8.445   6.127   2.276
 5098TIP3    H215240   8.506   6.015   2.357
 5099TIP3   OH215241   0.291   6.323   3.681
 5099TIP3    H115242   0.303   6.300   3.773
 5099TIP3    H215243   0.379   6.318   3.643
 5100TIP3   OH215244   1.494   7.254   1.946
 5100TIP3    H115245   1.456   7.340   1.929
 5100TIP3    H215246   1.429   7.191   1.914
 5101TIP3   OH215247   1.496   7.263   2.325
 5101TIP3    H115248   1.529   7.244   2.413
 5101TIP3    H215249   1.451   7.183   2.298
 5102TIP3   OH215250   0.789   7.158   2.687
 5102TIP3    H115251   0.816   7.089   2.747
 5102TIP3    H215252   0.859   7.224   2.695
 5103TIP3   OH215253   1.714   7.565   2.010
 5103TIP3    H115254   1.707   7.494   2.073
 5103TIP3    H215255   1.762   7.634   2.056
 5104TIP3   OH215256   0.819   7.513   2.482
 5104TIP3    H115257   0.790   7.426   2.454
 5104TIP3    H215258   0.900   7.527   2.434
 5105TIP3   OH215259   0.455   6.752   2.186
 5105TIP3    H115260   0.416   6.839   2.176
 5105TIP3    H215261   0.412   6.715   2.263
 5106TIP3   OH215262   0.530   7.061   2.371
 5106TIP3    H115263   0.573   6.982   2.406
 5106TIP3    H215264   0.603   7.115   2.340
 5107TIP3   OH215265   1.310   7.483   2.364
 5107TIP3    H115266   1.352   7.405   2.329
 5107TIP3    H215267   1.382   7.539   2.393
 5108TIP3   OH215268   2.304   6.819   2.368
 5108TIP3    H115269   2.332   6.893   2.422
 5108TIP3    H215270   2.322   6.847   2.278
 5109TIP3   OH215271   1.706   6.992   2.398
 5109TIP3    H115272   1.744   6.908   2.422
 5109TIP3    H215273   1.670   6.977   2.310
 5110TIP3   OH215274   1.042   6.653   2.362
 5110TIP3    H115275   1.022   6.727   2.304
 5110TIP3    H215276   0.996   6.579   2.323
 5111TIP3   OH215277   1.743   6.744   1.988
 5111TIP3    H115278   1.810   6.727   2.054
 5111TIP3    H215279   1.792   6.779   1.913
 5112TIP3   OH215280   0.676   6.851   2.472
 5112TIP3    H115281   0.754   6.837   2.525
 5112TIP3    H215282   0.690   6.799   2.394
 5113TIP3   OH215283   1.115   7.052   2.267
 5113TIP3    H115284   1.207   7.029   2.282
 5113TIP3    H215285   1.074   6.970   2.239
 5114TIP3   OH215286   2.373   7.024   2.538
 5114TIP3    H115287   2.290   7.066   2.520
 5114TIP3    H215288   2.391   7.043   2.630
 5115TIP3   OH215289   1.034   6.637   2.802
 5115TIP3    H115290   0.977   6.673   2.734
 5115TIP3    H215291   0.986   6.650   2.884
 5116TIP3   OH215292   1.368   7.464   1.824
 5116TIP3    H115293   1.349   7.445   1.732
 5116TIP3    H215294   1.398   7.555   1.823
 5117TIP3   OH215295   1.139   7.419   2.593
 5117TIP3    H115296   1.075   7.481   2.630
 5117TIP3    H215297   1.174   7.464   2.516
 5118TIP3   OH215298   1.947   6.751   2.169
 5118TIP3    H115299   1.918   6.707   2.248
 5118TIP3    H215300   1.989   6.832   2.200
 5119TIP3   OH215301   0.913   6.753   2.583
 5119TIP3    H115302   0.970   6.825   2.610
 5119TIP3    H215303   0.960   6.711   2.511
 5120TIP3   OH215304   0.968   7.626   2.699
 5120TIP3    H115305   0.925   7.621   2.613
 5120TIP3    H215306   0.896   7.624   2.761
 5121TIP3   OH215307   2.097   6.714   2.532
 5121TIP3    H115308   2.009   6.739   2.503
 5121TIP3    H215309   2.155   6.745   2.463
 5122TIP3   OH215310   1.386   6.352   2.518
 5122TIP3    H115311   1.375   6.259   2.535
 5122TIP3    H215312   1.313   6.394   2.564
 5123TIP3   OH215313   1.741   7.579   1.728
 5123TIP3    H115314   1.708   7.500   1.684
 5123TIP3    H215315   1.749   7.553   1.820
 5124TIP3   OH215316   2.023   7.722   2.514
 5124TIP3    H115317   2.010   7.644   2.461
 5124TIP3    H215318   2.045   7.791   2.451
 5125TIP3   OH215319   1.335   7.110   1.775
 5125TIP3    H115320   1.260   7.168   1.771
 5125TIP3    H215321   1.374   7.115   1.688
 5126TIP3   OH215322   1.307   6.893   1.507
 5126TIP3    H115323   1.369   6.952   1.549
 5126TIP3    H215324   1.362   6.835   1.455
 5127TIP3   OH215325   2.226   7.362   2.354
 5127TIP3    H115326   2.143   7.409   2.366
 5127TIP3    H215327   2.257   7.388   2.268
 5128TIP3   OH215328   1.674   7.194   1.751
 5128TIP3    H115329   1.616   7.215   1.824
 5128TIP3    H215330   1.757   7.170   1.792
 5129TIP3   OH215331   1.902   7.240   2.659
 5129TIP3    H115332   1.904   7.320   2.711
 5129TIP3    H215333   1.817   7.242   2.616
 5130TIP3   OH215334   0.909   7.193   2.151
 5130TIP3    H115335   0.866   7.132   2.091
 5130TIP3    H215336   0.984   7.145   2.185
 5131TIP3   OH215337   1.045   7.563   2.350
 5131TIP3    H115338   1.015   7.546   2.260
 5131TIP3    H215339   1.140   7.568   2.344
 5132TIP3   OH215340   1.037   7.174   2.510
 5132TIP3    H115341   1.072   7.149   2.424
 5132TIP3    H215342   1.078   7.258   2.530
 5133TIP3   OH215343   1.219   7.629   2.834
 5133TIP3    H115344   1.188   7.717   2.858
 5133TIP3    H215345   1.147   7.591   2.784
 5134TIP3   OH215346   1.520   7.054   1.569
 5134TIP3    H115347   1.570   7.117   1.619
 5134TIP3    H215348   1.542   7.072   1.477
 5135TIP3   OH215349   0.929   7.281   2.938
 5135TIP3    H115350   0.940   7.367   2.979
 5135TIP3    H215351   0.839   7.257   2.959
 5136TIP3   OH215352   2.028   6.301   1.621
 5136TIP3    H115353   1.946   6.316   1.669
 5136TIP3    H215354   2.041   6.381   1.570
 5137TIP3   OH215355   0.759   7.033   1.960
 5137TIP3    H115356   0.699   7.087   1.909
 5137TIP3    H215357   0.719   6.947   1.963
 5138TIP3   OH215358   0.565   7.425   2.881
 5138TIP3    H115359   0.497   7.406   2.817
 5138TIP3    H215360   0.599   7.338   2.905
 5139TIP3   OH215361   2.158   7.199   2.834
 5139TIP3    H115362   2.073   7.211   2.793
 5139TIP3    H215363   2.175   7.104   2.827
 5140TIP3   OH215364   0.757   7.622   2.871
 5140TIP3    H115365   0.809   7.591   2.945
 5140TIP3    H215366   0.683   7.562   2.866
 5141TIP3   OH215367   1.150   6.433   2.647
 5141TIP3    H115368   1.065   6.400   2.617
 5141TIP3    H215369   1.128   6.511   2.698
 5142TIP3   OH215370   1.688   6.544   2.843
 5142TIP3    H115371   1.756   6.517   2.904
 5142TIP3    H215372   1.606   6.526   2.889
 5143TIP3   OH215373   1.923   6.978   2.761
 5143TIP3    H115374   1.874   6.972   2.843
 5143TIP3    H215375   1.899   7.063   2.725
 5144TIP3   OH215376   1.590   7.086   1.312
 5144TIP3    H115377   1.557   7.064   1.225
 5144TIP3    H215378   1.633   7.171   1.301
 5145TIP3   OH215379   1.288   6.484   1.612
 5145TIP3    H115380   1.266   6.483   1.705
 5145TIP3    H215381   1.257   6.399   1.579
 5146TIP3   OH215382   1.084   6.953   2.663
 5146TIP3    H115383   1.036   6.968   2.745
 5146TIP3    H215384   1.068   7.031   2.611
 5147TIP3   OH215385   0.964   6.834   2.178
 5147TIP3    H115386   0.874   6.810   2.198
 5147TIP3    H215387   0.980   6.798   2.091
 5148TIP3   OH215388   1.465   6.912   1.908
 5148TIP3    H115389   1.414   6.981   1.865
 5148TIP3    H215390   1.520   6.876   1.838
 5149TIP3   OH215391   1.638   7.189   2.989
 5149TIP3    H115392   1.612   7.120   3.050
 5149TIP3    H215393   1.729   7.209   3.012
 5150TIP3   OH215394   1.617   6.943   2.141
 5150TIP3    H115395   1.552   6.974   2.077
 5150TIP3    H215396   1.653   6.863   2.101
 5151TIP3   OH215397   0.905   6.973   2.873
 5151TIP3    H115398   0.926   7.039   2.938
 5151TIP3    H215399   0.893   6.892   2.923
 5152TIP3   OH215400   0.937   6.437   1.577
 5152TIP3    H115401   0.952   6.439   1.672
 5152TIP3    H215402   0.857   6.488   1.564
 5153TIP3   OH215403   0.490   6.517   2.461
 5153TIP3    H115404   0.573   6.532   2.507
 5153TIP3    H215405   0.516   6.482   2.376
 5154TIP3   OH215406   0.457   6.534   1.953
 5154TIP3    H115407   0.543   6.550   1.914
 5154TIP3    H215408   0.451   6.596   2.026
 5155TIP3   OH215409   1.627   7.188   2.564
 5155TIP3    H115410   1.661   7.121   2.505
 5155TIP3    H215411   1.596   7.139   2.640
 5156TIP3   OH215412   1.300   6.655   2.241
 5156TIP3    H115413   1.219   6.653   2.291
 5156TIP3    H215414   1.369   6.648   2.307
 5157TIP3   OH215415   0.726   6.710   2.241
 5157TIP3    H115416   0.636   6.712   2.209
 5157TIP3    H215417   0.754   6.619   2.229
 5158TIP3   OH215418   1.006   6.711   1.939
 5158TIP3    H115419   1.101   6.721   1.928
 5158TIP3    H215420   0.972   6.714   1.849
 5159TIP3   OH215421   1.784   6.729   2.437
 5159TIP3    H115422   1.762   6.744   2.529
 5159TIP3    H215423   1.716   6.670   2.405
 5160TIP3   OH215424   0.869   6.694   1.705
 5160TIP3    H115425   0.778   6.714   1.727
 5160TIP3    H215426   0.890   6.752   1.632
 5161TIP3   OH215427   0.922   7.528   3.080
 5161TIP3    H115428   0.999   7.557   3.129
 5161TIP3    H215429   0.855   7.514   3.146
 5162TIP3   OH215430   1.377   6.985   2.340
 5162TIP3    H115431   1.449   6.942   2.294
 5162TIP3    H215432   1.376   6.944   2.427
 5163TIP3   OH215433   0.895   6.468   2.219
 5163TIP3    H115434   0.859   6.396   2.270
 5163TIP3    H215435   0.942   6.425   2.148
 5164TIP3   OH215436   1.354   6.890   2.619
 5164TIP3    H115437   1.265   6.920   2.638
 5164TIP3    H215438   1.410   6.946   2.673
 5165TIP3   OH215439   1.120   7.270   1.754
 5165TIP3    H115440   1.057   7.197   1.755
 5165TIP3    H215441   1.096   7.323   1.830
 5166TIP3   OH215442   1.991   7.500   2.350
 5166TIP3    H115443   2.018   7.550   2.273
 5166TIP3    H215444   1.907   7.461   2.325
 5167TIP3   OH215445   1.544   6.584   1.584
 5167TIP3    H115446   1.450   6.567   1.594
 5167TIP3    H215447   1.554   6.675   1.613
 5168TIP3   OH215448   1.501   7.613   2.719
 5168TIP3    H115449   1.537   7.562   2.792
 5168TIP3    H215450   1.418   7.647   2.753
 5169TIP3   OH215451   1.621   6.829   1.690
 5169TIP3    H115452   1.715   6.837   1.706
 5169TIP3    H215453   1.598   6.909   1.643
 5170TIP3   OH215454   0.766   7.246   2.386
 5170TIP3    H115455   0.819   7.240   2.306
 5170TIP3    H215456   0.820   7.207   2.454
 5171TIP3   OH215457   1.295   7.383   1.567
 5171TIP3    H115458   1.242   7.444   1.515
 5171TIP3    H215459   1.231   7.335   1.620
 5172TIP3   OH215460   0.671   7.202   3.012
 5172TIP3    H115461   0.684   7.191   3.106
 5172TIP3    H215462   0.599   7.142   2.991
 5173TIP3   OH215463   1.397   7.316   3.034
 5173TIP3    H115464   1.331   7.264   2.988
 5173TIP3    H215465   1.481   7.283   3.001
 5174TIP3   OH215466   2.059   6.925   1.519
 5174TIP3    H115467   2.002   6.875   1.461
 5174TIP3    H215468   2.058   7.014   1.483
 5175TIP3   OH215469   2.277   7.760   2.603
 5175TIP3    H115470   2.182   7.772   2.598
 5175TIP3    H215471   2.305   7.748   2.513
 5176TIP3   OH215472   1.754   7.373   2.252
 5176TIP3    H115473   1.664   7.350   2.276
 5176TIP3    H215474   1.790   7.292   2.216
 5177TIP3   OH215475   1.023   7.386   1.985
 5177TIP3    H115476   0.982   7.465   2.021
 5177TIP3    H215477   0.994   7.316   2.044
 5178TIP3   OH215478   1.548   7.574   2.450
 5178TIP3    H115479   1.532   7.588   2.543
 5178TIP3    H215480   1.632   7.528   2.446
 5179TIP3   OH215481   1.522   7.400   1.337
 5179TIP3    H115482   1.573   7.399   1.418
 5179TIP3    H215483   1.431   7.397   1.365
 5180TIP3   OH215484   0.874   6.716   3.017
 5180TIP3    H115485   0.779   6.720   3.030
 5180TIP3    H215486   0.906   6.662   3.089
 5181TIP3   OH215487   1.687   7.373   1.550
 5181TIP3    H115488   1.677   7.305   1.617
 5181TIP3    H215489   1.781   7.376   1.532
 5182TIP3   OH215490   1.723   6.776   2.697
 5182TIP3    H115491   1.795   6.820   2.741
 5182TIP3    H215492   1.705   6.699   2.751
 5183TIP3   OH215493   1.598   6.533   1.868
 5183TIP3    H115494   1.584   6.554   1.776
 5183TIP3    H215495   1.636   6.612   1.906
 5184TIP3   OH215496   1.284   6.716   1.973
 5184TIP3    H115497   1.346   6.786   1.954
 5184TIP3    H215498   1.287   6.705   2.068
 5185TIP3   OH215499   1.555   7.031   2.774
 5185TIP3    H115500   1.575   7.086   2.850
 5185TIP3    H215501   1.604   6.950   2.789
 5186TIP3   OH215502   1.426   6.437   2.069
 5186TIP3    H115503   1.417   6.512   2.129
 5186TIP3    H215504   1.487   6.468   2.002
 5187TIP3   OH215505   0.950   6.438   1.860
 5187TIP3    H115506   0.940   6.528   1.890
 5187TIP3    H215507   1.044   6.421   1.866
 5188TIP3   OH215508   2.187   6.931   2.753
 5188TIP3    H115509   2.093   6.935   2.767
 5188TIP3    H215510   2.198   6.877   2.675
 5189TIP3   OH215511   1.842   7.124   2.145
 5189TIP3    H115512   1.764   7.070   2.157
 5189TIP3    H215513   1.911   7.079   2.194
 5190TIP3   OH215514   0.890   6.348   2.617
 5190TIP3    H115515   0.859   6.315   2.533
 5190TIP3    H215516   0.881   6.275   2.678
 5191TIP3   OH215517   0.716   7.492   3.253
 5191TIP3    H115518   0.738   7.400   3.267
 5191TIP3    H215519   0.626   7.490   3.220
 5192TIP3   OH215520   1.341   7.580   3.075
 5192TIP3    H115521   1.306   7.597   2.987
 5192TIP3    H215522   1.374   7.490   3.069
 5193TIP3   OH215523   1.810   7.604   2.649
 5193TIP3    H115524   1.877   7.661   2.610
 5193TIP3    H215525   1.731   7.659   2.653
 5194TIP3   OH215526   0.846   7.248   3.258
 5194TIP3    H115527   0.919   7.188   3.239
 5194TIP3    H215528   0.867   7.283   3.345
 5195TIP3   OH215529   0.943   7.067   1.742
 5195TIP3    H115530   0.892   7.034   1.816
 5195TIP3    H215531   0.941   6.995   1.678
 5196TIP3   OH215532   1.170   7.140   2.914
 5196TIP3    H115533   1.091   7.194   2.918
 5196TIP3    H215534   1.219   7.173   2.839
 5197TIP3   OH215535   1.029   6.856   1.511
 5197TIP3    H115536   1.045   6.811   1.428
 5197TIP3    H215537   1.116   6.887   1.537
 5198TIP3   OH215538   1.690   7.524   3.048
 5198TIP3    H115539   1.773   7.504   3.006
 5198TIP3    H215540   1.686   7.464   3.123
 5199TIP3   OH215541   1.839   7.209   1.181
 5199TIP3    H115542   1.807   7.164   1.103
 5199TIP3    H215543   1.800   7.296   1.175
 5200TIP3   OH215544   1.293   6.928   3.037
 5200TIP3    H115545   1.292   6.849   2.983
 5200TIP3    H215546   1.249   6.994   2.984
 5201TIP3   OH215547   1.294   6.714   2.847
 5201TIP3    H115548   1.322   6.753   2.764
 5201TIP3    H215549   1.203   6.690   2.832
 5202TIP3   OH215550   1.316   7.251   2.720
 5202TIP3    H115551   1.400   7.261   2.674
 5202TIP3    H215552   1.258   7.315   2.678
 5203TIP3   OH215553   1.901   7.213   3.101
 5203TIP3    H115554   1.949   7.131   3.116
 5203TIP3    H215555   1.968   7.274   3.071
 5204TIP3   OH215556   1.944   7.465   2.835
 5204TIP3    H115557   1.886   7.517   2.780
 5204TIP3    H215558   2.032   7.484   2.801
 5205TIP3   OH215559   1.171   7.030   3.273
 5205TIP3    H115560   1.104   6.965   3.291
 5205TIP3    H215561   1.204   7.007   3.186
 5206TIP3   OH215562   1.424   6.474   2.917
 5206TIP3    H115563   1.377   6.555   2.896
 5206TIP3    H215564   1.358   6.405   2.909
 5207TIP3   OH215565   1.550   6.976   3.135
 5207TIP3    H115566   1.540   6.963   3.229
 5207TIP3    H215567   1.464   6.955   3.098
 5208TIP3   OH215568   1.789   6.924   2.989
 5208TIP3    H115569   1.716   6.928   3.050
 5208TIP3    H215570   1.863   6.896   3.043
 5209TIP3   OH215571   2.022   6.870   3.138
 5209TIP3    H115572   2.034   6.776   3.152
 5209TIP3    H215573   2.016   6.907   3.226
 5210TIP3   OH215574   1.011   6.811   3.330
 5210TIP3    H115575   1.011   6.721   3.297
 5210TIP3    H215576   1.047   6.804   3.418
 5211TIP3   OH215577   1.521   6.484   3.174
 5211TIP3    H115578   1.587   6.415   3.172
 5211TIP3    H215579   1.480   6.480   3.088
 5212TIP3   OH215580   1.586   6.701   3.333
 5212TIP3    H115581   1.567   6.630   3.272
 5212TIP3    H215582   1.509   6.758   3.328
 5213TIP3   OH215583   2.172   7.890   2.884
 5213TIP3    H115584   2.096   7.872   2.941
 5213TIP3    H215585   2.214   7.966   2.924
 5214TIP3   OH215586   1.959   7.375   1.532
 5214TIP3    H115587   2.025   7.436   1.499
 5214TIP3    H215588   1.999   7.336   1.610
 5215TIP3   OH215589   2.086   7.244   1.731
 5215TIP3    H115590   2.023   7.205   1.791
 5215TIP3    H215591   2.154   7.280   1.788
 5216TIP3   OH215592   2.125   7.637   2.158
 5216TIP3    H115593   2.189   7.582   2.113
 5216TIP3    H215594   2.130   7.722   2.113
 5217TIP3   OH215595   2.023   7.159   1.377
 5217TIP3    H115596   1.959   7.159   1.306
 5217TIP3    H215597   1.995   7.230   1.434
 5218TIP3   OH215598   1.895   6.828   1.329
 5218TIP3    H115599   1.848   6.869   1.256
 5218TIP3    H215600   1.873   6.735   1.322
 5219TIP3   OH215601   1.900   7.106   1.879
 5219TIP3    H115602   1.902   7.011   1.866
 5219TIP3    H215603   1.884   7.117   1.972
 5220TIP3   OH215604   0.526   7.188   2.621
 5220TIP3    H115605   0.519   7.152   2.532
 5220TIP3    H215606   0.619   7.187   2.640
 5221TIP3   OH215607   2.189   7.529   2.734
 5221TIP3    H115608   2.259   7.465   2.723
 5221TIP3    H215609   2.213   7.601   2.676
 5222TIP3   OH215610   2.375   7.330   2.741
 5222TIP3    H115611   2.299   7.287   2.780
 5222TIP3    H215612   2.447   7.270   2.757
 5223TIP3   OH215613   1.836   6.564   1.318
 5223TIP3    H115614   1.905   6.530   1.376
 5223TIP3    H215615   1.762   6.505   1.334
 5224TIP3   OH215616   1.899   6.829   1.766
 5224TIP3    H115617   1.930   6.740   1.784
 5224TIP3    H215618   1.953   6.858   1.692
 5225TIP3   OH215619   2.056   6.994   2.266
 5225TIP3    H115620   2.138   7.018   2.223
 5225TIP3    H215621   2.064   7.029   2.354
 5226TIP3   OH215622   2.123   7.142   2.492
 5226TIP3    H115623   2.049   7.172   2.545
 5226TIP3    H215624   2.157   7.222   2.451
 5227TIP3   OH215625   0.745   6.861   3.290
 5227TIP3    H115626   0.841   6.860   3.298
 5227TIP3    H215627   0.717   6.780   3.331
 5228TIP3   OH215628   2.577   6.735   3.048
 5228TIP3    H115629   2.636   6.669   3.012
 5228TIP3    H215630   2.548   6.786   2.972
 5229TIP3   OH215631   1.980   6.578   1.824
 5229TIP3    H115632   2.029   6.557   1.904
 5229TIP3    H215633   1.928   6.499   1.808
 5230TIP3   OH215634   0.710   6.558   2.625
 5230TIP3    H115635   0.768   6.483   2.637
 5230TIP3    H215636   0.769   6.633   2.620
 5231TIP3   OH215637   0.506   6.831   2.699
 5231TIP3    H115638   0.554   6.829   2.617
 5231TIP3    H215639   0.533   6.913   2.740
 5232TIP3   OH215640   2.444   6.870   2.851
 5232TIP3    H115641   2.363   6.914   2.877
 5232TIP3    H215642   2.416   6.796   2.798
 5233TIP3   OH215643   2.094   6.504   1.445
 5233TIP3    H115644   2.124   6.444   1.377
 5233TIP3    H215645   2.152   6.580   1.439
 5234TIP3   OH215646   0.476   6.389   2.215
 5234TIP3    H115647   0.394   6.350   2.245
 5234TIP3    H215648   0.477   6.375   2.120
 5235TIP3   OH215649   0.708   6.416   3.014
 5235TIP3    H115650   0.660   6.408   3.097
 5235TIP3    H215651   0.644   6.454   2.953
 5236TIP3   OH215652   2.347   6.628   2.735
 5236TIP3    H115653   2.256   6.617   2.706
 5236TIP3    H215654   2.385   6.540   2.728
 5237TIP3   OH215655   1.551   6.546   2.357
 5237TIP3    H115656   1.508   6.479   2.410
 5237TIP3    H215657   1.624   6.501   2.314
 5238TIP3   OH215658   2.063   6.428   2.266
 5238TIP3    H115659   2.096   6.483   2.195
 5238TIP3    H215660   1.968   6.441   2.265
 5239TIP3   OH215661   2.159   6.519   2.025
 5239TIP3    H115662   2.211   6.441   2.004
 5239TIP3    H215663   2.218   6.593   2.007
 5240TIP3   OH215664   0.802   6.254   2.368
 5240TIP3    H115665   0.710   6.227   2.368
 5240TIP3    H215666   0.851   6.172   2.357
 5241TIP3   OH215667   0.635   6.129   2.074
 5241TIP3    H115668   0.665   6.181   2.000
 5241TIP3    H215669   0.542   6.150   2.083
 5242TIP3   OH215670   1.247   6.291   2.254
 5242TIP3    H115671   1.304   6.336   2.192
 5242TIP3    H215672   1.271   6.327   2.339
 5243TIP3   OH215673   1.786   6.434   2.234
 5243TIP3    H115674   1.788   6.393   2.147
 5243TIP3    H215675   1.775   6.360   2.295
 5244TIP3   OH215676   1.816   6.358   1.798
 5244TIP3    H115677   1.733   6.403   1.815
 5244TIP3    H215678   1.807   6.273   1.841
 5245TIP3   OH215679   0.716   6.282   1.812
 5245TIP3    H115680   0.755   6.213   1.760
 5245TIP3    H215681   0.790   6.337   1.840
 5246TIP3   OH215682   1.225   6.468   1.879
 5246TIP3    H115683   1.277   6.415   1.939
 5246TIP3    H215684   1.244   6.558   1.905
 5247TIP3   OH215685   1.009   6.538   3.265
 5247TIP3    H115686   0.969   6.470   3.318
 5247TIP3    H215687   1.101   6.539   3.291
 5248TIP3   OH215688   1.259   6.534   3.383
 5248TIP3    H115689   1.343   6.508   3.344
 5248TIP3    H215690   1.242   6.467   3.450
 5249TIP3   OH215691   2.086   6.599   3.170
 5249TIP3    H115692   2.100   6.569   3.259
 5249TIP3    H215693   2.173   6.594   3.129
 5250TIP3   OH215694   3.285   7.510   1.432
 5250TIP3    H115695   3.249   7.596   1.412
 5250TIP3    H215696   3.221   7.448   1.397
 5251TIP3   OH215697   3.288   7.521   1.811
 5251TIP3    H115698   3.323   7.499   1.897
 5251TIP3    H215699   3.249   7.440   1.779
 5252TIP3   OH215700   2.585   7.414   2.176
 5252TIP3    H115701   2.613   7.346   2.238
 5252TIP3    H215702   2.656   7.477   2.176
 5253TIP3   OH215703   3.506   7.824   1.502
 5253TIP3    H115704   3.502   7.751   1.564
 5253TIP3    H215705   3.562   7.889   1.543
 5254TIP3   OH215706   2.628   7.763   1.978
 5254TIP3    H115707   2.583   7.686   1.943
 5254TIP3    H215708   2.696   7.784   1.913
 5255TIP3   OH215709   2.256   7.013   1.689
 5255TIP3    H115710   2.220   7.100   1.709
 5255TIP3    H215711   2.190   6.973   1.632
 5256TIP3   OH215712   2.323   7.316   1.856
 5256TIP3    H115713   2.372   7.240   1.890
 5256TIP3    H215714   2.391   7.375   1.824
 5257TIP3   OH215715   3.103   7.736   1.857
 5257TIP3    H115716   3.147   7.659   1.821
 5257TIP3    H215717   3.174   7.795   1.882
 5258TIP3   OH215718   4.102   7.070   1.853
 5258TIP3    H115719   4.131   7.150   1.896
 5258TIP3    H215720   4.126   7.081   1.761
 5259TIP3   OH215721   3.499   7.247   1.885
 5259TIP3    H115722   3.541   7.165   1.908
 5259TIP3    H215723   3.466   7.233   1.796
 5260TIP3   OH215724   2.827   6.904   1.853
 5260TIP3    H115725   2.815   6.974   1.788
 5260TIP3    H215726   2.785   6.828   1.813
 5261TIP3   OH215727   3.535   7.003   1.472
 5261TIP3    H115728   3.601   6.988   1.540
 5261TIP3    H215729   3.585   7.036   1.397
 5262TIP3   OH215730   2.474   7.108   1.958
 5262TIP3    H115731   2.553   7.097   2.010
 5262TIP3    H215732   2.489   7.057   1.879
 5263TIP3   OH215733   2.910   7.308   1.756
 5263TIP3    H115734   3.003   7.289   1.769
 5263TIP3    H215735   2.872   7.225   1.726
 5264TIP3   OH215736   4.174   7.280   2.025
 5264TIP3    H115737   4.091   7.321   2.005
 5264TIP3    H215738   4.193   7.306   2.115
 5265TIP3   OH215739   2.828   6.893   2.286
 5265TIP3    H115740   2.772   6.937   2.222
 5265TIP3    H215741   2.783   6.904   2.369
 5266TIP3   OH215742   3.159   7.716   1.300
 5266TIP3    H115743   3.130   7.710   1.209
 5266TIP3    H215744   3.200   7.802   1.308
 5267TIP3   OH215745   2.936   7.675   2.079
 5267TIP3    H115746   2.873   7.740   2.110
 5267TIP3    H215747   2.977   7.716   2.003
 5268TIP3   OH215748   3.736   7.009   1.652
 5268TIP3    H115749   3.736   6.952   1.729
 5268TIP3    H215750   3.790   7.084   1.678
 5269TIP3   OH215751   2.706   7.012   2.071
 5269TIP3    H115752   2.764   7.083   2.098
 5269TIP3    H215753   2.753   6.969   1.999
 5270TIP3   OH215754   2.762   7.886   2.186
 5270TIP3    H115755   2.720   7.872   2.101
 5270TIP3    H215756   2.690   7.884   2.249
 5271TIP3   OH215757   2.159   7.530   1.418
 5271TIP3    H115758   2.128   7.528   1.327
 5271TIP3    H215759   2.188   7.620   1.431
 5272TIP3   OH215760   3.891   6.975   2.019
 5272TIP3    H115761   3.804   6.996   1.984
 5272TIP3    H215762   3.951   7.004   1.951
 5273TIP3   OH215763   3.175   6.602   2.001
 5273TIP3    H115764   3.171   6.512   2.032
 5273TIP3    H215765   3.101   6.646   2.043
 5274TIP3   OH215766   3.540   7.839   1.218
 5274TIP3    H115767   3.516   7.761   1.168
 5274TIP3    H215768   3.547   7.810   1.308
 5275TIP3   OH215769   3.818   7.978   2.001
 5275TIP3    H115770   3.806   7.901   1.946
 5275TIP3    H215771   3.849   8.046   1.941
 5276TIP3   OH215772   3.121   7.371   1.263
 5276TIP3    H115773   3.042   7.421   1.245
 5276TIP3    H215774   3.165   7.364   1.179
 5277TIP3   OH215775   3.080   7.158   0.976
 5277TIP3    H115776   3.144   7.214   1.020
 5277TIP3    H215777   3.133   7.095   0.927
 5278TIP3   OH215778   4.022   7.621   1.845
 5278TIP3    H115779   3.939   7.668   1.854
 5278TIP3    H215780   4.054   7.643   1.758
 5279TIP3   OH215781   3.468   7.448   1.238
 5279TIP3    H115782   3.413   7.469   1.313
 5279TIP3    H215783   3.552   7.423   1.277
 5280TIP3   OH215784   3.698   7.494   2.147
 5280TIP3    H115785   3.700   7.576   2.195
 5280TIP3    H215786   3.614   7.496   2.101
 5281TIP3   OH215787   2.708   7.459   1.638
 5281TIP3    H115788   2.661   7.399   1.579
 5281TIP3    H215789   2.779   7.406   1.673
 5282TIP3   OH215790   2.834   7.822   1.816
 5282TIP3    H115791   2.857   7.775   1.736
 5282TIP3    H215792   2.916   7.863   1.844
 5283TIP3   OH215793   2.830   7.431   1.996
 5283TIP3    H115794   2.867   7.404   1.912
 5283TIP3    H215795   2.873   7.514   2.016
 5284TIP3   OH215796   3.011   7.886   2.325
 5284TIP3    H115797   2.981   7.975   2.346
 5284TIP3    H215798   2.941   7.848   2.273
 5285TIP3   OH215799   3.300   7.318   1.058
 5285TIP3    H115800   3.360   7.372   1.108
 5285TIP3    H215801   3.328   7.329   0.967
 5286TIP3   OH215802   2.725   7.537   2.427
 5286TIP3    H115803   2.734   7.624   2.467
 5286TIP3    H215804   2.634   7.513   2.443
 5287TIP3   OH215805   3.822   6.557   1.107
 5287TIP3    H115806   3.741   6.576   1.155
 5287TIP3    H215807   3.837   6.635   1.054
 5288TIP3   OH215808   2.563   7.296   1.456
 5288TIP3    H115809   2.503   7.341   1.397
 5288TIP3    H215810   2.529   7.207   1.463
 5289TIP3   OH215811   2.364   7.680   2.360
 5289TIP3    H115812   2.292   7.661   2.300
 5289TIP3    H215813   2.396   7.593   2.386
 5290TIP3   OH215814   3.950   7.453   2.324
 5290TIP3    H115815   3.871   7.467   2.272
 5290TIP3    H215816   3.970   7.360   2.314
 5291TIP3   OH215817   2.551   7.883   2.363
 5291TIP3    H115818   2.605   7.846   2.432
 5291TIP3    H215819   2.480   7.819   2.351
 5292TIP3   OH215820   2.931   6.700   2.106
 5292TIP3    H115821   2.839   6.681   2.087
 5292TIP3    H215822   2.928   6.768   2.173
 5293TIP3   OH215823   3.487   6.811   2.337
 5293TIP3    H115824   3.554   6.769   2.391
 5293TIP3    H215825   3.404   6.782   2.375
 5294TIP3   OH215826   3.715   7.234   2.256
 5294TIP3    H115827   3.662   7.240   2.336
 5294TIP3    H215828   3.699   7.317   2.211
 5295TIP3   OH215829   3.389   7.348   0.810
 5295TIP3    H115830   3.343   7.332   0.728
 5295TIP3    H215831   3.458   7.411   0.787
 5296TIP3   OH215832   3.090   6.733   1.106
 5296TIP3    H115833   3.058   6.732   1.196
 5296TIP3    H215834   3.055   6.653   1.067
 5297TIP3   OH215835   2.878   7.210   2.150
 5297TIP3    H115836   2.832   7.226   2.232
 5297TIP3    H215837   2.862   7.289   2.098
 5298TIP3   OH215838   2.763   7.088   1.664
 5298TIP3    H115839   2.670   7.070   1.681
 5298TIP3    H215840   2.778   7.054   1.576
 5299TIP3   OH215841   3.257   7.171   1.393
 5299TIP3    H115842   3.206   7.239   1.350
 5299TIP3    H215843   3.314   7.136   1.324
 5300TIP3   OH215844   3.440   7.427   2.481
 5300TIP3    H115845   3.466   7.339   2.511
 5300TIP3    H215846   3.518   7.480   2.492
 5301TIP3   OH215847   3.411   7.199   1.627
 5301TIP3    H115848   3.348   7.229   1.561
 5301TIP3    H215849   3.451   7.121   1.588
 5302TIP3   OH215850   2.701   7.229   2.362
 5302TIP3    H115851   2.725   7.295   2.427
 5302TIP3    H215852   2.691   7.148   2.411
 5303TIP3   OH215853   2.748   6.712   1.070
 5303TIP3    H115854   2.739   6.709   1.165
 5303TIP3    H215855   2.673   6.763   1.040
 5304TIP3   OH215856   2.373   6.695   1.900
 5304TIP3    H115857   2.407   6.742   1.976
 5304TIP3    H215858   2.318   6.759   1.855
 5305TIP3   OH215859   2.266   6.726   1.467
 5305TIP3    H115860   2.308   6.764   1.389
 5305TIP3    H215861   2.205   6.793   1.496
 5306TIP3   OH215862   3.423   7.446   2.049
 5306TIP3    H115863   3.456   7.379   1.989
 5306TIP3    H215864   3.389   7.396   2.123
 5307TIP3   OH215865   3.095   6.918   1.730
 5307TIP3    H115866   3.021   6.912   1.790
 5307TIP3    H215867   3.172   6.897   1.784
 5308TIP3   OH215868   2.519   6.964   1.724
 5308TIP3    H115869   2.427   6.982   1.704
 5308TIP3    H215870   2.533   6.874   1.694
 5309TIP3   OH215871   2.789   6.960   1.424
 5309TIP3    H115872   2.883   6.974   1.408
 5309TIP3    H215873   2.747   6.985   1.342
 5310TIP3   OH215874   3.582   6.990   1.940
 5310TIP3    H115875   3.541   7.000   2.026
 5310TIP3    H215876   3.529   6.925   1.895
 5311TIP3   OH215877   2.642   6.999   1.196
 5311TIP3    H115878   2.574   6.952   1.148
 5311TIP3    H215879   2.696   7.039   1.128
 5312TIP3   OH215880   2.715   7.783   2.567
 5312TIP3    H115881   2.794   7.812   2.614
 5312TIP3    H215882   2.649   7.772   2.635
 5313TIP3   OH215883   3.173   7.244   1.825
 5313TIP3    H115884   3.243   7.201   1.775
 5313TIP3    H215885   3.172   7.199   1.910
 5314TIP3   OH215886   2.708   6.691   1.701
 5314TIP3    H115887   2.771   6.620   1.709
 5314TIP3    H215888   2.725   6.729   1.615
 5315TIP3   OH215889   3.148   7.145   2.101
 5315TIP3    H115890   3.059   7.175   2.122
 5315TIP3    H215891   3.204   7.199   2.155
 5316TIP3   OH215892   2.888   7.509   1.212
 5316TIP3    H115893   2.812   7.452   1.197
 5316TIP3    H215894   2.869   7.553   1.295
 5317TIP3   OH215895   3.786   7.758   1.836
 5317TIP3    H115896   3.815   7.807   1.759
 5317TIP3    H215897   3.704   7.717   1.809
 5318TIP3   OH215898   3.345   6.835   1.082
 5318TIP3    H115899   3.251   6.817   1.084
 5318TIP3    H215900   3.352   6.929   1.098
 5319TIP3   OH215901   3.296   7.869   2.205
 5319TIP3    H115902   3.329   7.819   2.280
 5319TIP3    H215903   3.214   7.907   2.237
 5320TIP3   OH215904   3.415   7.090   1.178
 5320TIP3    H115905   3.510   7.093   1.189
 5320TIP3    H215906   3.396   7.166   1.122
 5321TIP3   OH215907   2.561   7.496   1.873
 5321TIP3    H115908   2.612   7.495   1.792
 5321TIP3    H215909   2.621   7.464   1.940
 5322TIP3   OH215910   2.999   7.702   1.056
 5322TIP3    H115911   2.957   7.772   1.107
 5322TIP3    H215912   2.967   7.621   1.095
 5323TIP3   OH215913   2.466   7.458   2.499
 5323TIP3    H115914   2.480   7.447   2.593
 5323TIP3    H215915   2.395   7.397   2.478
 5324TIP3   OH215916   3.191   7.566   2.523
 5324TIP3    H115917   3.120   7.523   2.476
 5324TIP3    H215918   3.271   7.530   2.485
 5325TIP3   OH215919   3.852   7.182   1.008
 5325TIP3    H115920   3.790   7.136   0.951
 5325TIP3    H215921   3.854   7.271   0.973
 5326TIP3   OH215922   6.907   0.001   2.092
 5326TIP3    H115923   6.812   0.016   2.086
 5326TIP3    H215924   6.935  -0.012   2.001
 5327TIP3   OH215925   3.550   7.629   1.740
 5327TIP3    H115926   3.460   7.606   1.762
 5327TIP3    H215927   3.587   7.548   1.704
 5328TIP3   OH215928   2.247   7.158   1.216
 5328TIP3    H115929   2.295   7.238   1.234
 5328TIP3    H215930   2.172   7.160   1.275
 5329TIP3   OH215931   2.820   7.625   1.448
 5329TIP3    H115932   2.788   7.712   1.474
 5329TIP3    H215933   2.792   7.568   1.519
 5330TIP3   OH215934   3.342   7.830   1.936
 5330TIP3    H115935   3.330   7.842   2.030
 5330TIP3    H215936   3.426   7.785   1.927
 5331TIP3   OH215937   3.350   7.667   0.792
 5331TIP3    H115938   3.382   7.650   0.880
 5331TIP3    H215939   3.269   7.717   0.804
 5332TIP3   OH215940   2.671   6.975   2.504
 5332TIP3    H115941   2.576   6.977   2.516
 5332TIP3    H215942   2.704   6.919   2.574
 5333TIP3   OH215943   3.475   7.636   1.042
 5333TIP3    H115944   3.467   7.564   1.105
 5333TIP3    H215945   3.567   7.636   1.017
 5334TIP3   OH215946   2.657   7.650   0.873
 5334TIP3    H115947   2.695   7.569   0.837
 5334TIP3    H215948   2.712   7.670   0.949
 5335TIP3   OH215949   2.366   7.398   1.292
 5335TIP3    H115950   2.300   7.434   1.352
 5335TIP3    H215951   2.378   7.467   1.226
 5336TIP3   OH215952   3.504   7.049   2.205
 5336TIP3    H115953   3.595   7.075   2.219
 5336TIP3    H215954   3.496   6.965   2.249
 5337TIP3   OH215955   3.389   6.790   1.356
 5337TIP3    H115956   3.377   6.807   1.263
 5337TIP3    H215957   3.430   6.870   1.390
 5338TIP3   OH215958   3.071   6.976   1.460
 5338TIP3    H115959   3.136   7.042   1.437
 5338TIP3    H215960   3.081   6.963   1.554
 5339TIP3   OH215961   3.347   7.283   2.251
 5339TIP3    H115962   3.371   7.325   2.334
 5339TIP3    H215963   3.398   7.202   2.250
 5340TIP3   OH215964   3.222   6.692   1.552
 5340TIP3    H115965   3.229   6.757   1.621
 5340TIP3    H215966   3.280   6.723   1.483
 5341TIP3   OH215967   2.735   6.699   1.350
 5341TIP3    H115968   2.734   6.791   1.375
 5341TIP3    H215969   2.827   6.673   1.352
 5342TIP3   OH215970   3.983   7.188   2.242
 5342TIP3    H115971   3.888   7.187   2.253
 5342TIP3    H215972   3.998   7.139   2.161
 5343TIP3   OH215973   3.638   7.382   1.634
 5343TIP3    H115974   3.563   7.324   1.643
 5343TIP3    H215975   3.709   7.337   1.680
 5344TIP3   OH215976   2.364   7.619   1.105
 5344TIP3    H115977   2.389   7.709   1.085
 5344TIP3    H215978   2.415   7.566   1.045
 5345TIP3   OH215979   2.290   6.886   1.245
 5345TIP3    H115980   2.293   6.981   1.239
 5345TIP3    H215981   2.220   6.859   1.185
 5346TIP3   OH215982   2.671   6.577   2.090
 5346TIP3    H115983   2.726   6.516   2.041
 5346TIP3    H215984   2.662   6.537   2.177
 5347TIP3   OH215985   2.510   7.753   2.743
 5347TIP3    H115986   2.532   7.660   2.753
 5347TIP3    H215987   2.422   7.753   2.706
 5348TIP3   OH215988   2.490   7.415   0.968
 5348TIP3    H115989   2.543   7.380   1.040
 5348TIP3    H215990   2.552   7.426   0.896
 5349TIP3   OH215991   3.135   7.833   2.563
 5349TIP3    H115992   3.101   7.853   2.476
 5349TIP3    H215993   3.168   7.744   2.555
 5350TIP3   OH215994   2.928   7.593   0.781
 5350TIP3    H115995   2.974   7.614   0.861
 5350TIP3    H215996   2.961   7.507   0.755
 5351TIP3   OH215997   3.606   7.865   2.137
 5351TIP3    H115998   3.678   7.914   2.096
 5351TIP3    H215999   3.531   7.924   2.132
 5352TIP3   OH216000   2.637   7.506   2.745
 5352TIP3    H116001   2.709   7.447   2.721
 5352TIP3    H216002   2.662   7.540   2.831
 5353TIP3   OH216003   2.685   7.324   1.168
 5353TIP3    H116004   2.664   7.279   1.250
 5353TIP3    H216005   2.729   7.258   1.115
 5354TIP3   OH216006   2.968   7.401   2.404
 5354TIP3    H116007   2.888   7.453   2.403
 5354TIP3    H216008   3.018   7.433   2.328
 5355TIP3   OH216009   2.802   7.127   1.015
 5355TIP3    H116010   2.774   7.127   0.923
 5355TIP3    H216011   2.897   7.127   1.010
 5356TIP3   OH216012   3.489   7.780   2.533
 5356TIP3    H116013   3.571   7.773   2.484
 5356TIP3    H216014   3.500   7.720   2.607
 5357TIP3   OH216015   3.614   7.482   0.707
 5357TIP3    H116016   3.596   7.418   0.639
 5357TIP3    H216017   3.600   7.567   0.666
 5358TIP3   OH216018   3.084   7.187   2.535
 5358TIP3    H116019   3.095   7.109   2.480
 5358TIP3    H216020   3.049   7.253   2.476
 5359TIP3   OH216021   3.085   6.981   2.340
 5359TIP3    H116022   3.115   7.009   2.254
 5359TIP3    H216023   2.996   6.948   2.325
 5360TIP3   OH216024   3.115   7.514   2.211
 5360TIP3    H116025   3.196   7.516   2.160
 5360TIP3    H216026   3.058   7.577   2.167
 5361TIP3   OH216027   3.707   7.477   2.584
 5361TIP3    H116028   3.753   7.393   2.592
 5361TIP3    H216029   3.773   7.537   2.549
 5362TIP3   OH216030   3.738   7.723   2.322
 5362TIP3    H116031   3.681   7.775   2.266
 5362TIP3    H216032   3.826   7.741   2.290
 5363TIP3   OH216033   2.974   7.295   2.756
 5363TIP3    H116034   2.905   7.233   2.781
 5363TIP3    H216035   3.006   7.262   2.672
 5364TIP3   OH216036   3.230   6.736   2.404
 5364TIP3    H116037   3.173   6.811   2.388
 5364TIP3    H216038   3.172   6.660   2.399
 5365TIP3   OH216039   3.577   7.188   2.496
 5365TIP3    H116040   3.533   7.103   2.500
 5365TIP3    H216041   3.661   7.173   2.540
 5366TIP3   OH216042   3.809   7.126   2.625
 5366TIP3    H116043   3.828   7.032   2.637
 5366TIP3    H216044   3.808   7.161   2.714
 5367TIP3   OH216045   2.811   7.073   2.819
 5367TIP3    H116046   2.810   6.985   2.782
 5367TIP3    H216047   2.848   7.062   2.907
 5368TIP3   OH216048   3.322   6.743   2.664
 5368TIP3    H116049   3.386   6.673   2.665
 5368TIP3    H216050   3.280   6.736   2.578
 5369TIP3   OH216051   3.331   6.987   2.792
 5369TIP3    H116052   3.364   6.916   2.738
 5369TIP3    H216053   3.238   6.967   2.803
 5370TIP3   OH216054   2.104   7.525   1.160
 5370TIP3    H116055   2.179   7.571   1.123
 5370TIP3    H216056   2.091   7.450   1.102
 5371TIP3   OH216057   6.799   0.134   2.371
 5371TIP3    H116058   6.726   0.116   2.430
 5371TIP3    H216059   6.845   0.207   2.411
 5372TIP3   OH216060   3.748   7.634   1.024
 5372TIP3    H116061   3.816   7.691   0.990
 5372TIP3    H216062   3.787   7.592   1.101
 5373TIP3   OH216063   3.879   7.505   1.221
 5373TIP3    H116064   3.818   7.462   1.280
 5373TIP3    H216065   3.949   7.537   1.277
 5374TIP3   OH216066   3.922   7.893   1.643
 5374TIP3    H116067   3.985   7.835   1.600
 5374TIP3    H216068   3.928   7.975   1.594
 5375TIP3   OH216069   3.823   7.419   0.871
 5375TIP3    H116070   3.754   7.420   0.804
 5375TIP3    H216071   3.799   7.489   0.931
 5376TIP3   OH216072   3.685   7.091   0.819
 5376TIP3    H116073   3.678   7.123   0.729
 5376TIP3    H216074   3.660   6.999   0.814
 5377TIP3   OH216075   3.695   7.361   1.366
 5377TIP3    H116076   3.703   7.267   1.353
 5377TIP3    H216077   3.681   7.371   1.460
 5378TIP3   OH216078   2.322   7.443   2.107
 5378TIP3    H116079   2.317   7.410   2.017
 5378TIP3    H216080   2.416   7.443   2.127
 5379TIP3   OH216081   3.983   7.785   2.221
 5379TIP3    H116082   4.054   7.721   2.211
 5379TIP3    H216083   4.007   7.857   2.163
 5380TIP3   OH216084   4.167   7.586   2.231
 5380TIP3    H116085   4.093   7.541   2.271
 5380TIP3    H216086   4.241   7.528   2.247
 5381TIP3   OH216087   3.630   6.826   0.807
 5381TIP3    H116088   3.704   6.790   0.857
 5381TIP3    H216089   3.560   6.762   0.819
 5382TIP3   OH216090   3.696   7.081   1.253
 5382TIP3    H116091   3.732   6.994   1.270
 5382TIP3    H216092   3.749   7.114   1.180
 5383TIP3   OH216093   3.854   7.254   1.753
 5383TIP3    H116094   3.936   7.276   1.708
 5383TIP3    H216095   3.866   7.288   1.842
 5384TIP3   OH216096   3.923   7.400   1.982
 5384TIP3    H116097   3.847   7.433   2.030
 5384TIP3    H216098   3.958   7.478   1.937
 5385TIP3   OH216099   2.544   7.121   2.785
 5385TIP3    H116100   2.640   7.117   2.787
 5385TIP3    H216101   2.516   7.037   2.821
 5386TIP3   OH216102   4.373   6.992   2.534
 5386TIP3    H116103   4.433   6.928   2.497
 5386TIP3    H216104   4.343   7.043   2.459
 5387TIP3   OH216105   3.797   6.831   1.298
 5387TIP3    H116106   3.848   6.815   1.378
 5387TIP3    H216107   3.738   6.756   1.292
 5388TIP3   OH216108   2.500   6.811   2.104
 5388TIP3    H116109   2.561   6.741   2.127
 5388TIP3    H216110   2.554   6.890   2.106
 5389TIP3   OH216111   2.302   7.086   2.183
 5389TIP3    H116112   2.353   7.095   2.103
 5389TIP3    H216113   2.321   7.166   2.233
 5390TIP3   OH216114   4.238   7.125   2.337
 5390TIP3    H116115   4.155   7.169   2.357
 5390TIP3    H216116   4.213   7.050   2.283
 5391TIP3   OH216117   3.881   6.762   0.931
 5391TIP3    H116118   3.912   6.693   0.873
 5391TIP3    H216119   3.946   6.831   0.923
 5392TIP3   OH216120   2.503   6.682   2.504
 5392TIP3    H116121   2.456   6.667   2.586
 5392TIP3    H216122   2.435   6.713   2.443
 5393TIP3   OH216123   4.142   6.884   2.222
 5393TIP3    H116124   4.052   6.871   2.192
 5393TIP3    H216125   4.182   6.797   2.216
 5394TIP3   OH216126   3.335   6.796   1.831
 5394TIP3    H116127   3.303   6.731   1.893
 5394TIP3    H216128   3.417   6.759   1.798
 5395TIP3   OH216129   3.866   6.693   1.748
 5395TIP3    H116130   3.903   6.738   1.672
 5395TIP3    H216131   3.772   6.704   1.739
 5396TIP3   OH216132   3.966   6.786   1.510
 5396TIP3    H116133   4.036   6.731   1.474
 5396TIP3    H216134   3.996   6.876   1.497
 5397TIP3   OH216135   2.398   6.415   1.531
 5397TIP3    H116136   2.440   6.444   1.450
 5397TIP3    H216137   2.309   6.448   1.525
 5398TIP3   OH216138   3.031   6.558   1.749
 5398TIP3    H116139   3.087   6.594   1.681
 5398TIP3    H216140   3.077   6.579   1.831
 5399TIP3   OH216141   3.584   6.695   1.723
 5399TIP3    H116142   3.588   6.656   1.635
 5399TIP3    H216143   3.571   6.621   1.782
 5400TIP3   OH216144   3.615   6.618   1.288
 5400TIP3    H116145   3.530   6.661   1.299
 5400TIP3    H216146   3.604   6.533   1.331
 5401TIP3   OH216147   2.506   6.535   1.273
 5401TIP3    H116148   2.548   6.474   1.213
 5401TIP3    H216149   2.577   6.591   1.305
 5402TIP3   OH216150   3.010   6.724   1.373
 5402TIP3    H116151   3.071   6.674   1.426
 5402TIP3    H216152   3.031   6.816   1.393
 5403TIP3   OH216153   2.807   6.801   2.755
 5403TIP3    H116154   2.769   6.727   2.803
 5403TIP3    H216155   2.901   6.796   2.776
 5404TIP3   OH216156   3.067   6.791   2.867
 5404TIP3    H116157   3.139   6.749   2.819
 5404TIP3    H216158   3.044   6.729   2.936
 5405TIP3   OH216159   3.885   6.860   2.658
 5405TIP3    H116160   3.897   6.827   2.747
 5405TIP3    H216161   3.971   6.851   2.617
 5406TIP3   OH216162   5.074   7.773   0.921
 5406TIP3    H116163   5.052   7.861   0.893
 5406TIP3    H216164   5.011   7.717   0.877
 5407TIP3   OH216165   5.085   7.780   1.299
 5407TIP3    H116166   5.120   7.755   1.385
 5407TIP3    H216167   5.045   7.700   1.265
 5408TIP3   OH216168   4.380   7.673   1.665
 5408TIP3    H116169   4.410   7.604   1.725
 5408TIP3    H216170   4.456   7.730   1.654
 5409TIP3   OH216171   8.136   0.068   0.986
 5409TIP3    H116172   8.142  -0.012   1.038
 5409TIP3    H216173   8.193   0.130   1.032
 5410TIP3   OH216174   4.416   8.020   1.467
 5410TIP3    H116175   4.383   7.937   1.435
 5410TIP3    H216176   4.495   8.036   1.416
 5411TIP3   OH216177   4.059   7.284   1.164
 5411TIP3    H116178   4.015   7.367   1.184
 5411TIP3    H216179   3.991   7.231   1.122
 5412TIP3   OH216180   4.116   7.572   1.347
 5412TIP3    H116181   4.162   7.494   1.378
 5412TIP3    H216182   4.183   7.625   1.305
 5413TIP3   OH216183   4.902   7.995   1.338
 5413TIP3    H116184   4.945   7.917   1.304
 5413TIP3    H216185   4.973   8.052   1.367
 5414TIP3   OH216186   5.897   7.324   1.345
 5414TIP3    H116187   5.925   7.406   1.386
 5414TIP3    H216188   5.918   7.335   1.252
 5415TIP3   OH216189   5.292   7.500   1.375
 5415TIP3    H116190   5.339   7.419   1.395
 5415TIP3    H216191   5.264   7.489   1.284
 5416TIP3   OH216192   4.635   7.166   1.336
 5416TIP3    H116193   4.616   7.239   1.277
 5416TIP3    H216194   4.590   7.091   1.297
 5417TIP3   OH216195   5.329   7.261   0.956
 5417TIP3    H116196   5.396   7.245   1.022
 5417TIP3    H216197   5.378   7.288   0.878
 5418TIP3   OH216198   4.268   7.365   1.448
 5418TIP3    H116199   4.348   7.349   1.497
 5418TIP3    H216200   4.278   7.314   1.368
 5419TIP3   OH216201   4.705   7.563   1.246
 5419TIP3    H116202   4.798   7.542   1.255
 5419TIP3    H216203   4.665   7.483   1.212
 5420TIP3   OH216204   5.969   7.536   1.516
 5420TIP3    H116205   5.886   7.579   1.497
 5420TIP3    H216206   5.995   7.570   1.602
 5421TIP3   OH216207   4.627   7.151   1.776
 5421TIP3    H116208   4.571   7.186   1.706
 5421TIP3    H216209   4.577   7.166   1.856
 5422TIP3   OH216210   4.957   7.975   0.747
 5422TIP3    H116211   4.875   7.927   0.732
 5422TIP3    H216212   4.930   8.055   0.791
 5423TIP3   OH216213   4.732   7.932   1.566
 5423TIP3    H116214   4.668   7.995   1.599
 5423TIP3    H216215   4.768   7.974   1.487
 5424TIP3   OH216216   5.530   7.268   1.139
 5424TIP3    H116217   5.524   7.213   1.218
 5424TIP3    H216218   5.583   7.343   1.166
 5425TIP3   OH216219   4.505   7.265   1.557
 5425TIP3    H116220   4.562   7.337   1.582
 5425TIP3    H216221   4.550   7.223   1.483
 5426TIP3   OH216222   7.391   0.130   1.675
 5426TIP3    H116223   7.351   0.119   1.588
 5426TIP3    H216224   7.317   0.127   1.736
 5427TIP3   OH216225   3.955   7.777   0.913
 5427TIP3    H116226   3.915   7.792   0.828
 5427TIP3    H216227   3.974   7.865   0.946
 5428TIP3   OH216228   5.689   7.224   1.509
 5428TIP3    H116229   5.603   7.247   1.474
 5428TIP3    H216230   5.751   7.254   1.442
 5429TIP3   OH216231   4.987   6.861   1.502
 5429TIP3    H116232   4.966   6.768   1.511
 5429TIP3    H216233   4.912   6.906   1.542
 5430TIP3   OH216234   8.449   0.221   1.488
 5430TIP3    H116235   8.436   0.143   1.434
 5430TIP3    H216236   8.479   0.289   1.427
 5431TIP3   OH216237   4.919   7.633   0.738
 5431TIP3    H116238   4.836   7.681   0.735
 5431TIP3    H216239   4.950   7.634   0.647
 5432TIP3   OH216240   5.814   7.874   1.329
 5432TIP3    H116241   5.732   7.922   1.340
 5432TIP3    H216242   5.844   7.897   1.242
 5433TIP3   OH216243   5.263   7.722   0.729
 5433TIP3    H116244   5.208   7.743   0.805
 5433TIP3    H216245   5.345   7.692   0.768
 5434TIP3   OH216246   5.494   7.751   1.634
 5434TIP3    H116247   5.496   7.833   1.684
 5434TIP3    H216248   5.410   7.754   1.588
 5435TIP3   OH216249   4.497   7.708   1.127
 5435TIP3    H116250   4.457   7.651   1.062
 5435TIP3    H216251   4.573   7.659   1.159
 5436TIP3   OH216252   7.469   0.063   1.330
 5436TIP3    H116253   7.432   0.059   1.242
 5436TIP3    H216254   7.564   0.059   1.315
 5437TIP3   OH216255   4.624   7.688   1.485
 5437TIP3    H116256   4.659   7.660   1.400
 5437TIP3    H216257   4.669   7.771   1.504
 5438TIP3   OH216258   7.642   0.128   1.810
 5438TIP3    H116259   7.610   0.216   1.833
 5438TIP3    H216260   7.572   0.091   1.756
 5439TIP3   OH216261   4.524   7.793   1.918
 5439TIP3    H116262   4.532   7.881   1.957
 5439TIP3    H216263   4.432   7.771   1.930
 5440TIP3   OH216264   4.361   7.550   0.939
 5440TIP3    H116265   4.295   7.592   0.883
 5440TIP3    H216266   4.329   7.461   0.952
 5441TIP3   OH216267   4.159   7.936   1.847
 5441TIP3    H116268   4.091   7.917   1.781
 5441TIP3    H216269   4.193   7.851   1.872
 5442TIP3   OH216270   5.750   7.711   1.810
 5442TIP3    H116271   5.668   7.726   1.763
 5442TIP3    H216272   5.767   7.617   1.800
 5443TIP3   OH216273   7.178   0.127   1.852
 5443TIP3    H116274   7.234   0.091   1.920
 5443TIP3    H216275   7.109   0.062   1.841
 5444TIP3   OH216276   4.743   6.945   1.621
 5444TIP3    H116277   4.659   6.912   1.590
 5444TIP3    H216278   4.721   7.025   1.668
 5445TIP3   OH216279   5.267   7.059   1.824
 5445TIP3    H116280   5.303   7.068   1.912
 5445TIP3    H216281   5.174   7.039   1.839
 5446TIP3   OH216282   5.508   7.487   1.732
 5446TIP3    H116283   5.463   7.486   1.816
 5446TIP3    H216284   5.492   7.574   1.696
 5447TIP3   OH216285   4.904   6.999   0.594
 5447TIP3    H116286   4.863   6.985   0.680
 5447TIP3    H216287   4.875   6.926   0.541
 5448TIP3   OH216288   4.676   7.466   1.636
 5448TIP3    H116289   4.628   7.482   1.717
 5448TIP3    H216290   4.660   7.544   1.583
 5449TIP3   OH216291   4.558   7.345   1.150
 5449TIP3    H116292   4.468   7.321   1.171
 5449TIP3    H216293   4.574   7.307   1.064
 5450TIP3   OH216294   5.049   7.437   0.878
 5450TIP3    H116295   4.991   7.503   0.838
 5450TIP3    H216296   5.124   7.432   0.819
 5451TIP3   OH216297   5.231   7.701   1.961
 5451TIP3    H116298   5.207   7.634   2.025
 5451TIP3    H216299   5.322   7.724   1.983
 5452TIP3   OH216300   5.209   7.459   1.114
 5452TIP3    H116301   5.146   7.492   1.050
 5452TIP3    H216302   5.246   7.381   1.073
 5453TIP3   OH216303   4.498   7.487   1.847
 5453TIP3    H116304   4.525   7.552   1.911
 5453TIP3    H216305   4.486   7.407   1.897
 5454TIP3   OH216306   4.530   6.938   0.579
 5454TIP3    H116307   4.523   6.950   0.674
 5454TIP3    H216308   4.494   7.019   0.542
 5455TIP3   OH216309   4.089   7.009   1.431
 5455TIP3    H116310   4.165   7.040   1.480
 5455TIP3    H216311   4.124   6.980   1.347
 5456TIP3   OH216312   4.056   6.993   0.945
 5456TIP3    H116313   4.104   7.024   0.868
 5456TIP3    H216314   3.995   7.064   0.965
 5457TIP3   OH216315   5.218   7.700   1.538
 5457TIP3    H116316   5.251   7.632   1.479
 5457TIP3    H216317   5.186   7.652   1.614
 5458TIP3   OH216318   4.893   7.164   1.214
 5458TIP3    H116319   4.811   7.165   1.263
 5458TIP3    H216320   4.961   7.165   1.281
 5459TIP3   OH216321   4.321   7.224   1.219
 5459TIP3    H116322   4.229   7.233   1.191
 5459TIP3    H216323   4.344   7.134   1.197
 5460TIP3   OH216324   4.590   7.222   0.910
 5460TIP3    H116325   4.682   7.233   0.889
 5460TIP3    H216326   4.544   7.252   0.831
 5461TIP3   OH216327   5.382   7.241   1.419
 5461TIP3    H116328   5.348   7.258   1.508
 5461TIP3    H216329   5.317   7.184   1.379
 5462TIP3   OH216330   4.421   7.271   0.696
 5462TIP3    H116331   4.342   7.226   0.667
 5462TIP3    H216332   4.486   7.250   0.630
 5463TIP3   OH216333   7.346   0.028   2.055
 5463TIP3    H116334   7.425   0.054   2.102
 5463TIP3    H216335   7.280   0.016   2.123
 5464TIP3   OH216336   4.971   7.496   1.309
 5464TIP3    H116337   5.045   7.461   1.259
 5464TIP3    H216338   4.978   7.454   1.394
 5465TIP3   OH216339   4.493   6.980   1.192
 5465TIP3    H116340   4.456   6.906   1.240
 5465TIP3    H216341   4.526   6.942   1.111
 5466TIP3   OH216342   4.945   7.396   1.604
 5466TIP3    H116343   4.857   7.432   1.613
 5466TIP3    H216344   5.001   7.458   1.650
 5467TIP3   OH216345   4.698   7.785   0.708
 5467TIP3    H116346   4.629   7.721   0.686
 5467TIP3    H216347   4.668   7.825   0.789
 5468TIP3   OH216348   8.414  -0.001   1.326
 5468TIP3    H116349   8.443   0.048   1.249
 5468TIP3    H216350   8.331  -0.040   1.300
 5469TIP3   OH216351   7.926   0.110   1.693
 5469TIP3    H116352   7.961   0.061   1.768
 5469TIP3    H216353   7.844   0.147   1.726
 5470TIP3   OH216354   4.360   7.763   1.359
 5470TIP3    H116355   4.406   7.755   1.275
 5470TIP3    H216356   4.417   7.720   1.423
 5471TIP3   OH216357   4.262   7.717   1.987
 5471TIP3    H116358   4.278   7.704   2.081
 5471TIP3    H216359   4.191   7.656   1.966
 5472TIP3   OH216360   4.991   7.828   2.008
 5472TIP3    H116361   4.925   7.781   1.957
 5472TIP3    H216362   5.074   7.797   1.974
 5473TIP3   OH216363   0.205   0.258   1.577
 5473TIP3    H116364   0.111   0.272   1.570
 5473TIP3    H216365   0.235   0.245   1.487
 5474TIP3   OH216366   5.348   7.886   1.232
 5474TIP3    H116367   5.256   7.865   1.250
 5474TIP3    H216368   5.384   7.805   1.195
 5475TIP3   OH216369   4.051   7.407   0.714
 5475TIP3    H116370   4.095   7.490   0.728
 5475TIP3    H216371   3.971   7.412   0.766
 5476TIP3   OH216372   4.617   7.881   0.946
 5476TIP3    H116373   4.586   7.969   0.966
 5476TIP3    H216374   4.583   7.827   1.017
 5477TIP3   OH216375   7.973   0.073   1.423
 5477TIP3    H116376   7.961   0.084   1.518
 5477TIP3    H216377   8.057   0.028   1.415
 5478TIP3   OH216378   4.466   7.230   1.990
 5478TIP3    H116379   4.371   7.233   1.999
 5478TIP3    H216380   4.495   7.174   2.062
 5479TIP3   OH216381   4.161   7.653   0.783
 5479TIP3    H116382   4.095   7.688   0.843
 5479TIP3    H216383   4.177   7.725   0.721
 5480TIP3   OH216384   5.306   7.295   1.677
 5480TIP3    H116385   5.385   7.337   1.709
 5480TIP3    H216386   5.296   7.217   1.732
 5481TIP3   OH216387   5.173   7.052   0.847
 5481TIP3    H116388   5.144   7.079   0.759
 5481TIP3    H216389   5.226   7.125   0.878
 5482TIP3   OH216390   4.872   7.230   0.944
 5482TIP3    H116391   4.936   7.298   0.924
 5482TIP3    H216392   4.878   7.220   1.039
 5483TIP3   OH216393   5.143   7.544   1.748
 5483TIP3    H116394   5.168   7.598   1.823
 5483TIP3    H216395   5.195   7.464   1.757
 5484TIP3   OH216396   5.016   6.950   1.044
 5484TIP3    H116397   5.001   7.028   1.098
 5484TIP3    H216398   5.075   6.981   0.975
 5485TIP3   OH216399   4.532   6.959   0.854
 5485TIP3    H116400   4.531   7.050   0.884
 5485TIP3    H216401   4.624   6.935   0.850
 5486TIP3   OH216402   5.777   7.447   1.732
 5486TIP3    H116403   5.681   7.443   1.734
 5486TIP3    H216404   5.800   7.411   1.646
 5487TIP3   OH216405   5.436   7.642   1.129
 5487TIP3    H116406   5.362   7.582   1.129
 5487TIP3    H216407   5.507   7.593   1.171
 5488TIP3   OH216408   4.161   7.867   0.599
 5488TIP3    H116409   4.186   7.956   0.624
 5488TIP3    H216410   4.154   7.871   0.503
 5489TIP3   OH216411   4.098   7.141   0.719
 5489TIP3    H116412   4.095   7.237   0.724
 5489TIP3    H216413   4.015   7.117   0.677
 5490TIP3   OH216414   4.480   6.862   1.591
 5490TIP3    H116415   4.450   6.831   1.505
 5490TIP3    H216416   4.470   6.787   1.649
 5491TIP3   OH216417   4.306   8.008   2.231
 5491TIP3    H116418   4.330   7.915   2.239
 5491TIP3    H216419   4.219   8.007   2.192
 5492TIP3   OH216420   7.763   0.077   2.049
 5492TIP3    H116421   7.729   0.095   1.961
 5492TIP3    H216422   7.799  -0.011   2.043
 5493TIP3   OH216423   8.237   0.107   1.624
 5493TIP3    H116424   8.307   0.158   1.583
 5493TIP3    H216425   8.160   0.164   1.621
 5494TIP3   OH216426   4.432   7.760   2.234
 5494TIP3    H116427   4.509   7.712   2.204
 5494TIP3    H216428   4.457   7.795   2.319
 5495TIP3   OH216429   4.511   7.582   0.679
 5495TIP3    H116430   4.465   7.547   0.755
 5495TIP3    H216431   4.532   7.504   0.626
 5496TIP3   OH216432   4.762   7.651   1.887
 5496TIP3    H116433   4.684   7.707   1.892
 5496TIP3    H216434   4.812   7.685   1.813
 5497TIP3   OH216435   8.116   0.027   2.022
 5497TIP3    H116436   8.198   0.008   1.977
 5497TIP3    H216437   8.115  -0.034   2.096
 5498TIP3   OH216438   4.887   7.441   2.011
 5498TIP3    H116439   4.885   7.363   1.956
 5498TIP3    H216440   4.844   7.509   1.958
 5499TIP3   OH216441   4.887   7.226   1.822
 5499TIP3    H116442   4.915   7.270   1.742
 5499TIP3    H216443   4.795   7.204   1.806
 5500TIP3   OH216444   4.908   7.766   1.696
 5500TIP3    H116445   4.992   7.773   1.650
 5500TIP3    H216446   4.852   7.830   1.653
 5501TIP3   OH216447   5.494   7.733   2.070
 5501TIP3    H116448   5.549   7.660   2.096
 5501TIP3    H216449   5.555   7.799   2.038
 5502TIP3   OH216450   5.537   7.978   1.808
 5502TIP3    H116451   5.478   8.030   1.754
 5502TIP3    H216452   5.624   7.998   1.774
 5503TIP3   OH216453   4.764   7.543   2.247
 5503TIP3    H116454   4.697   7.477   2.264
 5503TIP3    H216455   4.797   7.522   2.160
 5504TIP3   OH216456   5.012   6.987   1.885
 5504TIP3    H116457   4.963   7.068   1.867
 5504TIP3    H216458   4.946   6.918   1.878
 5505TIP3   OH216459   5.144   7.487   2.109
 5505TIP3    H116460   5.130   7.475   2.203
 5505TIP3    H216461   5.059   7.468   2.070
 5506TIP3   OH216462   5.384   7.432   1.968
 5506TIP3    H116463   5.308   7.442   2.025
 5506TIP3    H216464   5.453   7.399   2.026
 5507TIP3   OH216465   5.614   7.353   2.136
 5507TIP3    H116466   5.616   7.281   2.200
 5507TIP3    H216467   5.606   7.432   2.189
 5508TIP3   OH216468   4.602   7.325   2.303
 5508TIP3    H116469   4.603   7.235   2.269
 5508TIP3    H216470   4.639   7.317   2.391
 5509TIP3   OH216471   5.116   7.001   2.141
 5509TIP3    H116472   5.179   6.930   2.139
 5509TIP3    H216473   5.070   6.995   2.058
 5510TIP3   OH216474   5.179   7.215   2.305
 5510TIP3    H116475   5.158   7.145   2.243
 5510TIP3    H216476   5.103   7.273   2.302
 5511TIP3   OH216477   3.887   7.796   0.601
 5511TIP3    H116478   3.982   7.808   0.606
 5511TIP3    H216479   3.877   7.702   0.582
 5512TIP3   OH216480   0.096   0.389   1.857
 5512TIP3    H116481   0.023   0.373   1.917
 5512TIP3    H216482   0.142   0.464   1.895
 5513TIP3   OH216483   0.054   0.133   1.135
 5513TIP3    H116484   0.114   0.077   1.086
 5513TIP3    H216485   0.050   0.215   1.085
 5514TIP3   OH216486   5.471   7.610   0.856
 5514TIP3    H116487   5.500   7.519   0.849
 5514TIP3    H216488   5.475   7.629   0.950
 5515TIP3   OH216489   4.117   7.699   1.596
 5515TIP3    H116490   4.111   7.663   1.507
 5515TIP3    H216491   4.211   7.700   1.614
 5516TIP3   OH216492   0.114   0.028   1.706
 5516TIP3    H116493   0.187  -0.034   1.698
 5516TIP3    H216494   0.140   0.102   1.651
 5517TIP3   OH216495   5.968   7.844   1.723
 5517TIP3    H116496   5.892   7.801   1.760
 5517TIP3    H216497   6.040   7.781   1.736
 5518TIP3   OH216498   5.482   7.324   0.732
 5518TIP3    H116499   5.519   7.239   0.753
 5518TIP3    H216500   5.552   7.370   0.686
 5519TIP3   OH216501   5.651   7.507   1.242
 5519TIP3    H116502   5.732   7.530   1.198
 5519TIP3    H216503   5.660   7.542   1.331
 5520TIP3   OH216504   5.718   7.656   1.471
 5520TIP3    H116505   5.642   7.688   1.519
 5520TIP3    H216506   5.750   7.732   1.423
 5521TIP3   OH216507   4.337   7.377   2.273
 5521TIP3    H116508   4.433   7.375   2.274
 5521TIP3    H216509   4.311   7.292   2.309
 5522TIP3   OH216510   6.180   7.251   2.026
 5522TIP3    H116511   6.235   7.184   1.985
 5522TIP3    H216512   6.137   7.295   1.953
 5523TIP3   OH216513   5.582   7.085   0.796
 5523TIP3    H116514   5.642   7.065   0.868
 5523TIP3    H216515   5.529   7.006   0.787
 5524TIP3   OH216516   4.299   7.073   1.604
 5524TIP3    H116517   4.357   6.997   1.610
 5524TIP3    H216518   4.359   7.147   1.593
 5525TIP3   OH216519   4.097   7.347   1.671
 5525TIP3    H116520   4.145   7.339   1.588
 5525TIP3    H216521   4.128   7.429   1.709
 5526TIP3   OH216522   6.034   7.379   1.831
 5526TIP3    H116523   5.953   7.425   1.851
 5526TIP3    H216524   6.006   7.302   1.782
 5527TIP3   OH216525   4.082   6.857   1.178
 5527TIP3    H116526   3.990   6.845   1.202
 5527TIP3    H216527   4.079   6.911   1.099
 5528TIP3   OH216528   4.302   6.932   1.989
 5528TIP3    H116529   4.252   6.923   2.070
 5528TIP3    H216530   4.239   6.967   1.926
 5529TIP3   OH216531   5.938   7.149   1.704
 5529TIP3    H116532   5.849   7.148   1.668
 5529TIP3    H216533   5.964   7.057   1.706
 5530TIP3   OH216534   5.149   7.063   1.337
 5530TIP3    H116535   5.106   6.992   1.384
 5530TIP3    H216536   5.218   7.020   1.285
 5531TIP3   OH216537   5.660   6.950   1.243
 5531TIP3    H116538   5.702   6.993   1.169
 5531TIP3    H216539   5.566   6.963   1.229
 5532TIP3   OH216540   5.765   7.040   1.007
 5532TIP3    H116541   5.836   6.985   0.974
 5532TIP3    H216542   5.791   7.129   0.985
 5533TIP3   OH216543   4.390   6.768   1.345
 5533TIP3    H116544   4.298   6.741   1.347
 5533TIP3    H216545   4.439   6.686   1.339
 5534TIP3   OH216546   4.192   6.645   0.998
 5534TIP3    H116547   4.214   6.696   0.920
 5534TIP3    H216548   4.159   6.709   1.060
 5535TIP3   OH216549   4.842   6.799   1.226
 5535TIP3    H116550   4.895   6.846   1.161
 5535TIP3    H216551   4.857   6.846   1.308
 5536TIP3   OH216552   5.380   6.953   1.202
 5536TIP3    H116553   5.384   6.921   1.112
 5536TIP3    H216554   5.368   6.875   1.256
 5537TIP3   OH216555   5.411   6.877   0.818
 5537TIP3    H116556   5.323   6.906   0.795
 5537TIP3    H216557   5.400   6.786   0.846
 5538TIP3   OH216558   4.299   6.802   0.762
 5538TIP3    H116559   4.339   6.740   0.701
 5538TIP3    H216560   4.372   6.851   0.798
 5539TIP3   OH216561   4.808   6.977   0.858
 5539TIP3    H116562   4.867   6.926   0.913
 5539TIP3    H216563   4.829   7.068   0.878
 5540TIP3   OH216564   4.600   7.051   2.240
 5540TIP3    H116565   4.562   6.981   2.293
 5540TIP3    H216566   4.693   7.052   2.266
 5541TIP3   OH216567   4.850   7.047   2.358
 5541TIP3    H116568   4.935   7.021   2.321
 5541TIP3    H216569   4.832   6.982   2.426
 5542TIP3   OH216570   6.174   7.926   1.140
 5542TIP3    H116571   6.225   7.881   1.207
 5542TIP3    H216572   6.240   7.956   1.076
 5543TIP3   OH216573   6.054   7.620   0.948
 5543TIP3    H116574   6.143   7.595   0.973
 5543TIP3    H216575   6.041   7.578   0.863
 5544TIP3   OH216576   6.412   7.405   1.269
 5544TIP3    H116577   6.356   7.437   1.198
 5544TIP3    H216578   6.359   7.418   1.348
 5545TIP3   OH216579   6.302   7.510   1.030
 5545TIP3    H116580   6.350   7.587   1.059
 5545TIP3    H216581   6.361   7.467   0.968
 5546TIP3   OH216582   6.775   7.124   0.992
 5546TIP3    H116583   6.765   7.029   1.004
 5546TIP3    H216584   6.693   7.161   1.024
 5547TIP3   OH216585   0.612   0.045   1.408
 5547TIP3    H116586   0.599   0.132   1.446
 5547TIP3    H216587   0.526   0.003   1.416
 5548TIP3   OH216588   0.278   0.175   1.333
 5548TIP3    H116589   0.209   0.160   1.269
 5548TIP3    H216590   0.308   0.088   1.357
 5549TIP3   OH216591   6.529   7.210   1.108
 5549TIP3    H116592   6.446   7.171   1.080
 5549TIP3    H216593   6.503   7.278   1.171
 5550TIP3   OH216594   7.047   7.281   1.332
 5550TIP3    H116595   7.085   7.313   1.415
 5550TIP3    H216596   6.954   7.271   1.351
 5551TIP3   OH216597   6.451   7.714   1.120
 5551TIP3    H116598   6.408   7.742   1.201
 5551TIP3    H216599   6.495   7.793   1.088
 5552TIP3   OH216600   6.309   7.752   1.351
 5552TIP3    H116601   6.290   7.817   1.418
 5552TIP3    H216602   6.293   7.668   1.393
 5553TIP3   OH216603   5.889   7.263   0.919
 5553TIP3    H116604   5.956   7.294   0.981
 5553TIP3    H216605   5.936   7.253   0.836
 5554TIP3   OH216606   6.036   7.963   1.479
 5554TIP3    H116607   6.044   7.945   1.573
 5554TIP3    H216608   5.961   7.910   1.451
 5555TIP3   OH216609   6.261   7.488   1.483
 5555TIP3    H116610   6.166   7.488   1.494
 5555TIP3    H216611   6.293   7.434   1.554
 5556TIP3   OH216612   6.272   7.121   1.089
 5556TIP3    H116613   6.238   7.088   1.005
 5556TIP3    H216614   6.270   7.045   1.147
 5557TIP3   OH216615   0.449   0.255   1.700
 5557TIP3    H116616   0.481   0.165   1.700
 5557TIP3    H216617   0.360   0.250   1.665
 5558TIP3   OH216618   6.236   8.019   1.714
 5558TIP3    H116619   6.304   7.953   1.702
 5558TIP3    H216620   6.249   8.051   1.803
 5559TIP3   OH216621   6.646   7.710   1.500
 5559TIP3    H116622   6.685   7.624   1.486
 5559TIP3    H216623   6.598   7.729   1.419
 5560TIP3   OH216624   6.659   7.508   1.278
 5560TIP3    H116625   6.639   7.537   1.190
 5560TIP3    H216626   6.579   7.466   1.309
 5561TIP3   OH216627   6.548   7.801   1.741
 5561TIP3    H116628   6.484   7.731   1.755
 5561TIP3    H216629   6.587   7.781   1.656
 5562TIP3   OH216630   6.780   7.249   1.387
 5562TIP3    H116631   6.728   7.322   1.352
 5562TIP3    H216632   6.725   7.172   1.375
 5563TIP3   OH216633   6.397   7.578   1.791
 5563TIP3    H116634   6.400   7.489   1.756
 5563TIP3    H216635   6.432   7.570   1.880
 5564TIP3   OH216636   6.907   7.245   1.632
 5564TIP3    H116637   6.978   7.182   1.624
 5564TIP3    H216638   6.857   7.237   1.551
 5565TIP3   OH216639   6.969   7.452   1.802
 5565TIP3    H116640   6.951   7.388   1.733
 5565TIP3    H216641   6.905   7.522   1.787
 5566TIP3   OH216642   5.915   7.948   1.079
 5566TIP3    H116643   5.919   7.900   0.996
 5566TIP3    H216644   6.006   7.953   1.108
 5567TIP3   OH216645   6.133   7.629   1.755
 5567TIP3    H116646   6.228   7.630   1.760
 5567TIP3    H216647   6.108   7.545   1.794
 5568TIP3   OH216648   6.091   7.330   1.095
 5568TIP3    H116649   6.146   7.252   1.103
 5568TIP3    H216650   6.153   7.401   1.079
 5569TIP3   OH216651   5.893   7.604   1.167
 5569TIP3    H116652   5.942   7.601   1.085
 5569TIP3    H216653   5.918   7.688   1.207
 5570TIP3   OH216654   6.093   7.177   1.477
 5570TIP3    H116655   6.049   7.185   1.561
 5570TIP3    H216656   6.033   7.217   1.414
 5571TIP3   OH216657   6.177   7.027   0.852
 5571TIP3    H116658   6.089   6.990   0.858
 5571TIP3    H216659   6.233   6.952   0.835
 5572TIP3   OH216660   6.397   7.309   1.723
 5572TIP3    H116661   6.357   7.243   1.779
 5572TIP3    H216662   6.490   7.308   1.747
 5573TIP3   OH216663   6.645   7.302   1.840
 5573TIP3    H116664   6.734   7.292   1.804
 5573TIP3    H216665   6.638   7.233   1.906
 5574TIP3   OH216666   1.830   0.491   5.748
 5574TIP3    H116667   1.800   0.420   5.805
 5574TIP3    H216668   1.857   0.560   5.807
 5575TIP3   OH216669   1.488   0.951   5.765
 5575TIP3    H116670   1.548   0.891   5.722
 5575TIP3    H216671   1.484   0.921   5.855
 5576TIP3   OH216672   8.109   7.960   6.299
 5576TIP3    H116673   8.033   8.009   6.267
 5576TIP3    H216674   8.158   8.024   6.351
 5577TIP3   OH216675   1.523   0.443   5.513
 5577TIP3    H116676   1.448   0.384   5.504
 5577TIP3    H216677   1.488   0.519   5.560
 5578TIP3   OH216678   1.897   0.749   5.918
 5578TIP3    H116679   1.806   0.741   5.947
 5578TIP3    H216680   1.899   0.829   5.866
 5579TIP3   OH216681   1.650   0.791   5.618
 5579TIP3    H116682   1.688   0.708   5.587
 5579TIP3    H216683   1.688   0.857   5.560
 5580TIP3   OH216684   1.763   0.573   5.492
 5580TIP3    H116685   1.689   0.515   5.476
 5580TIP3    H216686   1.804   0.538   5.572
 5581TIP3   OH216687   2.129   0.655   6.258
 5581TIP3    H116688   2.118   0.579   6.201
 5581TIP3    H216689   2.108   0.730   6.202
 5582TIP3   OH216690   2.328   0.298   6.105
 5582TIP3    H116691   2.245   0.345   6.112
 5582TIP3    H216692   2.358   0.315   6.016
 5583TIP3   OH216693   1.760   0.152   5.498
 5583TIP3    H116694   1.712   0.165   5.579
 5583TIP3    H216695   1.843   0.113   5.525
 5584TIP3   OH216696   1.644   0.762   6.016
 5584TIP3    H116697   1.641   0.847   6.059
 5584TIP3    H216698   1.650   0.699   6.087
 5585TIP3   OH216699   1.381   0.731   5.523
 5585TIP3    H116700   1.435   0.751   5.599
 5585TIP3    H216701   1.296   0.705   5.560
 5586TIP3   OH216702   1.926   0.594   4.905
 5586TIP3    H116703   1.932   0.689   4.895
 5586TIP3    H216704   2.017   0.564   4.894
 5587TIP3   OH216705   2.369   0.999   6.311
 5587TIP3    H116706   2.369   0.904   6.325
 5587TIP3    H216707   2.288   1.028   6.352
 5588TIP3   OH216708   1.503   0.817   6.398
 5588TIP3    H116709   1.495   0.899   6.446
 5588TIP3    H216710   1.436   0.760   6.435
 5589TIP3   OH216711   1.198   0.918   5.375
 5589TIP3    H116712   1.179   0.922   5.281
 5589TIP3    H216713   1.192   1.009   5.404
 5590TIP3   OH216714   1.441   0.812   5.029
 5590TIP3    H116715   1.501   0.746   4.996
 5590TIP3    H216716   1.469   0.827   5.119
 5591TIP3   OH216717   1.474   0.866   5.302
 5591TIP3    H116718   1.391   0.862   5.350
 5591TIP3    H216719   1.536   0.819   5.357
 5592TIP3   OH216720   2.262   0.120   6.579
 5592TIP3    H116721   2.186   0.178   6.572
 5592TIP3    H216722   2.227   0.032   6.561
 5593TIP3   OH216723   1.666   0.046   5.044
 5593TIP3    H116724   1.654   0.004   4.959
 5593TIP3    H216725   1.754   0.084   5.039
 5594TIP3   OH216726   2.063   1.350   6.402
 5594TIP3    H116727   2.057   1.372   6.309
 5594TIP3    H216728   2.144   1.391   6.431
 5595TIP3   OH216729   2.095   0.440   6.088
 5595TIP3    H116730   2.123   0.492   6.012
 5595TIP3    H216731   2.014   0.399   6.061
 5596TIP3   OH216732   1.376   0.401   5.217
 5596TIP3    H116733   1.325   0.478   5.242
 5596TIP3    H216734   1.382   0.349   5.298
 5597TIP3   OH216735   1.778   0.804   6.371
 5597TIP3    H116736   1.684   0.791   6.358
 5597TIP3    H216737   1.785   0.852   6.454
 5598TIP3   OH216738   7.840   7.875   5.247
 5598TIP3    H116739   7.779   7.817   5.202
 5598TIP3    H216740   7.818   7.963   5.215
 5599TIP3   OH216741   2.379   0.714   6.339
 5599TIP3    H116742   2.283   0.709   6.337
 5599TIP3    H216743   2.407   0.684   6.252
 5600TIP3   OH216744   1.857   0.669   5.175
 5600TIP3    H116745   1.833   0.606   5.243
 5600TIP3    H216746   1.873   0.615   5.097
 5601TIP3   OH216747   1.280   0.886   6.245
 5601TIP3    H116748   1.303   0.957   6.184
 5601TIP3    H216749   1.362   0.867   6.291
 5602TIP3   OH216750   1.700   0.549   6.186
 5602TIP3    H116751   1.661   0.478   6.236
 5602TIP3    H216752   1.750   0.505   6.117
 5603TIP3   OH216753   1.614   0.405   5.076
 5603TIP3    H116754   1.676   0.371   5.141
 5603TIP3    H216755   1.529   0.403   5.120
 5604TIP3   OH216756   1.891   1.044   6.243
 5604TIP3    H116757   1.819   0.981   6.242
 5604TIP3    H216758   1.874   1.102   6.169
 5605TIP3   OH216759   1.953   0.875   4.892
 5605TIP3    H116760   1.995   0.947   4.846
 5605TIP3    H216761   1.873   0.912   4.929
 5606TIP3   OH216762   1.781   0.322   5.275
 5606TIP3    H116763   1.757   0.268   5.350
 5606TIP3    H216764   1.876   0.322   5.274
 5607TIP3   OH216765   1.194   0.598   5.280
 5607TIP3    H116766   1.146   0.598   5.363
 5607TIP3    H216767   1.214   0.690   5.264
 5608TIP3   OH216768   1.915   1.017   5.833
 5608TIP3    H116769   1.869   1.061   5.761
 5608TIP3    H216770   2.008   1.030   5.813
 5609TIP3   OH216771   1.147   0.559   4.997
 5609TIP3    H116772   1.155   0.533   5.088
 5609TIP3    H216773   1.223   0.520   4.954
 5610TIP3   OH216774   1.806   0.914   6.631
 5610TIP3    H116775   1.848   0.833   6.662
 5610TIP3    H216776   1.874   0.981   6.639
 5611TIP3   OH216777   1.586   0.619   4.897
 5611TIP3    H116778   1.620   0.556   4.960
 5611TIP3    H216779   1.648   0.615   4.824
 5612TIP3   OH216780   1.920   0.556   6.411
 5612TIP3    H116781   2.001   0.588   6.372
 5612TIP3    H216782   1.853   0.618   6.381
 5613TIP3   OH216783   1.918   0.126   4.928
 5613TIP3    H116784   1.901   0.083   4.845
 5613TIP3    H216785   1.884   0.214   4.918
 5614TIP3   OH216786   2.081   0.383   6.563
 5614TIP3    H116787   2.020   0.439   6.514
 5614TIP3    H216788   2.168   0.408   6.530
 5615TIP3   OH216789   0.915   0.877   5.155
 5615TIP3    H116790   1.009   0.857   5.153
 5615TIP3    H216791   0.899   0.927   5.075
 5616TIP3   OH216792   2.174   1.095   5.797
 5616TIP3    H116793   2.190   1.128   5.885
 5616TIP3    H216794   2.225   1.153   5.740
 5617TIP3   OH216795   2.197   1.120   6.076
 5617TIP3    H116796   2.152   1.036   6.074
 5617TIP3    H216797   2.265   1.110   6.143
 5618TIP3   OH216798   2.240   0.801   6.652
 5618TIP3    H116799   2.169   0.807   6.716
 5618TIP3    H216800   2.283   0.886   6.655
 5619TIP3   OH216801   2.059   0.311   5.267
 5619TIP3    H116802   2.120   0.378   5.236
 5619TIP3    H216803   2.101   0.275   5.345
 5620TIP3   OH216804   2.183   0.181   5.472
 5620TIP3    H116805   2.116   0.145   5.530
 5620TIP3    H216806   2.245   0.224   5.531
 5621TIP3   OH216807   2.248   0.577   5.902
 5621TIP3    H116808   2.293   0.507   5.855
 5621TIP3    H216809   2.242   0.649   5.840
 5622TIP3   OH216810   2.067   0.875   6.100
 5622TIP3    H116811   1.999   0.917   6.153
 5622TIP3    H216812   2.018   0.828   6.032
 5623TIP3   OH216813   2.113   0.092   5.115
 5623TIP3    H116814   2.045   0.097   5.047
 5623TIP3    H216815   2.092   0.164   5.174
 5624TIP3   OH216816   7.666   7.765   5.060
 5624TIP3    H116817   7.622   7.840   5.021
 5624TIP3    H216818   7.607   7.691   5.045
 5625TIP3   OH216819   1.995   0.044   5.628
 5625TIP3    H116820   2.015  -0.050   5.626
 5625TIP3    H216821   1.980   0.064   5.721
 5626TIP3   OH216822   2.315   0.470   6.463
 5626TIP3    H116823   2.384   0.405   6.453
 5626TIP3    H216824   2.342   0.542   6.407
 5627TIP3   OH216825   2.479   0.255   6.478
 5627TIP3    H116826   2.402   0.214   6.517
 5627TIP3    H216827   2.552   0.199   6.504
 5628TIP3   OH216828   7.835   7.930   6.023
 5628TIP3    H116829   7.910   7.962   5.973
 5628TIP3    H216830   7.833   7.985   6.101
 5629TIP3   OH216831   2.202   0.090   6.239
 5629TIP3    H116832   2.116   0.125   6.258
 5629TIP3    H216833   2.249   0.163   6.197
 5630TIP3   OH216834   1.746   0.978   5.443
 5630TIP3    H116835   1.796   0.962   5.363
 5630TIP3    H216836   1.799   1.039   5.493
 5631TIP3   OH216837   1.478   1.060   6.526
 5631TIP3    H116838   1.517   1.054   6.613
 5631TIP3    H216839   1.540   1.112   6.475
 5632TIP3   OH216840   1.660   1.205   6.384
 5632TIP3    H116841   1.727   1.157   6.336
 5632TIP3    H216842   1.709   1.262   6.443
 5633TIP3   OH216843   1.370   1.076   6.059
 5633TIP3    H116844   1.296   1.090   5.999
 5633TIP3    H216845   1.386   1.162   6.098
 5634TIP3   OH216846   1.637   1.017   6.113
 5634TIP3    H116847   1.543   1.032   6.099
 5634TIP3    H216848   1.680   1.093   6.073
 5635TIP3   OH216849   1.842   1.203   6.025
 5635TIP3    H116850   1.828   1.286   5.979
 5635TIP3    H216851   1.868   1.141   5.956
 5636TIP3   OH216852   1.180   0.822   5.106
 5636TIP3    H116853   1.271   0.836   5.080
 5636TIP3    H216854   1.154   0.742   5.060
 5637TIP3   OH216855   1.895   0.934   5.215
 5637TIP3    H116856   1.888   0.839   5.207
 5637TIP3    H216857   1.851   0.968   5.137
 5638TIP3   OH216858   2.120   1.082   6.398
 5638TIP3    H116859   2.043   1.053   6.350
 5638TIP3    H216860   2.106   1.176   6.410
 5639TIP3   OH216861   3.386   0.454   5.168
 5639TIP3    H116862   3.361   0.544   5.149
 5639TIP3    H216863   3.312   0.402   5.137
 5640TIP3   OH216864   3.395   0.453   5.552
 5640TIP3    H116865   3.418   0.428   5.641
 5640TIP3    H216866   3.342   0.380   5.519
 5641TIP3   OH216867   2.685   0.350   5.922
 5641TIP3    H116868   2.734   0.279   5.966
 5641TIP3    H216869   2.752   0.398   5.873
 5642TIP3   OH216870   3.633   0.758   5.236
 5642TIP3    H116871   3.613   0.689   5.298
 5642TIP3    H216872   3.663   0.831   5.290
 5643TIP3   OH216873   2.665   0.764   5.648
 5643TIP3    H116874   2.648   0.670   5.651
 5643TIP3    H216875   2.759   0.772   5.630
 5644TIP3   OH216876   8.014   7.980   5.440
 5644TIP3    H116877   7.968   8.064   5.448
 5644TIP3    H216878   7.957   7.927   5.384
 5645TIP3   OH216879   2.418   0.266   5.596
 5645TIP3    H116880   2.464   0.185   5.618
 5645TIP3    H216881   2.471   0.306   5.527
 5646TIP3   OH216882   3.289   1.216   5.256
 5646TIP3    H116883   3.329   1.150   5.199
 5646TIP3    H216884   3.279   1.172   5.341
 5647TIP3   OH216885   3.184   0.682   5.600
 5647TIP3    H116886   3.212   0.605   5.551
 5647TIP3    H216887   3.266   0.725   5.626
 5648TIP3   OH216888   3.605   0.178   5.646
 5648TIP3    H116889   3.618   0.087   5.671
 5648TIP3    H216890   3.566   0.174   5.559
 5649TIP3   OH216891   0.078   7.823   5.577
 5649TIP3    H116892   0.067   7.904   5.527
 5649TIP3    H216893  -0.002   7.773   5.561
 5650TIP3   OH216894   0.764   7.973   5.272
 5650TIP3    H116895   0.820   7.923   5.331
 5650TIP3    H216896   0.810   7.971   5.188
 5651TIP3   OH216897   2.550   0.042   5.691
 5651TIP3    H116898   2.637   0.045   5.730
 5651TIP3    H216899   2.558  -0.022   5.619
 5652TIP3   OH216900   3.010   0.245   5.520
 5652TIP3    H116901   3.100   0.213   5.524
 5652TIP3    H216902   2.962   0.178   5.471
 5653TIP3   OH216903   4.233   0.191   5.799
 5653TIP3    H116904   4.161   0.243   5.762
 5653TIP3    H216905   4.293   0.257   5.834
 5654TIP3   OH216906   3.281   0.676   5.033
 5654TIP3    H116907   3.233   0.651   4.955
 5654TIP3    H216908   3.237   0.756   5.064
 5655TIP3   OH216909   3.044   0.599   5.824
 5655TIP3    H116910   2.983   0.662   5.862
 5655TIP3    H216911   3.081   0.644   5.748
 5656TIP3   OH216912  -0.031   8.019   5.772
 5656TIP3    H116913   0.044   8.058   5.818
 5656TIP3    H216914   0.004   7.938   5.736
 5657TIP3   OH216915   2.870   0.789   5.929
 5657TIP3    H116916   2.847   0.874   5.890
 5657TIP3    H216917   2.794   0.766   5.982
 5658TIP3   OH216918   2.252   0.487   5.170
 5658TIP3    H116919   2.226   0.522   5.084
 5658TIP3    H216920   2.306   0.556   5.208
 5659TIP3   OH216921   3.697   1.003   5.399
 5659TIP3    H116922   3.610   0.991   5.439
 5659TIP3    H216923   3.691   1.087   5.354
 5660TIP3   OH216924   3.403   1.048   5.070
 5660TIP3    H116925   3.448   0.964   5.056
 5660TIP3    H216926   3.462   1.113   5.031
 5661TIP3   OH216927   3.543   0.830   4.985
 5661TIP3    H116928   3.491   0.755   4.955
 5661TIP3    H216929   3.584   0.799   5.066
 5662TIP3   OH216930   3.925   0.910   5.741
 5662TIP3    H116931   3.913   0.833   5.685
 5662TIP3    H216932   3.907   0.985   5.684
 5663TIP3   OH216933   3.218   0.311   4.999
 5663TIP3    H116934   3.135   0.358   4.988
 5663TIP3    H216935   3.254   0.307   4.910
 5664TIP3   OH216936   3.176   0.092   4.715
 5664TIP3    H116937   3.245   0.142   4.758
 5664TIP3    H216938   3.222   0.019   4.674
 5665TIP3   OH216939   4.121   0.557   5.589
 5665TIP3    H116940   4.038   0.603   5.594
 5665TIP3    H216941   4.153   0.575   5.501
 5666TIP3   OH216942   3.564   0.390   4.972
 5666TIP3    H116943   3.508   0.412   5.046
 5666TIP3    H216944   3.649   0.370   5.012
 5667TIP3   OH216945   3.796   0.429   5.891
 5667TIP3    H116946   3.793   0.510   5.942
 5667TIP3    H216947   3.712   0.426   5.846
 5668TIP3   OH216948   2.926   0.802   5.533
 5668TIP3    H116949   2.898   0.767   5.449
 5668TIP3    H216950   3.011   0.760   5.549
 5669TIP3   OH216951   2.936   0.348   5.760
 5669TIP3    H116952   2.958   0.319   5.671
 5669TIP3    H216953   2.975   0.435   5.767
 5670TIP3   OH216954   3.458   0.995   5.523
 5670TIP3    H116955   3.448   1.072   5.578
 5670TIP3    H216956   3.442   0.921   5.581
 5671TIP3   OH216957   3.071   0.911   6.070
 5671TIP3    H116958   3.014   0.972   6.117
 5671TIP3    H216959   3.011   0.856   6.020
 5672TIP3   OH216960   3.409   0.244   4.796
 5672TIP3    H116961   3.460   0.305   4.847
 5672TIP3    H216962   3.433   0.262   4.705
 5673TIP3   OH216963   2.823   0.468   6.181
 5673TIP3    H116964   2.831   0.555   6.221
 5673TIP3    H216965   2.729   0.450   6.181
 5674TIP3   OH216966   3.156   0.918   5.072
 5674TIP3    H116967   3.231   0.977   5.083
 5674TIP3    H216968   3.087   0.973   5.035
 5675TIP3   OH216969   2.868   1.075   6.160
 5675TIP3    H116970   2.833   1.077   6.070
 5675TIP3    H216971   2.792   1.051   6.214
 5676TIP3   OH216972   2.681   0.203   5.157
 5676TIP3    H116973   2.674   0.289   5.199
 5676TIP3    H216974   2.612   0.151   5.198
 5677TIP3   OH216975   3.723   0.853   4.395
 5677TIP3    H116976   3.728   0.947   4.381
 5677TIP3    H216977   3.813   0.822   4.384
 5678TIP3   OH216978   2.443   0.607   6.100
 5678TIP3    H116979   2.377   0.594   6.033
 5678TIP3    H216980   2.483   0.521   6.112
 5679TIP3   OH216981   2.298   0.805   5.737
 5679TIP3    H116982   2.393   0.805   5.725
 5679TIP3    H216983   2.279   0.888   5.781
 5680TIP3   OH216984   4.161   1.258   5.794
 5680TIP3    H116985   4.162   1.163   5.806
 5680TIP3    H216986   4.081   1.286   5.837
 5681TIP3   OH216987   3.263   1.041   5.926
 5681TIP3    H116988   3.265   1.131   5.956
 5681TIP3    H216989   3.195   0.999   5.978
 5682TIP3   OH216990   3.035   1.176   4.870
 5682TIP3    H116991   2.984   1.146   4.794
 5682TIP3    H216992   2.985   1.251   4.904
 5683TIP3   OH216993   2.470   1.016   5.265
 5683TIP3    H116994   2.513   1.007   5.350
 5683TIP3    H216995   2.424   0.933   5.253
 5684TIP3   OH216996   3.235   1.074   4.516
 5684TIP3    H116997   3.289   1.005   4.478
 5684TIP3    H216998   3.266   1.082   4.606
 5685TIP3   OH216999   3.285   1.118   4.787
 5685TIP3    H117000   3.197   1.131   4.823
 5685TIP3    H217001   3.333   1.073   4.856
 5686TIP3   OH217002   4.048   0.370   6.067
 5686TIP3    H117003   3.972   0.408   6.022
 5686TIP3    H217004   4.038   0.275   6.056
 5687TIP3   OH217005   2.646   0.792   6.084
 5687TIP3    H117006   2.693   0.786   6.168
 5687TIP3    H217007   2.575   0.729   6.093
 5688TIP3   OH217008   3.830   0.173   6.012
 5688TIP3    H117009   3.793   0.203   6.095
 5688TIP3    H217010   3.810   0.244   5.950
 5689TIP3   OH217011   3.487   0.281   4.539
 5689TIP3    H117012   3.446   0.263   4.455
 5689TIP3    H217013   3.563   0.335   4.518
 5690TIP3   OH217014   3.006   0.136   5.916
 5690TIP3    H117015   2.947   0.152   5.990
 5690TIP3    H217016   2.993   0.211   5.858
 5691TIP3   OH217017   2.869   0.017   5.412
 5691TIP3    H117018   2.773   0.017   5.421
 5691TIP3    H217019   2.884  -0.008   5.321
 5692TIP3   OH217020   3.351   0.116   5.137
 5692TIP3    H117021   3.302   0.185   5.093
 5692TIP3    H217022   3.415   0.086   5.073
 5693TIP3   OH217023   3.543   0.412   6.202
 5693TIP3    H117024   3.514   0.336   6.253
 5693TIP3    H217025   3.635   0.423   6.226
 5694TIP3   OH217026   3.493   0.176   5.393
 5694TIP3    H117027   3.435   0.222   5.332
 5694TIP3    H217028   3.519   0.097   5.346
 5695TIP3   OH217029   2.809   0.168   6.110
 5695TIP3    H117030   2.779   0.244   6.160
 5695TIP3    H217031   2.753   0.096   6.139
 5696TIP3   OH217032   8.105   7.792   5.232
 5696TIP3    H117033   8.117   7.788   5.137
 5696TIP3    H217034   8.013   7.819   5.243
 5697TIP3   OH217035   3.523   0.381   5.799
 5697TIP3    H117036   3.559   0.314   5.740
 5697TIP3    H217037   3.494   0.332   5.875
 5698TIP3   OH217038   8.271   7.901   5.457
 5698TIP3    H117039   8.184   7.939   5.452
 5698TIP3    H217040   8.273   7.836   5.387
 5699TIP3   OH217041   0.076   7.922   5.164
 5699TIP3    H117042   0.160   7.920   5.119
 5699TIP3    H217043   0.011   7.920   5.094
 5700TIP3   OH217044   8.410   7.899   4.936
 5700TIP3    H117045   8.328   7.900   4.887
 5700TIP3    H217046   8.470   7.950   4.883
 5701TIP3   OH217047   3.858   1.607   5.889
 5701TIP3    H117048   3.854   1.631   5.797
 5701TIP3    H217049   3.934   1.655   5.922
 5702TIP3   OH217050   2.813   0.717   6.313
 5702TIP3    H117051   2.892   0.748   6.358
 5702TIP3    H217052   2.745   0.719   6.380
 5703TIP3   OH217053   3.267   0.165   5.570
 5703TIP3    H117054   3.351   0.143   5.530
 5703TIP3    H217055   3.273   0.132   5.660
 5704TIP3   OH217056   3.276   0.097   5.832
 5704TIP3    H117057   3.186   0.095   5.863
 5704TIP3    H217058   3.324   0.145   5.900
 5705TIP3   OH217059   2.986   0.456   4.957
 5705TIP3    H117060   2.917   0.391   4.942
 5705TIP3    H217061   2.969   0.489   5.046
 5706TIP3   OH217062   3.885   0.693   5.575
 5706TIP3    H117063   3.909   0.744   5.497
 5706TIP3    H217064   3.802   0.651   5.552
 5707TIP3   OH217065   0.589   7.856   4.772
 5707TIP3    H117066   0.530   7.802   4.824
 5707TIP3    H217067   0.625   7.919   4.835
 5708TIP3   OH217068   3.394   0.783   5.945
 5708TIP3    H117069   3.411   0.757   6.036
 5708TIP3    H217070   3.346   0.865   5.953
 5709TIP3   OH217071   3.524   0.036   4.936
 5709TIP3    H117072   3.619   0.046   4.944
 5709TIP3    H217073   3.496   0.110   4.883
 5710TIP3   OH217074   2.678   0.491   5.634
 5710TIP3    H117075   2.665   0.491   5.539
 5710TIP3    H217076   2.728   0.411   5.651
 5711TIP3   OH217077   3.128   0.606   4.777
 5711TIP3    H117078   3.084   0.691   4.779
 5711TIP3    H217079   3.076   0.551   4.835
 5712TIP3   OH217080   2.563   0.383   6.234
 5712TIP3    H117081   2.565   0.374   6.330
 5712TIP3    H217082   2.485   0.336   6.207
 5713TIP3   OH217083   3.291   0.517   6.261
 5713TIP3    H117084   3.226   0.467   6.212
 5713TIP3    H217085   3.375   0.491   6.224
 5714TIP3   OH217086   3.544   1.044   5.841
 5714TIP3    H117087   3.450   1.033   5.854
 5714TIP3    H217088   3.574   1.091   5.919
 5715TIP3   OH217089   3.955   0.109   4.737
 5715TIP3    H117090   3.898   0.056   4.681
 5715TIP3    H217091   3.943   0.199   4.706
 5716TIP3   OH217092   4.175   0.967   5.829
 5716TIP3    H117093   4.079   0.963   5.825
 5716TIP3    H217094   4.204   0.938   5.743
 5717TIP3   OH217095   3.660   0.926   4.663
 5717TIP3    H117096   3.629   0.859   4.724
 5717TIP3    H217097   3.670   0.880   4.579
 5718TIP3   OH217098   3.652   0.556   5.494
 5718TIP3    H117099   3.560   0.533   5.509
 5718TIP3    H217100   3.689   0.480   5.449
 5719TIP3   OH217101   2.788   0.787   5.270
 5719TIP3    H117102   2.753   0.851   5.209
 5719TIP3    H217103   2.719   0.721   5.277
 5720TIP3   OH217104   2.338   0.087   4.957
 5720TIP3    H117105   2.385   0.169   4.971
 5720TIP3    H217106   2.265   0.090   5.018
 5721TIP3   OH217107   2.917   0.550   5.199
 5721TIP3    H117108   2.898   0.642   5.221
 5721TIP3    H217109   2.847   0.501   5.242
 5722TIP3   OH217110   3.043   1.138   5.720
 5722TIP3    H117111   3.091   1.202   5.667
 5722TIP3    H217112   3.111   1.098   5.774
 5723TIP3   OH217113   2.691   1.021   5.098
 5723TIP3    H117114   2.609   1.028   5.147
 5723TIP3    H217115   2.728   1.109   5.100
 5724TIP3   OH217116   3.438   0.760   5.679
 5724TIP3    H117117   3.427   0.762   5.774
 5724TIP3    H217118   3.514   0.703   5.665
 5725TIP3   OH217119   3.415   0.656   4.564
 5725TIP3    H117120   3.468   0.632   4.640
 5725TIP3    H217121   3.326   0.629   4.587
 5726TIP3   OH217122   3.686   1.292   5.728
 5726TIP3    H117123   3.610   1.234   5.729
 5726TIP3    H217124   3.668   1.355   5.658
 5727TIP3   OH217125   3.751   1.130   4.380
 5727TIP3    H117126   3.791   1.200   4.328
 5727TIP3    H217127   3.672   1.170   4.416
 5728TIP3   OH217128   3.579   0.584   4.773
 5728TIP3    H117129   3.563   0.523   4.846
 5728TIP3    H217130   3.674   0.584   4.763
 5729TIP3   OH217131   2.512   0.997   5.879
 5729TIP3    H117132   2.548   0.912   5.905
 5729TIP3    H217133   2.502   1.045   5.961
 5730TIP3   OH217134   2.779   0.632   4.563
 5730TIP3    H117135   2.790   0.542   4.535
 5730TIP3    H217136   2.759   0.627   4.656
 5731TIP3   OH217137   2.723   0.642   4.832
 5731TIP3    H117138   2.782   0.606   4.898
 5731TIP3    H217139   2.729   0.737   4.843
 5732TIP3   OH217140   2.431   0.331   5.020
 5732TIP3    H117141   2.395   0.367   5.101
 5732TIP3    H217142   2.468   0.407   4.975
 5733TIP3   OH217143   2.993   0.842   4.782
 5733TIP3    H117144   2.907   0.858   4.821
 5733TIP3    H217145   3.002   0.910   4.715
 5734TIP3   OH217146   0.375   7.901   5.157
 5734TIP3    H117147   0.420   7.985   5.155
 5734TIP3    H217148   0.349   7.889   5.249
 5735TIP3   OH217149   3.461   0.223   6.010
 5735TIP3    H117150   3.462   0.291   6.078
 5735TIP3    H217151   3.512   0.151   6.046
 5736TIP3   OH217152   2.740   0.915   4.852
 5736TIP3    H117153   2.707   0.982   4.791
 5736TIP3    H217154   2.720   0.950   4.938
 5737TIP3   OH217155   3.741   0.315   5.375
 5737TIP3    H117156   3.660   0.268   5.394
 5737TIP3    H217157   3.809   0.268   5.423
 5738TIP3   OH217158   2.455   0.549   4.832
 5738TIP3    H117159   2.527   0.611   4.847
 5738TIP3    H217160   2.492   0.484   4.772
 5739TIP3   OH217161   8.061   7.832   4.953
 5739TIP3    H117162   8.055   7.927   4.954
 5739TIP3    H217163   7.971   7.802   4.965
 5740TIP3   OH217164   3.710   1.274   5.318
 5740TIP3    H117165   3.664   1.320   5.248
 5740TIP3    H217166   3.802   1.290   5.301
 5741TIP3   OH217167   2.321   0.781   5.228
 5741TIP3    H117168   2.248   0.791   5.289
 5741TIP3    H217169   2.286   0.810   5.143
 5742TIP3   OH217170   2.473   1.278   6.309
 5742TIP3    H117171   2.557   1.294   6.351
 5742TIP3    H217172   2.458   1.184   6.319
 5743TIP3   OH217173   2.968   1.254   6.348
 5743TIP3    H117174   3.060   1.230   6.351
 5743TIP3    H217175   2.931   1.198   6.279
 5744TIP3   OH217176   2.942   0.833   4.473
 5744TIP3    H117177   2.884   0.767   4.510
 5744TIP3    H217178   3.018   0.784   4.442
 5745TIP3   OH217179   3.602   1.168   6.079
 5745TIP3    H117180   3.593   1.100   6.146
 5745TIP3    H217181   3.676   1.221   6.108
 5746TIP3   OH217182   3.378   0.876   4.388
 5746TIP3    H117183   3.415   0.811   4.447
 5746TIP3    H217184   3.433   0.872   4.310
 5747TIP3   OH217185   2.608   0.712   6.500
 5747TIP3    H117186   2.628   0.619   6.505
 5747TIP3    H217187   2.523   0.716   6.456
 5748TIP3   OH217188   2.590   0.355   4.696
 5748TIP3    H117189   2.637   0.323   4.774
 5748TIP3    H217190   2.658   0.360   4.628
 5749TIP3   OH217191   3.220   0.792   6.273
 5749TIP3    H117192   3.174   0.813   6.191
 5749TIP3    H217193   3.246   0.700   6.263
 5750TIP3   OH217194   3.107   0.555   4.507
 5750TIP3    H117195   3.103   0.569   4.601
 5750TIP3    H217196   3.106   0.460   4.497
 5751TIP3   OH217197   3.711   0.804   5.884
 5751TIP3    H117198   3.784   0.847   5.840
 5751TIP3    H217199   3.637   0.863   5.869
 5752TIP3   OH217200   2.716   0.459   6.494
 5752TIP3    H117201   2.759   0.376   6.476
 5752TIP3    H217202   2.751   0.486   6.579
 5753TIP3   OH217203   2.793   0.265   4.914
 5753TIP3    H117204   2.752   0.239   4.997
 5753TIP3    H217205   2.826   0.183   4.877
 5754TIP3   OH217206   3.074   0.350   6.158
 5754TIP3    H117207   2.988   0.392   6.153
 5754TIP3    H217208   3.117   0.373   6.076
 5755TIP3   OH217209   2.895   0.047   4.764
 5755TIP3    H117210   2.864   0.059   4.674
 5755TIP3    H217211   2.990   0.056   4.758
 5756TIP3   OH217212   3.586   0.728   6.281
 5756TIP3    H117213   3.654   0.693   6.224
 5756TIP3    H217214   3.571   0.659   6.346
 5757TIP3   OH217215   3.716   0.383   4.418
 5757TIP3    H117216   3.696   0.338   4.336
 5757TIP3    H217217   3.686   0.473   4.405
 5758TIP3   OH217218   3.087   0.115   6.286
 5758TIP3    H117219   3.065   0.070   6.204
 5758TIP3    H217220   3.087   0.208   6.263
 5759TIP3   OH217221   3.226   0.443   5.954
 5759TIP3    H117222   3.304   0.446   5.899
 5759TIP3    H217223   3.163   0.500   5.910
 5760TIP3   OH217224   3.792   0.404   6.314
 5760TIP3    H117225   3.824   0.348   6.385
 5760TIP3    H217226   3.867   0.456   6.288
 5761TIP3   OH217227   3.841   0.657   6.065
 5761TIP3    H117228   3.780   0.708   6.012
 5761TIP3    H217229   3.928   0.678   6.029
 5762TIP3   OH217230   3.447   0.187   6.309
 5762TIP3    H117231   3.491   0.152   6.386
 5762TIP3    H217232   3.354   0.165   6.322
 5763TIP3   OH217233   2.709   1.124   4.665
 5763TIP3    H117234   2.802   1.109   4.645
 5763TIP3    H217235   2.675   1.168   4.588
 5764TIP3   OH217236   2.186   0.503   4.867
 5764TIP3    H117237   2.279   0.524   4.861
 5764TIP3    H217238   2.180   0.412   4.837
 5765TIP3   OH217239   2.101   1.105   5.292
 5765TIP3    H117240   2.035   1.046   5.254
 5765TIP3    H217241   2.145   1.052   5.358
 5766TIP3   OH217242   2.229   0.963   5.488
 5766TIP3    H117243   2.219   0.884   5.541
 5766TIP3    H217244   2.279   1.023   5.543
 5767TIP3   OH217245   3.963   1.362   5.282
 5767TIP3    H117246   3.988   1.392   5.369
 5767TIP3    H217247   4.029   1.400   5.223
 5768TIP3   OH217248   3.990   1.376   5.564
 5768TIP3    H117249   3.943   1.293   5.559
 5768TIP3    H217250   4.066   1.358   5.619
 5769TIP3   OH217251   4.041   1.061   6.140
 5769TIP3    H117252   3.968   1.068   6.202
 5769TIP3    H217253   4.082   1.147   6.140
 5770TIP3   OH217254   3.858   0.569   4.753
 5770TIP3    H117255   3.920   0.635   4.723
 5770TIP3    H217256   3.898   0.532   4.832
 5771TIP3   OH217257   3.980   0.442   4.959
 5771TIP3    H117258   3.914   0.403   5.016
 5771TIP3    H217259   4.044   0.481   5.019
 5772TIP3   OH217260   4.040   0.833   5.390
 5772TIP3    H117261   4.089   0.764   5.345
 5772TIP3    H217262   4.034   0.903   5.326
 5773TIP3   OH217263   3.863   1.130   5.585
 5773TIP3    H117264   3.794   1.172   5.636
 5773TIP3    H217265   3.816   1.084   5.515
 5774TIP3   OH217266   3.910   0.345   4.603
 5774TIP3    H117267   3.844   0.351   4.534
 5774TIP3    H217268   3.891   0.418   4.662
 5775TIP3   OH217269   3.782   0.002   4.543
 5775TIP3    H117270   3.764   0.086   4.501
 5775TIP3    H217271   3.727  -0.061   4.496
 5776TIP3   OH217272   3.793   0.308   5.103
 5776TIP3    H117273   3.794   0.215   5.080
 5776TIP3    H217274   3.779   0.309   5.198
 5777TIP3   OH217275   2.420   0.359   5.855
 5777TIP3    H117276   2.414   0.334   5.763
 5777TIP3    H217277   2.514   0.366   5.871
 5778TIP3   OH217278   4.086   0.721   5.960
 5778TIP3    H117279   4.155   0.655   5.950
 5778TIP3    H217280   4.108   0.788   5.896
 5779TIP3   OH217281   4.264   0.515   5.977
 5779TIP3    H117282   4.189   0.466   6.011
 5779TIP3    H217283   4.340   0.459   5.994
 5780TIP3   OH217284   3.796   0.056   4.973
 5780TIP3    H117285   3.822  -0.021   5.024
 5780TIP3    H217286   3.858   0.057   4.900
 5781TIP3   OH217287   3.951   0.188   5.503
 5781TIP3    H117288   4.033   0.210   5.458
 5781TIP3    H217289   3.962   0.223   5.591
 5782TIP3   OH217290   4.015   0.341   5.727
 5782TIP3    H117291   3.939   0.373   5.774
 5782TIP3    H217292   4.050   0.418   5.681
 5783TIP3   OH217293   2.637   0.038   6.520
 5783TIP3    H117294   2.723   0.014   6.556
 5783TIP3    H217295   2.576  -0.024   6.559
 5784TIP3   OH217296   2.402   0.025   5.926
 5784TIP3    H117297   2.444   0.024   5.840
 5784TIP3    H217298   2.422   0.112   5.961
 5785TIP3   OH217299   3.546   1.234   4.934
 5785TIP3    H117300   3.593   1.218   4.853
 5785TIP3    H217301   3.603   1.292   4.985
 5786TIP3   OH217302   2.650   1.017   6.318
 5786TIP3    H117303   2.557   0.998   6.308
 5786TIP3    H217304   2.660   1.044   6.409
 5787TIP3   OH217305   2.818   1.059   5.877
 5787TIP3    H117306   2.738   1.070   5.825
 5787TIP3    H217307   2.888   1.093   5.821
 5788TIP3   OH217308   3.272   1.307   6.005
 5788TIP3    H117309   3.311   1.303   6.093
 5788TIP3    H217310   3.335   1.357   5.954
 5789TIP3   OH217311   3.447   1.465   5.864
 5789TIP3    H117312   3.514   1.410   5.823
 5789TIP3    H217313   3.496   1.521   5.925
 5790TIP3   OH217314   2.527   1.363   5.882
 5790TIP3    H117315   2.434   1.371   5.861
 5790TIP3    H217316   2.528   1.341   5.976
 5791TIP3   OH217317   3.164   1.332   5.555
 5791TIP3    H117318   3.098   1.348   5.488
 5791TIP3    H217319   3.169   1.415   5.603
 5792TIP3   OH217320   3.433   1.267   5.603
 5792TIP3    H117321   3.340   1.283   5.583
 5792TIP3    H217322   3.479   1.337   5.558
 5793TIP3   OH217323   3.633   1.456   5.511
 5793TIP3    H117324   3.622   1.539   5.466
 5793TIP3    H217325   3.663   1.395   5.443
 5794TIP3   OH217326   2.418   1.115   5.640
 5794TIP3    H117327   2.442   1.089   5.729
 5794TIP3    H217328   2.482   1.071   5.584
 5795TIP3   OH217329   2.608   0.985   5.501
 5795TIP3    H117330   2.618   0.901   5.545
 5795TIP3    H217331   2.698   1.016   5.488
 5796TIP3   OH217332   2.883   1.081   5.494
 5796TIP3    H117333   2.901   0.991   5.468
 5796TIP3    H217334   2.933   1.093   5.574
 5797TIP3   OH217335   2.198   0.887   5.014
 5797TIP3    H117336   2.113   0.852   4.985
 5797TIP3    H217337   2.191   0.982   5.003
 5798TIP3   OH217338   2.974   1.069   4.605
 5798TIP3    H117339   3.061   1.094   4.573
 5798TIP3    H217340   2.948   0.996   4.549
 5799TIP3   OH217341   3.690   1.191   4.704
 5799TIP3    H117342   3.685   1.096   4.696
 5799TIP3    H217343   3.647   1.224   4.625
 5800TIP3   OH217344   2.277   0.911   4.667
 5800TIP3    H117345   2.271   0.925   4.761
 5800TIP3    H217346   2.362   0.868   4.655
 5801TIP3   OH217347   3.913   1.338   5.890
 5801TIP3    H117348   3.837   1.305   5.841
 5801TIP3    H217349   3.897   1.432   5.898
 5802TIP3   OH217350   5.180   0.708   4.656
 5802TIP3    H117351   5.157   0.799   4.638
 5802TIP3    H217352   5.107   0.658   4.620
 5803TIP3   OH217353   5.187   0.709   5.040
 5803TIP3    H117354   5.216   0.687   5.128
 5803TIP3    H217355   5.140   0.631   5.010
 5804TIP3   OH217356   4.481   0.604   5.403
 5804TIP3    H117357   4.510   0.533   5.461
 5804TIP3    H217358   4.559   0.658   5.391
 5805TIP3   OH217359   5.428   1.014   4.724
 5805TIP3    H117360   5.412   0.947   4.790
 5805TIP3    H217361   5.458   1.090   4.773
 5806TIP3   OH217362   4.456   1.013   5.125
 5806TIP3    H117363   4.446   0.918   5.127
 5806TIP3    H217364   4.551   1.026   5.119
 5807TIP3   OH217365   4.148   0.229   4.923
 5807TIP3    H117366   4.096   0.309   4.938
 5807TIP3    H217367   4.091   0.173   4.871
 5808TIP3   OH217368   4.214   0.514   5.086
 5808TIP3    H117369   4.252   0.432   5.116
 5808TIP3    H217370   4.277   0.548   5.023
 5809TIP3   OH217371   5.078   1.473   4.737
 5809TIP3    H117372   5.120   1.403   4.687
 5809TIP3    H217373   5.069   1.436   4.825
 5810TIP3   OH217374   4.983   0.935   5.087
 5810TIP3    H117375   5.018   0.860   5.040
 5810TIP3    H217376   5.060   0.985   5.114
 5811TIP3   OH217377   5.400   0.434   5.132
 5811TIP3    H117378   5.416   0.344   5.160
 5811TIP3    H217379   5.362   0.426   5.045
 5812TIP3   OH217380   4.718   0.055   5.049
 5812TIP3    H117381   4.698   0.144   5.019
 5812TIP3    H217382   4.636   0.008   5.039
 5813TIP3   OH217383   5.390   0.208   4.757
 5813TIP3    H117384   5.448   0.164   4.820
 5813TIP3    H217385   5.442   0.214   4.677
 5814TIP3   OH217386   4.345   0.295   5.180
 5814TIP3    H117387   4.434   0.302   5.216
 5814TIP3    H217388   4.354   0.234   5.107
 5815TIP3   OH217389   4.802   0.496   4.989
 5815TIP3    H117390   4.894   0.474   5.003
 5815TIP3    H217391   4.762   0.413   4.962
 5816TIP3   OH217392   6.026   0.446   5.284
 5816TIP3    H117393   5.954   0.499   5.249
 5816TIP3    H217394   6.091   0.511   5.312
 5817TIP3   OH217395   5.071   0.931   4.523
 5817TIP3    H117396   5.032   0.916   4.438
 5817TIP3    H217397   5.030   1.011   4.555
 5818TIP3   OH217398   4.837   0.857   5.311
 5818TIP3    H117399   4.776   0.922   5.347
 5818TIP3    H217400   4.877   0.902   5.237
 5819TIP3   OH217401   4.603   0.265   5.248
 5819TIP3    H117402   4.668   0.311   5.300
 5819TIP3    H217403   4.626   0.172   5.257
 5820TIP3   OH217404   4.663   1.054   5.410
 5820TIP3    H117405   4.642   1.139   5.372
 5820TIP3    H217406   4.587   1.032   5.464
 5821TIP3   OH217407   4.055   0.743   4.645
 5821TIP3    H117408   4.014   0.768   4.562
 5821TIP3    H217409   4.087   0.826   4.682
 5822TIP3   OH217410   5.494   1.258   4.884
 5822TIP3    H117411   5.408   1.247   4.924
 5822TIP3    H217412   5.489   1.343   4.840
 5823TIP3   OH217413   5.198   1.299   4.555
 5823TIP3    H117414   5.244   1.216   4.538
 5823TIP3    H217415   5.255   1.366   4.519
 5824TIP3   OH217416   5.341   1.082   4.471
 5824TIP3    H117417   5.300   1.005   4.433
 5824TIP3    H217418   5.379   1.052   4.554
 5825TIP3   OH217419   5.720   1.163   5.231
 5825TIP3    H117420   5.708   1.089   5.171
 5825TIP3    H217421   5.701   1.240   5.177
 5826TIP3   OH217422   5.013   0.567   4.484
 5826TIP3    H117423   4.933   0.617   4.469
 5826TIP3    H217424   5.055   0.563   4.399
 5827TIP3   OH217425   4.973   0.346   4.203
 5827TIP3    H117426   5.040   0.398   4.247
 5827TIP3    H217427   5.022   0.279   4.154
 5828TIP3   OH217428   5.917   0.813   5.076
 5828TIP3    H117429   5.834   0.860   5.079
 5828TIP3    H217430   5.951   0.830   4.988
 5829TIP3   OH217431   5.360   0.645   4.460
 5829TIP3    H117432   5.304   0.668   4.535
 5829TIP3    H217433   5.445   0.625   4.499
 5830TIP3   OH217434   5.588   0.690   5.375
 5830TIP3    H117435   5.583   0.780   5.407
 5830TIP3    H217436   5.505   0.675   5.331
 5831TIP3   OH217437   4.594   0.639   4.876
 5831TIP3    H117438   4.554   0.582   4.810
 5831TIP3    H217439   4.669   0.589   4.908
 5832TIP3   OH217440   4.724   1.052   5.023
 5832TIP3    H117441   4.703   1.018   4.936
 5832TIP3    H217442   4.811   1.017   5.042
 5833TIP3   OH217443   4.734   0.610   5.238
 5833TIP3    H117444   4.760   0.583   5.149
 5833TIP3    H217445   4.774   0.696   5.250
 5834TIP3   OH217446   5.257   1.251   5.009
 5834TIP3    H117447   5.242   1.332   5.058
 5834TIP3    H217448   5.238   1.181   5.072
 5835TIP3   OH217449   4.866   1.166   5.558
 5835TIP3    H117450   4.810   1.229   5.602
 5835TIP3    H217451   4.806   1.113   5.505
 5836TIP3   OH217452   5.202   0.503   4.283
 5836TIP3    H117453   5.256   0.563   4.334
 5836TIP3    H217454   5.227   0.520   4.192
 5837TIP3   OH217455   4.614   0.733   5.657
 5837TIP3    H117456   4.622   0.818   5.700
 5837TIP3    H217457   4.522   0.708   5.669
 5838TIP3   OH217458   4.949   1.180   4.561
 5838TIP3    H117459   5.030   1.230   4.569
 5838TIP3    H217460   4.887   1.240   4.520
 5839TIP3   OH217461   4.660   1.331   5.637
 5839TIP3    H117462   4.626   1.336   5.548
 5839TIP3    H217463   4.583   1.312   5.691
 5840TIP3   OH217464   4.459   0.483   4.676
 5840TIP3    H117465   4.394   0.530   4.625
 5840TIP3    H217466   4.420   0.397   4.693
 5841TIP3   OH217467   5.520   1.109   3.882
 5841TIP3    H117468   5.524   1.204   3.868
 5841TIP3    H217469   5.610   1.079   3.871
 5842TIP3   OH217470   4.240   0.867   5.588
 5842TIP3    H117471   4.173   0.850   5.522
 5842TIP3    H217472   4.277   0.781   5.607
 5843TIP3   OH217473   4.098   1.063   5.220
 5843TIP3    H117474   4.193   1.054   5.209
 5843TIP3    H217475   4.087   1.139   5.277
 5844TIP3   OH217476   5.959   1.515   5.283
 5844TIP3    H117477   5.958   1.420   5.293
 5844TIP3    H217478   5.878   1.544   5.325
 5845TIP3   OH217479   5.064   1.292   5.414
 5845TIP3    H117480   5.067   1.384   5.441
 5845TIP3    H217481   4.995   1.253   5.467
 5846TIP3   OH217482   4.829   1.426   4.364
 5846TIP3    H117483   4.783   1.409   4.282
 5846TIP3    H217484   4.797   1.512   4.392
 5847TIP3   OH217485   4.265   1.273   4.752
 5847TIP3    H117486   4.312   1.268   4.835
 5847TIP3    H217487   4.214   1.192   4.749
 5848TIP3   OH217488   5.029   1.328   4.003
 5848TIP3    H117489   5.085   1.260   3.966
 5848TIP3    H217490   5.061   1.340   4.092
 5849TIP3   OH217491   5.079   1.377   4.273
 5849TIP3    H117492   4.992   1.387   4.312
 5849TIP3    H217493   5.133   1.342   4.344
 5850TIP3   OH217494   5.832   0.644   5.553
 5850TIP3    H117495   5.760   0.656   5.492
 5850TIP3    H217496   5.839   0.549   5.563
 5851TIP3   OH217497   4.445   1.049   5.572
 5851TIP3    H117498   4.493   1.038   5.654
 5851TIP3    H217499   4.371   0.989   5.579
 5852TIP3   OH217500   5.634   0.430   5.494
 5852TIP3    H117501   5.584   0.441   5.575
 5852TIP3    H217502   5.603   0.500   5.437
 5853TIP3   OH217503   5.282   0.538   4.027
 5853TIP3    H117504   5.241   0.520   3.942
 5853TIP3    H217505   5.359   0.590   4.006
 5854TIP3   OH217506   4.796   0.398   5.398
 5854TIP3    H117507   4.736   0.412   5.471
 5854TIP3    H217508   4.783   0.473   5.341
 5855TIP3   OH217509   4.658   0.277   4.899
 5855TIP3    H117510   4.566   0.258   4.914
 5855TIP3    H217511   4.676   0.247   4.810
 5856TIP3   OH217512   5.145   0.368   4.621
 5856TIP3    H117513   5.098   0.439   4.577
 5856TIP3    H217514   5.211   0.340   4.557
 5857TIP3   OH217515   5.336   0.666   5.696
 5857TIP3    H117516   5.303   0.590   5.745
 5857TIP3    H217517   5.427   0.675   5.726
 5858TIP3   OH217518   5.288   0.429   4.879
 5858TIP3    H117519   5.234   0.478   4.817
 5858TIP3    H217520   5.311   0.349   4.832
 5859TIP3   OH217521   4.598   0.424   5.589
 5859TIP3    H117522   4.610   0.488   5.659
 5859TIP3    H217523   4.577   0.342   5.635
 5860TIP3   OH217524   4.228   0.034   4.723
 5860TIP3    H117525   4.246   0.034   4.629
 5860TIP3    H217526   4.135   0.056   4.730
 5861TIP3   OH217527   5.319   0.637   5.285
 5861TIP3    H117528   5.353   0.571   5.225
 5861TIP3    H217529   5.290   0.587   5.362
 5862TIP3   OH217530   4.405   0.151   4.941
 5862TIP3    H117531   4.318   0.189   4.933
 5862TIP3    H217532   4.403   0.073   4.886
 5863TIP3   OH217533   4.701   0.172   4.652
 5863TIP3    H117534   4.791   0.161   4.619
 5863TIP3    H217535   4.647   0.163   4.574
 5864TIP3   OH217536   4.537   0.155   4.423
 5864TIP3    H117537   4.462   0.138   4.366
 5864TIP3    H217538   4.598   0.203   4.368
 5865TIP3   OH217539   5.656   1.862   5.377
 5865TIP3    H117540   5.650   1.888   5.285
 5865TIP3    H217541   5.733   1.910   5.410
 5866TIP3   OH217542   4.606   0.975   5.800
 5866TIP3    H117543   4.686   1.004   5.843
 5866TIP3    H217544   4.540   0.975   5.869
 5867TIP3   OH217545   5.059   0.428   5.054
 5867TIP3    H117546   5.142   0.401   5.015
 5867TIP3    H217547   5.063   0.395   5.144
 5868TIP3   OH217548   5.068   0.359   5.314
 5868TIP3    H117549   4.980   0.351   5.349
 5868TIP3    H217550   5.118   0.402   5.384
 5869TIP3   OH217551   4.781   0.713   4.438
 5869TIP3    H117552   4.711   0.649   4.424
 5869TIP3    H217553   4.764   0.748   4.526
 5870TIP3   OH217554   5.681   0.950   5.062
 5870TIP3    H117555   5.707   1.000   4.985
 5870TIP3    H217556   5.598   0.909   5.037
 5871TIP3   OH217557   5.218   0.097   4.260
 5871TIP3    H117558   5.160   0.046   4.318
 5871TIP3    H217559   5.256   0.163   4.317
 5872TIP3   OH217560   5.186   1.036   5.436
 5872TIP3    H117561   5.199   1.018   5.529
 5872TIP3    H217562   5.145   1.122   5.433
 5873TIP3   OH217563   5.320   0.291   4.419
 5873TIP3    H117564   5.415   0.301   4.428
 5873TIP3    H217565   5.293   0.367   4.368
 5874TIP3   OH217566   4.480   0.736   5.110
 5874TIP3    H117567   4.516   0.709   5.026
 5874TIP3    H217568   4.520   0.676   5.173
 5875TIP3   OH217569   4.928   0.864   4.262
 5875TIP3    H117570   4.882   0.948   4.262
 5875TIP3    H217571   4.876   0.809   4.320
 5876TIP3   OH217572   4.358   0.652   5.728
 5876TIP3    H117573   4.374   0.639   5.821
 5876TIP3    H217574   4.285   0.593   5.708
 5877TIP3   OH217575   5.079   0.774   5.747
 5877TIP3    H117576   5.014   0.721   5.700
 5877TIP3    H217577   5.163   0.746   5.712
 5878TIP3   OH217578   5.344   1.284   5.337
 5878TIP3    H117579   5.248   1.287   5.344
 5878TIP3    H217580   5.374   1.340   5.408
 5879TIP3   OH217581   5.749   0.366   4.224
 5879TIP3    H117582   5.693   0.313   4.168
 5879TIP3    H217583   5.738   0.456   4.192
 5880TIP3   OH217584   5.970   1.221   5.316
 5880TIP3    H117585   5.875   1.219   5.308
 5880TIP3    H217586   6.002   1.194   5.230
 5881TIP3   OH217587   5.454   1.183   4.148
 5881TIP3    H117588   5.426   1.115   4.209
 5881TIP3    H217589   5.467   1.136   4.065
 5882TIP3   OH217590   5.448   0.813   4.982
 5882TIP3    H117591   5.355   0.790   4.996
 5882TIP3    H217592   5.484   0.737   4.936
 5883TIP3   OH217593   4.579   1.043   4.737
 5883TIP3    H117594   4.578   1.123   4.683
 5883TIP3    H217595   4.486   1.024   4.752
 5884TIP3   OH217596   4.139   0.346   4.448
 5884TIP3    H117597   4.186   0.428   4.464
 5884TIP3    H217598   4.063   0.349   4.506
 5885TIP3   OH217599   4.709   0.805   4.681
 5885TIP3    H117600   4.678   0.894   4.697
 5885TIP3    H217601   4.676   0.754   4.755
 5886TIP3   OH217602   4.850   1.385   5.205
 5886TIP3    H117603   4.888   1.458   5.156
 5886TIP3    H217604   4.924   1.348   5.253
 5887TIP3   OH217605   4.495   1.283   4.591
 5887TIP3    H117606   4.411   1.289   4.636
 5887TIP3    H217607   4.530   1.372   4.592
 5888TIP3   OH217608   5.232   1.016   5.168
 5888TIP3    H117609   5.221   1.018   5.263
 5888TIP3    H217610   5.311   0.965   5.153
 5889TIP3   OH217611   5.212   0.910   4.052
 5889TIP3    H117612   5.265   0.887   4.128
 5889TIP3    H217613   5.123   0.886   4.077
 5890TIP3   OH217614   5.481   1.549   5.211
 5890TIP3    H117615   5.402   1.495   5.206
 5890TIP3    H217616   5.470   1.615   5.143
 5891TIP3   OH217617   5.547   1.387   3.867
 5891TIP3    H117618   5.587   1.457   3.815
 5891TIP3    H217619   5.468   1.426   3.904
 5892TIP3   OH217620   5.375   0.841   4.263
 5892TIP3    H117621   5.361   0.778   4.335
 5892TIP3    H217622   5.469   0.842   4.250
 5893TIP3   OH217623   4.286   1.245   5.365
 5893TIP3    H117624   4.339   1.173   5.401
 5893TIP3    H217625   4.312   1.322   5.416
 5894TIP3   OH217626   4.575   0.889   4.050
 5894TIP3    H117627   4.588   0.799   4.022
 5894TIP3    H217628   4.554   0.883   4.143
 5895TIP3   OH217629   4.520   0.899   4.322
 5895TIP3    H117630   4.593   0.871   4.378
 5895TIP3    H217631   4.520   0.994   4.327
 5896TIP3   OH217632   4.251   0.591   4.526
 5896TIP3    H117633   4.187   0.633   4.583
 5896TIP3    H217634   4.267   0.655   4.456
 5897TIP3   OH217635   4.785   1.095   4.268
 5897TIP3    H117636   4.700   1.115   4.306
 5897TIP3    H217637   4.805   1.170   4.211
 5898TIP3   OH217638   4.990   0.147   4.643
 5898TIP3    H117639   5.040   0.228   4.638
 5898TIP3    H217640   4.991   0.123   4.736
 5899TIP3   OH217641   5.259   0.474   5.496
 5899TIP3    H117642   5.247   0.535   5.569
 5899TIP3    H217643   5.299   0.397   5.536
 5900TIP3   OH217644   4.531   1.171   4.340
 5900TIP3    H117645   4.503   1.238   4.277
 5900TIP3    H217646   4.517   1.211   4.425
 5901TIP3   OH217647   5.537   0.572   4.863
 5901TIP3    H117648   5.457   0.522   4.883
 5901TIP3    H217649   5.606   0.526   4.910
 5902TIP3   OH217650   4.252   0.794   4.327
 5902TIP3    H117651   4.317   0.863   4.340
 5902TIP3    H217652   4.291   0.736   4.262
 5903TIP3   OH217653   4.192   0.074   4.451
 5903TIP3    H117654   4.187   0.170   4.445
 5903TIP3    H217655   4.102   0.044   4.435
 5904TIP3   OH217656   5.506   1.528   4.804
 5904TIP3    H117657   5.461   1.572   4.733
 5904TIP3    H217658   5.599   1.545   4.788
 5905TIP3   OH217659   4.113   1.011   4.711
 5905TIP3    H117660   4.053   1.040   4.779
 5905TIP3    H217661   4.082   1.054   4.631
 5906TIP3   OH217662   4.285   1.552   5.795
 5906TIP3    H117663   4.367   1.551   5.844
 5906TIP3    H217664   4.261   1.459   5.787
 5907TIP3   OH217665   4.751   1.487   5.853
 5907TIP3    H117666   4.843   1.509   5.844
 5907TIP3    H217667   4.727   1.445   5.771
 5908TIP3   OH217668   4.737   1.091   3.957
 5908TIP3    H117669   4.682   1.024   3.997
 5908TIP3    H217670   4.813   1.043   3.925
 5909TIP3   OH217671   5.400   1.425   5.566
 5909TIP3    H117672   5.391   1.359   5.635
 5909TIP3    H217673   5.473   1.480   5.595
 5910TIP3   OH217674   5.174   1.131   3.873
 5910TIP3    H117675   5.216   1.070   3.933
 5910TIP3    H217676   5.230   1.130   3.795
 5911TIP3   OH217677   4.404   0.961   5.988
 5911TIP3    H117678   4.420   0.867   5.994
 5911TIP3    H217679   4.320   0.968   5.943
 5912TIP3   OH217680   4.388   0.608   4.184
 5912TIP3    H117681   4.441   0.580   4.259
 5912TIP3    H217682   4.450   0.615   4.112
 5913TIP3   OH217683   5.013   1.049   5.762
 5913TIP3    H117684   4.969   1.072   5.680
 5913TIP3    H217685   5.036   0.957   5.752
 5914TIP3   OH217686   4.900   0.811   3.994
 5914TIP3    H117687   4.900   0.826   4.088
 5914TIP3    H217688   4.900   0.716   3.985
 5915TIP3   OH217689   5.515   1.054   5.386
 5915TIP3    H117690   5.586   1.094   5.336
 5915TIP3    H217691   5.439   1.111   5.371
 5916TIP3   OH217692   4.530   0.697   5.975
 5916TIP3    H117693   4.610   0.654   5.947
 5916TIP3    H217694   4.551   0.732   6.061
 5917TIP3   OH217695   4.587   0.517   4.403
 5917TIP3    H117696   4.564   0.481   4.489
 5917TIP3    H217697   4.625   0.443   4.356
 5918TIP3   OH217698   4.863   0.615   5.631
 5918TIP3    H117699   4.779   0.661   5.628
 5918TIP3    H217700   4.907   0.639   5.549
 5919TIP3   OH217701   4.693   0.309   4.249
 5919TIP3    H117702   4.664   0.317   4.159
 5919TIP3    H217703   4.789   0.313   4.244
 5920TIP3   OH217704   5.388   0.984   5.773
 5920TIP3    H117705   5.435   0.943   5.701
 5920TIP3    H217706   5.381   0.915   5.839
 5921TIP3   OH217707   5.510   0.639   3.906
 5921TIP3    H117708   5.492   0.595   3.823
 5921TIP3    H217709   5.481   0.729   3.893
 5922TIP3   OH217710   4.945   0.390   5.749
 5922TIP3    H117711   4.898   0.328   5.693
 5922TIP3    H217712   4.922   0.476   5.713
 5923TIP3   OH217713   5.025   0.700   5.432
 5923TIP3    H117714   5.106   0.708   5.382
 5923TIP3    H217715   4.964   0.760   5.390
 5924TIP3   OH217716   5.657   0.928   5.571
 5924TIP3    H117717   5.580   0.970   5.533
 5924TIP3    H217718   5.726   0.941   5.506
 5925TIP3   OH217719   4.831   0.512   5.982
 5925TIP3    H117720   4.785   0.439   6.023
 5925TIP3    H217721   4.886   0.472   5.915
 5926TIP3   OH217722   5.221   0.443   5.790
 5926TIP3    H117723   5.245   0.414   5.878
 5926TIP3    H217724   5.127   0.428   5.785
 5927TIP3   OH217725   4.503   1.371   4.149
 5927TIP3    H117726   4.597   1.362   4.134
 5927TIP3    H217727   4.472   1.423   4.075
 5928TIP3   OH217728   3.982   0.754   4.363
 5928TIP3    H117729   4.074   0.776   4.351
 5928TIP3    H217730   3.973   0.667   4.324
 5929TIP3   OH217731   3.894   1.362   4.786
 5929TIP3    H117732   3.830   1.304   4.744
 5929TIP3    H217733   3.940   1.306   4.848
 5930TIP3   OH217734   4.032   1.211   4.970
 5930TIP3    H117735   4.018   1.141   5.034
 5930TIP3    H217736   4.084   1.276   5.017
 5931TIP3   OH217737   5.762   1.613   4.770
 5931TIP3    H117738   5.783   1.648   4.856
 5931TIP3    H217739   5.821   1.659   4.710
 5932TIP3   OH217740   5.784   1.634   5.052
 5932TIP3    H117741   5.741   1.549   5.046
 5932TIP3    H217742   5.863   1.617   5.104
 5933TIP3   OH217743   5.844   1.303   5.639
 5933TIP3    H117744   5.767   1.319   5.694
 5933TIP3    H217745   5.886   1.389   5.630
 5934TIP3   OH217746   5.653   0.826   4.239
 5934TIP3    H117747   5.715   0.892   4.208
 5934TIP3    H217748   5.694   0.789   4.318
 5935TIP3   OH217749   5.776   0.699   4.445
 5935TIP3    H117750   5.710   0.662   4.504
 5935TIP3    H217751   5.841   0.737   4.503
 5936TIP3   OH217752   5.836   1.088   4.877
 5936TIP3    H117753   5.885   1.020   4.831
 5936TIP3    H217754   5.831   1.161   4.816
 5937TIP3   OH217755   5.659   1.383   5.074
 5937TIP3    H117756   5.590   1.430   5.122
 5937TIP3    H217757   5.613   1.340   5.002
 5938TIP3   OH217758   5.705   0.601   4.091
 5938TIP3    H117759   5.640   0.608   4.022
 5938TIP3    H217760   5.687   0.675   4.149
 5939TIP3   OH217761   5.577   0.260   4.030
 5939TIP3    H117762   5.561   0.344   3.987
 5939TIP3    H217763   5.527   0.196   3.979
 5940TIP3   OH217764   5.588   0.566   4.590
 5940TIP3    H117765   5.592   0.473   4.567
 5940TIP3    H217766   5.576   0.566   4.685
 5941TIP3   OH217767   4.217   0.622   5.339
 5941TIP3    H117768   4.210   0.593   5.248
 5941TIP3    H217769   4.311   0.625   5.357
 5942TIP3   OH217770   5.883   0.973   5.437
 5942TIP3    H117771   5.954   0.910   5.425
 5942TIP3    H217772   5.901   1.041   5.372
 5943TIP3   OH217773   6.061   0.771   5.470
 5943TIP3    H117774   5.987   0.721   5.504
 5943TIP3    H217775   6.137   0.715   5.486
 5944TIP3   OH217776   5.591   0.312   4.459
 5944TIP3    H117777   5.619   0.236   4.510
 5944TIP3    H217778   5.653   0.316   4.386
 5945TIP3   OH217779   5.747   0.447   4.990
 5945TIP3    H117780   5.829   0.468   4.945
 5945TIP3    H217781   5.760   0.480   5.080
 5946TIP3   OH217782   5.812   0.600   5.215
 5946TIP3    H117783   5.733   0.632   5.257
 5946TIP3    H217784   5.846   0.675   5.166
 5947TIP3   OH217785   4.431   0.303   6.016
 5947TIP3    H117786   4.521   0.280   5.995
 5947TIP3    H217787   4.393   0.223   6.052
 5948TIP3   OH217788   4.195   0.277   5.414
 5948TIP3    H117789   4.239   0.278   5.329
 5948TIP3    H217790   4.221   0.359   5.456
 5949TIP3   OH217791   5.343   1.484   4.422
 5949TIP3    H117792   5.393   1.475   4.341
 5949TIP3    H217793   5.389   1.551   4.472
 5950TIP3   OH217794   4.441   1.286   5.804
 5950TIP3    H117795   4.348   1.263   5.792
 5950TIP3    H217796   4.456   1.280   5.898
 5951TIP3   OH217797   4.622   1.324   5.349
 5951TIP3    H117798   4.572   1.398   5.315
 5951TIP3    H217799   4.709   1.334   5.309
 5952TIP3   OH217800   5.072   1.556   5.486
 5952TIP3    H117801   5.104   1.560   5.577
 5952TIP3    H217802   5.131   1.612   5.437
 5953TIP3   OH217803   5.246   1.720   5.356
 5953TIP3    H117804   5.315   1.670   5.311
 5953TIP3    H217805   5.293   1.778   5.416
 5954TIP3   OH217806   4.292   1.578   5.383
 5954TIP3    H117807   4.204   1.607   5.358
 5954TIP3    H217808   4.310   1.623   5.465
 5955TIP3   OH217809   4.528   1.556   5.238
 5955TIP3    H117810   4.444   1.567   5.282
 5955TIP3    H217811   4.514   1.588   5.149
 5956TIP3   OH217812   4.957   1.584   5.037
 5956TIP3    H117813   4.889   1.601   4.972
 5956TIP3    H217814   4.971   1.669   5.080
 5957TIP3   OH217815   5.227   1.521   5.087
 5957TIP3    H117816   5.134   1.539   5.071
 5957TIP3    H217817   5.273   1.595   5.046
 5958TIP3   OH217818   5.432   1.712   4.999
 5958TIP3    H117819   5.419   1.797   4.955
 5958TIP3    H217820   5.459   1.653   4.928
 5959TIP3   OH217821   4.210   1.367   5.125
 5959TIP3    H117822   4.232   1.343   5.215
 5959TIP3    H217823   4.278   1.328   5.071
 5960TIP3   OH217824   4.405   1.242   4.985
 5960TIP3    H117825   4.417   1.160   5.034
 5960TIP3    H217826   4.493   1.280   4.979
 5961TIP3   OH217827   4.672   1.333   4.991
 5961TIP3    H117828   4.699   1.242   4.978
 5961TIP3    H217829   4.716   1.360   5.071
 5962TIP3   OH217830   3.993   1.149   4.512
 5962TIP3    H117831   3.909   1.112   4.482
 5962TIP3    H217832   3.989   1.241   4.487
 5963TIP3   OH217833   4.770   1.325   4.096
 5963TIP3    H117834   4.856   1.352   4.063
 5963TIP3    H217835   4.744   1.253   4.039
 5964TIP3   OH217836   5.488   1.450   4.190
 5964TIP3    H117837   5.481   1.355   4.181
 5964TIP3    H217838   5.442   1.484   4.113
 5965TIP3   OH217839   4.073   1.163   4.152
 5965TIP3    H117840   4.075   1.188   4.244
 5965TIP3    H217841   4.158   1.122   4.136
 5966TIP3   OH217842   5.708   1.593   5.377
 5966TIP3    H117843   5.633   1.562   5.326
 5966TIP3    H217844   5.695   1.688   5.383
 5967TIP3   OH217845   6.976   0.965   4.142
 5967TIP3    H117846   6.952   1.055   4.125
 5967TIP3    H217847   6.904   0.913   4.107
 5968TIP3   OH217848   6.982   0.967   4.529
 5968TIP3    H117849   7.013   0.945   4.616
 5968TIP3    H217850   6.938   0.888   4.498
 5969TIP3   OH217851   6.277   0.862   4.894
 5969TIP3    H117852   6.307   0.791   4.950
 5969TIP3    H217853   6.357   0.910   4.872
 5970TIP3   OH217854   7.228   1.267   4.212
 5970TIP3    H117855   7.208   1.201   4.278
 5970TIP3    H217856   7.254   1.344   4.261
 5971TIP3   OH217857   6.253   1.269   4.612
 5971TIP3    H117858   6.242   1.174   4.614
 5971TIP3    H217859   6.348   1.281   4.605
 5972TIP3   OH217860   5.941   0.484   4.412
 5972TIP3    H117861   5.890   0.564   4.424
 5972TIP3    H217862   5.887   0.429   4.356
 5973TIP3   OH217863   6.009   0.770   4.572
 5973TIP3    H117864   6.048   0.688   4.602
 5973TIP3    H217865   6.074   0.808   4.513
 5974TIP3   OH217866   6.876   1.730   4.226
 5974TIP3    H117867   6.916   1.662   4.173
 5974TIP3    H217868   6.865   1.690   4.312
 5975TIP3   OH217869   6.779   1.192   4.575
 5975TIP3    H117870   6.814   1.116   4.528
 5975TIP3    H217871   6.857   1.242   4.601
 5976TIP3   OH217872   7.196   0.692   4.619
 5976TIP3    H117873   7.213   0.603   4.648
 5976TIP3    H217874   7.158   0.682   4.532
 5977TIP3   OH217875   6.510   0.314   4.543
 5977TIP3    H117876   6.490   0.401   4.508
 5977TIP3    H217877   6.433   0.261   4.522
 5978TIP3   OH217878   7.187   0.466   4.244
 5978TIP3    H117879   7.243   0.421   4.307
 5978TIP3    H217880   7.239   0.471   4.164
 5979TIP3   OH217881   6.140   0.552   4.667
 5979TIP3    H117882   6.228   0.558   4.704
 5979TIP3    H217883   6.150   0.492   4.593
 5980TIP3   OH217884   6.598   0.752   4.477
 5980TIP3    H117885   6.690   0.731   4.491
 5980TIP3    H217886   6.558   0.669   4.450
 5981TIP3   OH217887   7.820   0.702   4.764
 5981TIP3    H117888   7.748   0.759   4.737
 5981TIP3    H217889   7.886   0.762   4.800
 5982TIP3   OH217890   6.861   1.184   4.015
 5982TIP3    H117891   6.832   1.173   3.925
 5982TIP3    H217892   6.822   1.267   4.043
 5983TIP3   OH217893   6.632   1.114   4.795
 5983TIP3    H117894   6.573   1.180   4.832
 5983TIP3    H217895   6.674   1.158   4.722
 5984TIP3   OH217896   6.396   0.522   4.737
 5984TIP3    H117897   6.464   0.565   4.789
 5984TIP3    H217898   6.424   0.431   4.732
 5985TIP3   OH217899   6.459   1.311   4.897
 5985TIP3    H117900   6.439   1.396   4.858
 5985TIP3    H217901   6.383   1.289   4.950
 5986TIP3   OH217902   5.850   1.000   4.132
 5986TIP3    H117903   5.811   1.026   4.048
 5986TIP3    H217904   5.883   1.082   4.169
 5987TIP3   OH217905   7.291   1.515   4.371
 5987TIP3    H117906   7.205   1.504   4.412
 5987TIP3    H217907   7.285   1.600   4.326
 5988TIP3   OH217908   6.993   1.557   4.042
 5988TIP3    H117909   7.037   1.474   4.026
 5988TIP3    H217910   7.052   1.623   4.005
 5989TIP3   OH217911   7.131   1.339   3.962
 5989TIP3    H117912   7.112   1.262   3.910
 5989TIP3    H217913   7.170   1.305   4.043
 5990TIP3   OH217914   7.521   1.423   4.716
 5990TIP3    H117915   7.506   1.346   4.660
 5990TIP3    H217916   7.500   1.498   4.660
 5991TIP3   OH217917   6.809   0.824   3.971
 5991TIP3    H117918   6.730   0.875   3.955
 5991TIP3    H217919   6.852   0.819   3.886
 5992TIP3   OH217920   6.769   0.602   3.691
 5992TIP3    H117921   6.836   0.655   3.734
 5992TIP3    H217922   6.818   0.536   3.641
 5993TIP3   OH217923   7.705   1.060   4.554
 5993TIP3    H117924   7.625   1.112   4.562
 5993TIP3    H217925   7.743   1.086   4.470
 5994TIP3   OH217926   7.156   0.900   3.947
 5994TIP3    H117927   7.101   0.924   4.021
 5994TIP3    H217928   7.241   0.880   3.986
 5995TIP3   OH217929   7.386   0.943   4.866
 5995TIP3    H117930   7.385   1.023   4.919
 5995TIP3    H217931   7.302   0.943   4.820
 5996TIP3   OH217932   6.390   0.896   4.363
 5996TIP3    H117933   6.350   0.839   4.297
 5996TIP3    H217934   6.465   0.846   4.395
 5997TIP3   OH217935   6.520   1.307   4.510
 5997TIP3    H117936   6.500   1.275   4.422
 5997TIP3    H217937   6.607   1.272   4.529
 5998TIP3   OH217938   6.524   0.868   4.724
 5998TIP3    H117939   6.553   0.839   4.637
 5998TIP3    H217940   6.569   0.952   4.737
 5999TIP3   OH217941   7.054   1.507   4.496
 5999TIP3    H117942   7.039   1.587   4.547
 5999TIP3    H217943   7.036   1.436   4.558
 6000TIP3   OH217944   6.663   1.425   5.043
 6000TIP3    H117945   6.606   1.487   5.088
 6000TIP3    H217946   6.604   1.372   4.990
 6001TIP3   OH217947   6.999   0.759   3.768
 6001TIP3    H117948   7.053   0.819   3.819
 6001TIP3    H217949   7.024   0.776   3.677
 6002TIP3   OH217950   6.411   0.992   5.145
 6002TIP3    H117951   6.417   1.076   5.189
 6002TIP3    H217952   6.319   0.967   5.152
 6003TIP3   OH217953   6.744   1.438   4.049
 6003TIP3    H117954   6.826   1.486   4.056
 6003TIP3    H217955   6.684   1.498   4.005
 6004TIP3   OH217956   6.457   1.590   5.129
 6004TIP3    H117957   6.425   1.595   5.039
 6004TIP3    H217958   6.380   1.568   5.181
 6005TIP3   OH217959   6.255   0.740   4.165
 6005TIP3    H117960   6.190   0.786   4.112
 6005TIP3    H217961   6.218   0.653   4.178
 6006TIP3   OH217962   7.301   1.375   3.395
 6006TIP3    H117963   7.321   1.461   3.359
 6006TIP3    H217964   7.350   1.313   3.340
 6007TIP3   OH217965   6.034   1.126   5.075
 6007TIP3    H117966   5.970   1.108   5.006
 6007TIP3    H217967   6.074   1.040   5.093
 6008TIP3   OH217968   5.893   1.318   4.711
 6008TIP3    H117969   5.988   1.313   4.699
 6008TIP3    H217970   5.879   1.398   4.762
 6009TIP3   OH217971   7.759   1.774   4.769
 6009TIP3    H117972   7.761   1.679   4.780
 6009TIP3    H217973   7.677   1.802   4.810
 6010TIP3   OH217974   6.860   1.554   4.902
 6010TIP3    H117975   6.859   1.646   4.930
 6010TIP3    H217976   6.791   1.512   4.953
 6011TIP3   OH217977   6.624   1.682   3.851
 6011TIP3    H117978   6.580   1.665   3.768
 6011TIP3    H217979   6.591   1.768   3.878
 6012TIP3   OH217980   6.061   1.530   4.239
 6012TIP3    H117981   6.109   1.524   4.321
 6012TIP3    H217982   6.006   1.451   4.238
 6013TIP3   OH217983   6.829   1.578   3.488
 6013TIP3    H117984   6.884   1.509   3.451
 6013TIP3    H217985   6.862   1.590   3.576
 6014TIP3   OH217986   6.875   1.635   3.759
 6014TIP3    H117987   6.788   1.644   3.799
 6014TIP3    H217988   6.929   1.595   3.827
 6015TIP3   OH217989   7.639   0.883   5.040
 6015TIP3    H117990   7.562   0.915   4.993
 6015TIP3    H217991   7.632   0.788   5.034
 6016TIP3   OH217992   6.242   1.306   5.060
 6016TIP3    H117993   6.290   1.293   5.142
 6016TIP3    H217994   6.168   1.246   5.067
 6017TIP3   OH217995   7.420   0.685   4.985
 6017TIP3    H117996   7.386   0.714   5.070
 6017TIP3    H217997   7.399   0.757   4.926
 6018TIP3   OH217998   7.083   0.796   3.512
 6018TIP3    H117999   7.041   0.776   3.428
 6018TIP3    H218000   7.150   0.860   3.490
 6019TIP3   OH218001   6.591   0.655   4.884
 6019TIP3    H118002   6.531   0.671   4.957
 6019TIP3    H218003   6.579   0.730   4.827
 6020TIP3   OH218004   6.455   0.532   4.387
 6020TIP3    H118005   6.362   0.514   4.400
 6020TIP3    H218006   6.473   0.504   4.297
 6021TIP3   OH218007   6.940   0.624   4.107
 6021TIP3    H118008   6.894   0.695   4.064
 6021TIP3    H218009   7.007   0.596   4.044
 6022TIP3   OH218010   7.132   0.923   5.182
 6022TIP3    H118011   7.104   0.846   5.230
 6022TIP3    H218012   7.225   0.933   5.203
 6023TIP3   OH218013   7.083   0.686   4.365
 6023TIP3    H118014   7.029   0.734   4.303
 6023TIP3    H218015   7.108   0.606   4.318
 6024TIP3   OH218016   6.392   0.681   5.077
 6024TIP3    H118017   6.420   0.743   5.144
 6024TIP3    H218018   6.379   0.598   5.124
 6025TIP3   OH218019   6.024   0.292   4.210
 6025TIP3    H118020   6.044   0.293   4.117
 6025TIP3    H218021   5.930   0.311   4.215
 6026TIP3   OH218022   7.110   0.893   4.770
 6026TIP3    H118023   7.148   0.828   4.712
 6026TIP3    H218024   7.085   0.845   4.849
 6027TIP3   OH218025   6.200   0.410   4.429
 6027TIP3    H118026   6.112   0.445   4.418
 6027TIP3    H218027   6.200   0.330   4.375
 6028TIP3   OH218028   6.497   0.430   4.139
 6028TIP3    H118029   6.587   0.417   4.108
 6028TIP3    H218030   6.444   0.419   4.060
 6029TIP3   OH218031   6.332   0.412   3.909
 6029TIP3    H118032   6.257   0.396   3.852
 6029TIP3    H218033   6.394   0.459   3.854
 6030TIP3   OH218034   7.451   2.120   4.864
 6030TIP3    H118035   7.445   2.143   4.771
 6030TIP3    H218036   7.527   2.168   4.896
 6031TIP3   OH218037   6.402   1.232   5.291
 6031TIP3    H118038   6.484   1.259   5.330
 6031TIP3    H218039   6.338   1.237   5.362
 6032TIP3   OH218040   6.854   0.684   4.541
 6032TIP3    H118041   6.938   0.658   4.502
 6032TIP3    H218042   6.858   0.652   4.631
 6033TIP3   OH218043   6.865   0.617   4.802
 6033TIP3    H118044   6.776   0.609   4.838
 6033TIP3    H218045   6.916   0.658   4.871
 6034TIP3   OH218046   6.576   0.970   3.924
 6034TIP3    H118047   6.506   0.906   3.910
 6034TIP3    H218048   6.560   1.005   4.012
 6035TIP3   OH218049   7.476   1.208   4.550
 6035TIP3    H118050   7.500   1.258   4.472
 6035TIP3    H218051   7.393   1.166   4.527
 6036TIP3   OH218052   7.016   0.353   3.747
 6036TIP3    H118053   6.957   0.302   3.804
 6036TIP3    H218054   7.053   0.419   3.804
 6037TIP3   OH218055   6.978   1.290   4.922
 6037TIP3    H118056   7.008   1.272   5.011
 6037TIP3    H218057   6.941   1.379   4.927
 6038TIP3   OH218058   7.117   0.549   3.906
 6038TIP3    H118059   7.212   0.559   3.915
 6038TIP3    H218060   7.090   0.624   3.854
 6039TIP3   OH218061   6.274   0.990   4.597
 6039TIP3    H118062   6.310   0.966   4.511
 6039TIP3    H218063   6.321   0.933   4.659
 6040TIP3   OH218064   6.726   1.120   3.746
 6040TIP3    H118065   6.679   1.204   3.747
 6040TIP3    H218066   6.675   1.064   3.805
 6041TIP3   OH218067   6.152   0.914   5.218
 6041TIP3    H118068   6.175   0.894   5.308
 6041TIP3    H218069   6.085   0.850   5.195
 6042TIP3   OH218070   6.881   1.031   5.235
 6042TIP3    H118071   6.820   0.979   5.183
 6042TIP3    H218072   6.967   1.004   5.204
 6043TIP3   OH218073   7.138   1.548   4.821
 6043TIP3    H118074   7.042   1.546   4.831
 6043TIP3    H218075   7.168   1.601   4.895
 6044TIP3   OH218076   7.544   0.622   3.709
 6044TIP3    H118077   7.488   0.570   3.652
 6044TIP3    H218078   7.534   0.712   3.676
 6045TIP3   OH218079   7.771   1.485   4.801
 6045TIP3    H118080   7.676   1.476   4.795
 6045TIP3    H218081   7.803   1.456   4.715
 6046TIP3   OH218082   7.249   1.443   3.653
 6046TIP3    H118083   7.214   1.367   3.701
 6046TIP3    H218084   7.263   1.410   3.564
 6047TIP3   OH218085   7.244   1.070   4.467
 6047TIP3    H118086   7.152   1.047   4.483
 6047TIP3    H218087   7.280   0.994   4.422
 6048TIP3   OH218088   6.375   1.300   4.225
 6048TIP3    H118089   6.375   1.379   4.171
 6048TIP3    H218090   6.282   1.281   4.238
 6049TIP3   OH218091   5.934   0.603   3.933
 6049TIP3    H118092   5.982   0.684   3.950
 6049TIP3    H218093   5.860   0.606   3.993
 6050TIP3   OH218094   6.504   1.061   4.168
 6050TIP3    H118095   6.474   1.150   4.185
 6050TIP3    H218096   6.472   1.010   4.242
 6051TIP3   OH218097   6.646   1.641   4.692
 6051TIP3    H118098   6.685   1.713   4.642
 6051TIP3    H218099   6.720   1.603   4.740
 6052TIP3   OH218100   6.291   1.538   4.077
 6052TIP3    H118101   6.207   1.545   4.123
 6052TIP3    H218102   6.326   1.628   4.078
 6053TIP3   OH218103   7.029   1.273   4.655
 6053TIP3    H118104   7.016   1.273   4.750
 6053TIP3    H218105   7.108   1.221   4.641
 6054TIP3   OH218106   6.987   1.171   3.556
 6054TIP3    H118107   7.054   1.148   3.620
 6054TIP3    H218108   6.904   1.146   3.597
 6055TIP3   OH218109   7.278   1.805   4.699
 6055TIP3    H118110   7.199   1.751   4.696
 6055TIP3    H218111   7.265   1.871   4.630
 6056TIP3   OH218112   7.348   1.653   3.347
 6056TIP3    H118113   7.378   1.731   3.300
 6056TIP3    H218114   7.266   1.679   3.387
 6057TIP3   OH218115   7.170   1.106   3.759
 6057TIP3    H118116   7.159   1.036   3.824
 6057TIP3    H218117   7.263   1.102   3.736
 6058TIP3   OH218118   6.082   1.502   4.852
 6058TIP3    H118119   6.137   1.432   4.888
 6058TIP3    H218120   6.107   1.580   4.902
 6059TIP3   OH218121   6.367   1.148   3.537
 6059TIP3    H118122   6.388   1.059   3.509
 6059TIP3    H218123   6.348   1.140   3.631
 6060TIP3   OH218124   6.315   1.155   3.810
 6060TIP3    H118125   6.391   1.127   3.862
 6060TIP3    H218126   6.317   1.251   3.815
 6061TIP3   OH218127   6.047   0.847   4.013
 6061TIP3    H118128   5.983   0.890   4.070
 6061TIP3    H218129   6.064   0.911   3.943
 6062TIP3   OH218130   6.581   1.349   3.755
 6062TIP3    H118131   6.496   1.372   3.792
 6062TIP3    H218132   6.603   1.422   3.696
 6063TIP3   OH218133   6.785   0.404   4.130
 6063TIP3    H118134   6.834   0.485   4.124
 6063TIP3    H218135   6.792   0.379   4.223
 6064TIP3   OH218136   7.055   0.734   4.983
 6064TIP3    H118137   7.050   0.797   5.055
 6064TIP3    H218138   7.102   0.659   5.020
 6065TIP3   OH218139   6.327   1.427   3.825
 6065TIP3    H118140   6.300   1.495   3.763
 6065TIP3    H218141   6.312   1.467   3.911
 6066TIP3   OH218142   7.332   0.828   4.349
 6066TIP3    H118143   7.252   0.779   4.370
 6066TIP3    H218144   7.401   0.782   4.396
 6067TIP3   OH218145   6.048   1.051   3.814
 6067TIP3    H118146   6.114   1.119   3.827
 6067TIP3    H218147   6.087   0.992   3.749
 6068TIP3   OH218148   5.987   0.332   3.941
 6068TIP3    H118149   5.983   0.428   3.932
 6068TIP3    H218150   5.899   0.302   3.918
 6069TIP3   OH218151   7.301   1.786   4.292
 6069TIP3    H118152   7.256   1.830   4.220
 6069TIP3    H218153   7.394   1.803   4.275
 6070TIP3   OH218154   5.907   1.266   4.198
 6070TIP3    H118155   5.849   1.297   4.267
 6070TIP3    H218156   5.877   1.309   4.118
 6071TIP3   OH218157   6.076   1.816   5.276
 6071TIP3    H118158   6.160   1.821   5.322
 6071TIP3    H218159   6.056   1.723   5.274
 6072TIP3   OH218160   6.550   1.769   5.321
 6072TIP3    H118161   6.645   1.759   5.327
 6072TIP3    H218162   6.524   1.711   5.250
 6073TIP3   OH218163   6.534   1.348   3.444
 6073TIP3    H118164   6.480   1.278   3.482
 6073TIP3    H218165   6.612   1.302   3.411
 6074TIP3   OH218166   7.193   1.682   5.055
 6074TIP3    H118167   7.185   1.615   5.122
 6074TIP3    H218168   7.268   1.735   5.082
 6075TIP3   OH218169   6.976   1.381   3.357
 6075TIP3    H118170   7.015   1.315   3.414
 6075TIP3    H218171   7.034   1.385   3.282
 6076TIP3   OH218172   6.197   1.211   5.479
 6076TIP3    H118173   6.219   1.118   5.472
 6076TIP3    H218174   6.115   1.219   5.430
 6077TIP3   OH218175   6.183   0.863   3.672
 6077TIP3    H118176   6.237   0.836   3.746
 6077TIP3    H218177   6.244   0.870   3.598
 6078TIP3   OH218178   6.808   1.305   5.249
 6078TIP3    H118179   6.768   1.326   5.164
 6078TIP3    H218180   6.838   1.214   5.239
 6079TIP3   OH218181   6.679   1.064   3.479
 6079TIP3    H118182   6.691   1.081   3.572
 6079TIP3    H218183   6.689   0.969   3.471
 6080TIP3   OH218184   7.302   1.319   4.856
 6080TIP3    H118185   7.378   1.359   4.814
 6080TIP3    H218186   7.232   1.383   4.842
 6081TIP3   OH218187   6.329   0.948   5.461
 6081TIP3    H118188   6.412   0.912   5.429
 6081TIP3    H218189   6.351   0.986   5.546
 6082TIP3   OH218190   6.382   0.773   3.889
 6082TIP3    H118191   6.362   0.736   3.975
 6082TIP3    H218192   6.422   0.701   3.840
 6083TIP3   OH218193   6.655   0.868   5.116
 6083TIP3    H118194   6.574   0.919   5.112
 6083TIP3    H218195   6.703   0.893   5.037
 6084TIP3   OH218196   6.490   0.566   3.736
 6084TIP3    H118197   6.461   0.574   3.645
 6084TIP3    H218198   6.585   0.569   3.731
 6085TIP3   OH218199   7.178   1.240   5.253
 6085TIP3    H118200   7.247   1.205   5.197
 6085TIP3    H218201   7.164   1.173   5.320
 6086TIP3   OH218202   7.302   0.924   3.381
 6086TIP3    H118203   7.278   0.871   3.305
 6086TIP3    H218204   7.306   1.013   3.348
 6087TIP3   OH218205   6.741   0.646   5.238
 6087TIP3    H118206   6.697   0.583   5.181
 6087TIP3    H218207   6.719   0.731   5.200
 6088TIP3   OH218208   6.818   0.956   4.921
 6088TIP3    H118209   6.900   0.961   4.873
 6088TIP3    H218210   6.760   1.017   4.876
 6089TIP3   OH218211   7.384   0.915   5.285
 6089TIP3    H118212   7.415   0.859   5.357
 6089TIP3    H218213   7.462   0.965   5.259
 6090TIP3   OH218214   7.434   1.172   5.038
 6090TIP3    H118215   7.373   1.224   4.984
 6090TIP3    H218216   7.520   1.192   5.002
 6091TIP3   OH218217   6.616   0.766   5.469
 6091TIP3    H118218   6.589   0.683   5.509
 6091TIP3    H218219   6.679   0.741   5.402
 6092TIP3   OH218220   7.022   0.699   5.278
 6092TIP3    H118221   7.051   0.665   5.362
 6092TIP3    H218222   6.927   0.686   5.278
 6093TIP3   OH218223   6.301   1.628   3.635
 6093TIP3    H118224   6.395   1.618   3.620
 6093TIP3    H218225   6.270   1.680   3.561
 6094TIP3   OH218226   5.778   1.010   3.850
 6094TIP3    H118227   5.870   1.033   3.838
 6094TIP3    H218228   5.769   0.923   3.811
 6095TIP3   OH218229   5.694   1.618   4.269
 6095TIP3    H118230   5.627   1.562   4.229
 6095TIP3    H218231   5.737   1.562   4.333
 6096TIP3   OH218232   5.829   1.466   4.456
 6096TIP3    H118233   5.813   1.398   4.521
 6096TIP3    H218234   5.880   1.532   4.502
 6097TIP3   OH218235   7.557   1.870   4.256
 6097TIP3    H118236   7.580   1.907   4.341
 6097TIP3    H218237   7.621   1.906   4.195
 6098TIP3   OH218238   7.580   1.891   4.539
 6098TIP3    H118239   7.535   1.807   4.532
 6098TIP3    H218240   7.660   1.872   4.588
 6099TIP3   OH218241   7.631   1.570   5.114
 6099TIP3    H118242   7.557   1.578   5.175
 6099TIP3    H218243   7.671   1.657   5.113
 6100TIP3   OH218244   7.447   1.082   3.724
 6100TIP3    H118245   7.507   1.150   3.692
 6100TIP3    H218246   7.489   1.049   3.804
 6101TIP3   OH218247   7.567   0.965   3.939
 6101TIP3    H118248   7.499   0.919   3.988
 6101TIP3    H218249   7.623   1.003   4.006
 6102TIP3   OH218250   7.632   1.344   4.364
 6102TIP3    H118251   7.677   1.280   4.310
 6102TIP3    H218252   7.625   1.422   4.308
 6103TIP3   OH218253   7.455   1.642   4.559
 6103TIP3    H118254   7.387   1.686   4.610
 6103TIP3    H218255   7.408   1.598   4.488
 6104TIP3   OH218256   7.493   0.859   3.570
 6104TIP3    H118257   7.429   0.872   3.500
 6104TIP3    H218258   7.477   0.932   3.630
 6105TIP3   OH218259   7.372   0.515   3.516
 6105TIP3    H118260   7.359   0.600   3.474
 6105TIP3    H218261   7.320   0.454   3.464
 6106TIP3   OH218262   7.385   0.821   4.076
 6106TIP3    H118263   7.389   0.728   4.052
 6106TIP3    H218264   7.373   0.820   4.171
 6107TIP3   OH218265   6.013   0.878   4.827
 6107TIP3    H118266   6.007   0.849   4.736
 6107TIP3    H218267   6.108   0.882   4.844
 6108TIP3   OH218268   7.681   1.233   4.934
 6108TIP3    H118269   7.750   1.168   4.926
 6108TIP3    H218270   7.702   1.299   4.868
 6109TIP3   OH218271   7.855   1.027   4.960
 6109TIP3    H118272   7.780   0.976   4.992
 6109TIP3    H218273   7.930   0.968   4.972
 6110TIP3   OH218274   7.389   0.571   3.945
 6110TIP3    H118275   7.416   0.494   3.996
 6110TIP3    H218276   7.451   0.574   3.873
 6111TIP3   OH218277   7.544   0.706   4.474
 6111TIP3    H118278   7.625   0.728   4.428
 6111TIP3    H218279   7.558   0.737   4.563
 6112TIP3   OH218280   7.603   0.854   4.703
 6112TIP3    H118281   7.526   0.887   4.749
 6112TIP3    H218282   7.636   0.930   4.653
 6113TIP3   OH218283   6.231   0.559   5.508
 6113TIP3    H118284   6.317   0.538   5.472
 6113TIP3    H218285   6.195   0.475   5.535
 6114TIP3   OH218286   5.990   0.534   4.901
 6114TIP3    H118287   6.034   0.532   4.815
 6114TIP3    H218288   6.020   0.616   4.941
 6115TIP3   OH218289   7.139   1.742   3.909
 6115TIP3    H118290   7.188   1.730   3.828
 6115TIP3    H218291   7.189   1.807   3.958
 6116TIP3   OH218292   6.238   1.541   5.294
 6116TIP3    H118293   6.145   1.521   5.278
 6116TIP3    H218294   6.248   1.535   5.389
 6117TIP3   OH218295   6.420   1.583   4.840
 6117TIP3    H118296   6.368   1.655   4.804
 6117TIP3    H218297   6.506   1.592   4.798
 6118TIP3   OH218298   6.860   1.821   4.980
 6118TIP3    H118299   6.899   1.819   5.068
 6118TIP3    H218300   6.922   1.872   4.928
 6119TIP3   OH218301   7.040   1.976   4.843
 6119TIP3    H118302   7.107   1.925   4.797
 6119TIP3    H218303   7.089   2.032   4.903
 6120TIP3   OH218304   6.090   1.834   4.871
 6120TIP3    H118305   6.002   1.861   4.846
 6120TIP3    H218306   6.109   1.884   4.950
 6121TIP3   OH218307   6.326   1.813   4.725
 6121TIP3    H118308   6.241   1.825   4.769
 6121TIP3    H218309   6.311   1.845   4.636
 6122TIP3   OH218310   6.753   1.840   4.524
 6122TIP3    H118311   6.685   1.856   4.458
 6122TIP3    H218312   6.767   1.926   4.565
 6123TIP3   OH218313   7.023   1.779   4.575
 6123TIP3    H118314   6.930   1.795   4.558
 6123TIP3    H218315   7.069   1.851   4.531
 6124TIP3   OH218316   7.228   1.970   4.485
 6124TIP3    H118317   7.215   2.053   4.441
 6124TIP3    H218318   7.256   1.910   4.415
 6125TIP3   OH218319   6.006   1.624   4.610
 6125TIP3    H118320   6.027   1.600   4.700
 6125TIP3    H218321   6.076   1.585   4.558
 6126TIP3   OH218322   6.202   1.498   4.471
 6126TIP3    H118323   6.214   1.416   4.519
 6126TIP3    H218324   6.290   1.535   4.466
 6127TIP3   OH218325   6.468   1.590   4.477
 6127TIP3    H118326   6.496   1.500   4.463
 6127TIP3    H218327   6.513   1.617   4.557
 6128TIP3   OH218328   5.790   1.405   3.999
 6128TIP3    H118329   5.706   1.370   3.969
 6128TIP3    H218330   5.786   1.498   3.977
 6129TIP3   OH218331   6.569   1.581   3.582
 6129TIP3    H118332   6.655   1.607   3.550
 6129TIP3    H218333   6.542   1.509   3.525
 6130TIP3   OH218334   7.286   1.708   3.677
 6130TIP3    H118335   7.278   1.613   3.676
 6130TIP3    H218336   7.238   1.738   3.600
 6131TIP3   OH218337   5.868   1.419   3.639
 6131TIP3    H118338   5.869   1.445   3.731
 6131TIP3    H218339   5.954   1.379   3.624
 6132TIP3   OH218340   7.508   1.851   4.862
 6132TIP3    H118341   7.433   1.817   4.813
 6132TIP3    H218342   7.492   1.945   4.870
 6133TIP3   OH218343   8.028   1.502   4.143
 6133TIP3    H118344   7.989   1.440   4.082
 6133TIP3    H218345   8.119   1.510   4.113
 6134TIP3   OH218346   7.751   0.760   3.921
 6134TIP3    H118347   7.680   0.822   3.907
 6134TIP3    H218348   7.733   0.688   3.861
 6135TIP3   OH218349   7.834   1.013   4.057
 6135TIP3    H118350   7.836   0.919   4.038
 6135TIP3    H218351   7.868   1.054   3.978
 6136TIP3   OH218352   7.646   1.252   3.620
 6136TIP3    H118353   7.603   1.273   3.537
 6136TIP3    H218354   7.671   1.338   3.655
 6137TIP3   OH218355   8.214   1.876   4.584
 6137TIP3    H118356   8.177   1.878   4.496
 6137TIP3    H218357   8.138   1.874   4.642
 6138TIP3   OH218358   7.838   1.389   4.557
 6138TIP3    H118359   7.767   1.363   4.498
 6138TIP3    H218360   7.870   1.306   4.593
 6139TIP3   OH218361   7.693   1.576   4.199
 6139TIP3    H118362   7.789   1.580   4.197
 6139TIP3    H218363   7.668   1.654   4.249
 6140TIP3   OH218364   7.830   1.783   3.720
 6140TIP3    H118365   7.907   1.792   3.777
 6140TIP3    H218366   7.790   1.700   3.748
 6141TIP3   OH218367   8.043   1.569   4.535
 6141TIP3    H118368   8.094   1.539   4.610
 6141TIP3    H218369   7.966   1.512   4.535
 6142TIP3   OH218370   7.813   0.546   3.688
 6142TIP3    H118371   7.831   0.558   3.594
 6142TIP3    H218372   7.718   0.561   3.696
 6143TIP3   OH218373   8.185   1.469   4.747
 6143TIP3    H118374   8.255   1.531   4.768
 6143TIP3    H218375   8.136   1.459   4.830
 6144TIP3   OH218376   7.928   1.180   4.706
 6144TIP3    H118377   7.975   1.169   4.789
 6144TIP3    H218378   7.874   1.101   4.699
 6145TIP3   OH218379   7.733   0.848   3.424
 6145TIP3    H118380   7.778   0.932   3.436
 6145TIP3    H218381   7.653   0.857   3.476
 6146TIP3   OH218382   7.877   1.758   4.340
 6146TIP3    H118383   7.934   1.692   4.379
 6146TIP3    H218384   7.902   1.840   4.383
 6147TIP3   OH218385   7.834   1.103   3.485
 6147TIP3    H118386   7.769   1.140   3.545
 6147TIP3    H218387   7.829   1.158   3.407
 6148TIP3   OH218388   7.841   1.288   3.279
 6148TIP3    H118389   7.908   1.346   3.313
 6148TIP3    H218390   7.865   1.275   3.187
 6149TIP3   OH218391   7.790   0.583   3.412
 6149TIP3    H118392   7.783   0.678   3.415
 6149TIP3    H218393   7.699   0.553   3.400
 6150TIP3   OH218394   7.689   1.514   3.686
 6150TIP3    H118395   7.628   1.550   3.750
 6150TIP3    H218396   7.672   1.563   3.606
 6151TIP3   OH218397   7.869   2.067   4.762
 6151TIP3    H118398   7.953   2.065   4.807
 6151TIP3    H218399   7.840   1.976   4.762
 6152TIP3   OH218400   7.996   1.466   4.964
 6152TIP3    H118401   8.014   1.372   4.962
 6152TIP3    H218402   7.913   1.475   4.917
 6153TIP3   OH218403   8.109   1.212   4.946
 6153TIP3    H118404   8.177   1.151   4.917
 6153TIP3    H218405   8.138   1.242   5.031
 6154TIP3   OH218406   7.578   1.257   3.350
 6154TIP3    H118407   7.668   1.276   3.323
 6154TIP3    H218408   7.560   1.170   3.314
 6155TIP3   OH218409   7.490   1.878   3.755
 6155TIP3    H118410   7.423   1.821   3.717
 6155TIP3    H218411   7.537   1.822   3.817
 6156TIP3   OH218412   7.622   1.723   3.942
 6156TIP3    H118413   7.609   1.654   4.008
 6156TIP3    H218414   7.676   1.789   3.987
 6157TIP3   OH218415   7.820   1.130   4.308
 6157TIP3    H118416   7.813   1.088   4.222
 6157TIP3    H218417   7.911   1.161   4.311
 6158TIP3   OH218418   8.026   0.816   4.992
 6158TIP3    H118419   8.120   0.797   4.988
 6158TIP3    H218420   7.987   0.734   5.021
 6159TIP3   OH218421   7.789   0.788   4.376
 6159TIP3    H118422   7.859   0.769   4.314
 6159TIP3    H218423   7.813   0.872   4.414
 6160TIP3   OH218424   8.037   1.793   4.794
 6160TIP3    H118425   7.952   1.770   4.758
 6160TIP3    H218426   8.027   1.781   4.888
 6161TIP3   OH218427   7.880   2.079   4.363
 6161TIP3    H118428   7.795   2.111   4.333
 6161TIP3    H218429   7.904   2.138   4.435
 6162TIP3   OH218430   8.139   2.065   4.224
 6162TIP3    H118431   8.051   2.068   4.262
 6162TIP3    H218432   8.128   2.101   4.136
 6163TIP3   OH218433   7.796   1.884   4.100
 6163TIP3    H118434   7.821   1.863   4.190
 6163TIP3    H218435   7.864   1.845   4.045
 6164TIP3   OH218436   7.983   1.750   3.957
 6164TIP3    H118437   7.986   1.657   3.980
 6164TIP3    H218438   8.071   1.770   3.927
 6165TIP3   OH218439   7.597   1.653   3.470
 6165TIP3    H118440   7.511   1.620   3.444
 6165TIP3    H218441   7.587   1.748   3.469
 6166TIP3   OH218442   7.673   1.696   3.151
 6166TIP3    H118443   7.627   1.731   3.227
 6166TIP3    H218444   7.720   1.620   3.184
 6167TIP3   OH218445   1.228   2.014   5.317
 6167TIP3    H118446   1.199   2.103   5.298
 6167TIP3    H218447   1.155   1.959   5.288
 6168TIP3   OH218448   1.225   2.011   5.710
 6168TIP3    H118449   1.263   1.988   5.795
 6168TIP3    H218450   1.187   1.929   5.678
 6169TIP3   OH218451   0.530   1.906   6.070
 6169TIP3    H118452   0.561   1.842   6.134
 6169TIP3    H218453   0.608   1.957   6.048
 6170TIP3   OH218454   1.471   2.318   5.387
 6170TIP3    H118455   1.458   2.244   5.447
 6170TIP3    H218456   1.504   2.389   5.443
 6171TIP3   OH218457   0.503   2.315   5.791
 6171TIP3    H118458   0.492   2.220   5.790
 6171TIP3    H218459   0.598   2.328   5.786
 6172TIP3   OH218460   0.263   1.819   5.762
 6172TIP3    H118461   0.317   1.752   5.803
 6172TIP3    H218462   0.310   1.843   5.683
 6173TIP3   OH218463   1.128   2.774   5.404
 6173TIP3    H118464   1.166   2.708   5.346
 6173TIP3    H218465   1.119   2.729   5.488
 6174TIP3   OH218466   1.029   2.239   5.750
 6174TIP3    H118467   1.063   2.159   5.710
 6174TIP3    H218468   1.108   2.288   5.775
 6175TIP3   OH218469   2.048   1.556   5.748
 6175TIP3    H118470   2.073   1.639   5.788
 6175TIP3    H218471   2.077   1.563   5.657
 6176TIP3   OH218472   1.440   1.736   5.778
 6176TIP3    H118473   1.482   1.654   5.802
 6176TIP3    H218474   1.407   1.720   5.689
 6177TIP3   OH218475   0.792   1.412   5.735
 6177TIP3    H118476   0.775   1.484   5.674
 6177TIP3    H218477   0.765   1.333   5.688
 6178TIP3   OH218478   1.477   1.490   5.364
 6178TIP3    H118479   1.542   1.474   5.432
 6178TIP3    H218480   1.528   1.524   5.290
 6179TIP3   OH218481   0.420   1.620   5.865
 6179TIP3    H118482   0.497   1.582   5.908
 6179TIP3    H218483   0.397   1.556   5.797
 6180TIP3   OH218484   0.853   1.799   5.653
 6180TIP3    H118485   0.946   1.778   5.664
 6180TIP3    H218486   0.815   1.720   5.614
 6181TIP3   OH218487   2.117   1.770   5.916
 6181TIP3    H118488   2.034   1.813   5.895
 6181TIP3    H218489   2.121   1.773   6.012
 6182TIP3   OH218490   0.794   1.373   6.170
 6182TIP3    H118491   0.737   1.418   6.108
 6182TIP3    H218492   0.739   1.355   6.246
 6183TIP3   OH218493   1.114   2.233   5.188
 6183TIP3    H118494   1.075   2.214   5.102
 6183TIP3    H218495   1.071   2.314   5.217
 6184TIP3   OH218496   0.880   2.161   5.971
 6184TIP3    H118497   0.820   2.225   6.010
 6184TIP3    H218498   0.923   2.207   5.900
 6185TIP3   OH218499   1.677   1.495   5.545
 6185TIP3    H118500   1.664   1.449   5.628
 6185TIP3    H218501   1.731   1.571   5.569
 6186TIP3   OH218502   0.663   1.499   5.959
 6186TIP3    H118503   0.709   1.576   5.992
 6186TIP3    H218504   0.716   1.470   5.884
 6187TIP3   OH218505   0.703   2.356   6.077
 6187TIP3    H118506   0.682   2.441   6.039
 6187TIP3    H218507   0.628   2.333   6.131
 6188TIP3   OH218508   0.114   2.040   5.308
 6188TIP3    H118509   0.062   2.062   5.231
 6188TIP3    H218510   0.137   2.124   5.347
 6189TIP3   OH218511   1.537   2.561   5.551
 6189TIP3    H118512   1.450   2.549   5.589
 6189TIP3    H218513   1.531   2.645   5.505
 6190TIP3   OH218514   1.835   1.459   5.913
 6190TIP3    H118515   1.747   1.483   5.882
 6190TIP3    H218516   1.894   1.490   5.844
 6191TIP3   OH218517   1.140   1.122   5.894
 6191TIP3    H118518   1.117   1.030   5.886
 6191TIP3    H218519   1.063   1.163   5.933
 6192TIP3   OH218520   1.240   2.604   5.216
 6192TIP3    H118521   1.285   2.520   5.203
 6192TIP3    H218522   1.300   2.669   5.181
 6193TIP3   OH218523   1.383   2.387   5.136
 6193TIP3    H118524   1.348   2.308   5.096
 6193TIP3    H218525   1.422   2.357   5.219
 6194TIP3   OH218526   1.765   2.468   5.891
 6194TIP3    H118527   1.754   2.390   5.836
 6194TIP3    H218528   1.750   2.542   5.831
 6195TIP3   OH218529   1.057   1.864   5.151
 6195TIP3    H118530   0.980   1.915   5.131
 6195TIP3    H218531   1.106   1.859   5.069
 6196TIP3   OH218532   1.019   1.651   4.863
 6196TIP3    H118533   1.082   1.702   4.914
 6196TIP3    H218534   1.072   1.588   4.815
 6197TIP3   OH218535   1.962   2.115   5.743
 6197TIP3    H118536   1.878   2.161   5.748
 6197TIP3    H218537   1.991   2.128   5.653
 6198TIP3   OH218538   1.408   1.947   5.123
 6198TIP3    H118539   1.353   1.969   5.199
 6198TIP3    H218540   1.492   1.920   5.161
 6199TIP3   OH218541   1.639   1.984   6.039
 6199TIP3    H118542   1.639   2.063   6.092
 6199TIP3    H218543   1.556   1.986   5.993
 6200TIP3   OH218544   0.642   1.942   5.539
 6200TIP3    H118545   0.600   1.885   5.475
 6200TIP3    H218546   0.715   1.891   5.573
 6201TIP3   OH218547   0.772   2.358   5.685
 6201TIP3    H118548   0.748   2.319   5.601
 6201TIP3    H218549   0.859   2.322   5.705
 6202TIP3   OH218550   0.773   1.918   5.894
 6202TIP3    H118551   0.806   1.890   5.808
 6202TIP3    H218552   0.818   2.000   5.911
 6203TIP3   OH218553   1.297   2.554   5.674
 6203TIP3    H118554   1.290   2.628   5.733
 6203TIP3    H218555   1.284   2.477   5.730
 6204TIP3   OH218556   0.911   2.473   6.215
 6204TIP3    H118557   0.854   2.531   6.265
 6204TIP3    H218558   0.851   2.417   6.167
 6205TIP3   OH218559   1.244   1.809   4.950
 6205TIP3    H118560   1.303   1.864   5.002
 6205TIP3    H218561   1.269   1.827   4.859
 6206TIP3   OH218562   0.688   2.040   6.310
 6206TIP3    H118563   0.685   2.123   6.357
 6206TIP3    H218564   0.600   2.003   6.320
 6207TIP3   OH218565   0.992   2.482   5.223
 6207TIP3    H118566   1.074   2.530   5.231
 6207TIP3    H218567   0.932   2.545   5.182
 6208TIP3   OH218568   0.701   2.638   6.306
 6208TIP3    H118569   0.673   2.640   6.214
 6208TIP3    H218570   0.621   2.622   6.356
 6209TIP3   OH218571   1.760   1.044   4.998
 6209TIP3    H118572   1.681   1.063   5.049
 6209TIP3    H218573   1.777   1.125   4.950
 6210TIP3   OH218574   0.507   1.789   5.343
 6210TIP3    H118575   0.437   1.824   5.288
 6210TIP3    H218576   0.482   1.697   5.357
 6211TIP3   OH218577   1.556   2.395   4.540
 6211TIP3    H118578   1.561   2.490   4.529
 6211TIP3    H218579   1.647   2.366   4.534
 6212TIP3   OH218580   0.310   2.154   6.243
 6212TIP3    H118581   0.250   2.127   6.172
 6212TIP3    H218582   0.343   2.071   6.278
 6213TIP3   OH218583   0.148   2.389   5.867
 6213TIP3    H118584   0.222   2.330   5.853
 6213TIP3    H218585   0.176   2.446   5.939
 6214TIP3   OH218586   2.003   2.814   5.943
 6214TIP3    H118587   2.005   2.719   5.957
 6214TIP3    H218588   1.923   2.842   5.987
 6215TIP3   OH218589   1.105   2.604   6.074
 6215TIP3    H118590   1.106   2.694   6.107
 6215TIP3    H218591   1.038   2.559   6.126
 6216TIP3   OH218592   0.873   2.728   5.027
 6216TIP3    H118593   0.827   2.709   4.945
 6216TIP3    H218594   0.839   2.813   5.054
 6217TIP3   OH218595   0.310   2.574   5.416
 6217TIP3    H118596   0.357   2.569   5.499
 6217TIP3    H218597   0.263   2.491   5.410
 6218TIP3   OH218598   1.072   2.633   4.669
 6218TIP3    H118599   1.127   2.564   4.632
 6218TIP3    H218600   1.105   2.645   4.758
 6219TIP3   OH218601   1.123   2.678   4.938
 6219TIP3    H118602   1.037   2.687   4.978
 6219TIP3    H218603   1.177   2.638   5.007
 6220TIP3   OH218604   1.894   1.943   6.213
 6220TIP3    H118605   1.810   1.955   6.169
 6220TIP3    H218606   1.913   1.850   6.206
 6221TIP3   OH218607   0.487   2.361   6.252
 6221TIP3    H118608   0.546   2.333   6.322
 6221TIP3    H218609   0.420   2.292   6.249
 6222TIP3   OH218610   0.890   1.181   5.997
 6222TIP3    H118611   0.807   1.140   5.976
 6222TIP3    H218612   0.868   1.253   6.056
 6223TIP3   OH218613   1.461   1.293   6.208
 6223TIP3    H118614   1.526   1.264   6.272
 6223TIP3    H218615   1.377   1.278   6.250
 6224TIP3   OH218616   1.655   1.720   6.140
 6224TIP3    H118617   1.610   1.717   6.224
 6224TIP3    H218618   1.635   1.808   6.106
 6225TIP3   OH218619   1.322   1.851   4.693
 6225TIP3    H118620   1.287   1.826   4.607
 6225TIP3    H218621   1.408   1.888   4.674
 6226TIP3   OH218622   1.033   1.222   4.995
 6226TIP3    H118623   1.006   1.218   5.086
 6226TIP3    H218624   0.994   1.145   4.954
 6227TIP3   OH218625   0.827   1.700   6.043
 6227TIP3    H118626   0.787   1.722   6.126
 6227TIP3    H218627   0.811   1.776   5.987
 6228TIP3   OH218628   0.716   1.584   5.543
 6228TIP3    H118629   0.628   1.551   5.559
 6228TIP3    H218630   0.740   1.545   5.458
 6229TIP3   OH218631   1.198   1.665   5.285
 6229TIP3    H118632   1.147   1.734   5.243
 6229TIP3    H218633   1.253   1.629   5.216
 6230TIP3   OH218634   1.373   1.939   6.371
 6230TIP3    H118635   1.347   1.869   6.430
 6230TIP3    H218636   1.465   1.955   6.393
 6231TIP3   OH218637   1.353   1.687   5.519
 6231TIP3    H118638   1.289   1.717   5.454
 6231TIP3    H218639   1.392   1.609   5.480
 6232TIP3   OH218640   0.646   1.732   6.249
 6232TIP3    H118641   0.697   1.781   6.314
 6232TIP3    H218642   0.626   1.649   6.292
 6233TIP3   OH218643   0.696   1.191   4.968
 6233TIP3    H118644   0.681   1.183   5.063
 6233TIP3    H218645   0.624   1.246   4.937
 6234TIP3   OH218646   1.362   1.933   5.944
 6234TIP3    H118647   1.396   1.866   5.885
 6234TIP3    H218648   1.333   1.884   6.021
 6235TIP3   OH218649   1.050   1.405   5.617
 6235TIP3    H118650   0.972   1.404   5.672
 6235TIP3    H218651   1.123   1.388   5.677
 6236TIP3   OH218652   0.491   1.440   5.578
 6236TIP3    H118653   0.399   1.436   5.603
 6236TIP3    H218654   0.529   1.358   5.610
 6237TIP3   OH218655   0.740   1.458   5.307
 6237TIP3    H118656   0.832   1.469   5.284
 6237TIP3    H218657   0.693   1.478   5.226
 6238TIP3   OH218658   1.524   1.475   5.823
 6238TIP3    H118659   1.494   1.491   5.912
 6238TIP3    H218660   1.459   1.416   5.786
 6239TIP3   OH218661   0.572   1.498   5.090
 6239TIP3    H118662   0.507   1.442   5.048
 6239TIP3    H218663   0.629   1.527   5.018
 6240TIP3   OH218664   1.699   3.167   6.041
 6240TIP3    H118665   1.699   3.185   5.947
 6240TIP3    H218666   1.778   3.208   6.074
 6241TIP3   OH218667   0.654   2.281   6.462
 6241TIP3    H118668   0.736   2.303   6.506
 6241TIP3    H218669   0.590   2.272   6.533
 6242TIP3   OH218670   1.115   1.731   5.719
 6242TIP3    H118671   1.185   1.687   5.670
 6242TIP3    H218672   1.115   1.689   5.805
 6243TIP3   OH218673   0.722   1.220   5.557
 6243TIP3    H118674   0.670   1.146   5.587
 6243TIP3    H218675   0.807   1.182   5.535
 6244TIP3   OH218676   1.094   1.637   5.995
 6244TIP3    H118677   1.005   1.667   6.015
 6244TIP3    H218678   1.150   1.692   6.048
 6245TIP3   OH218679   0.824   2.015   5.099
 6245TIP3    H118680   0.756   1.949   5.086
 6245TIP3    H218681   0.808   2.049   5.188
 6246TIP3   OH218682   1.725   2.253   5.725
 6246TIP3    H118683   1.750   2.302   5.647
 6246TIP3    H218684   1.643   2.209   5.701
 6247TIP3   OH218685   1.284   1.328   4.963
 6247TIP3    H118686   1.191   1.308   4.974
 6247TIP3    H218687   1.293   1.419   4.991
 6248TIP3   OH218688   1.230   2.336   6.097
 6248TIP3    H118689   1.260   2.308   6.183
 6248TIP3    H218690   1.189   2.422   6.113
 6249TIP3   OH218691   1.357   1.577   5.070
 6249TIP3    H118692   1.452   1.579   5.085
 6249TIP3    H218693   1.340   1.655   5.017
 6250TIP3   OH218694   0.526   2.043   5.773
 6250TIP3    H118695   0.561   2.013   5.689
 6250TIP3    H218696   0.562   1.980   5.837
 6251TIP3   OH218697   0.971   2.166   4.924
 6251TIP3    H118698   0.925   2.250   4.926
 6251TIP3    H218699   0.920   2.109   4.982
 6252TIP3   OH218700   0.443   1.938   6.396
 6252TIP3    H118701   0.483   1.953   6.482
 6252TIP3    H218702   0.350   1.929   6.414
 6253TIP3   OH218703   1.132   2.076   6.404
 6253TIP3    H118704   1.071   2.012   6.369
 6253TIP3    H218705   1.219   2.041   6.382
 6254TIP3   OH218706   1.384   2.606   5.991
 6254TIP3    H118707   1.290   2.594   6.005
 6254TIP3    H218708   1.415   2.650   6.070
 6255TIP3   OH218709   1.790   1.659   4.894
 6255TIP3    H118710   1.726   1.626   4.831
 6255TIP3    H218711   1.799   1.752   4.872
 6256TIP3   OH218712   2.015   2.525   5.979
 6256TIP3    H118713   1.920   2.520   5.977
 6256TIP3    H218714   2.043   2.495   5.893
 6257TIP3   OH218715   1.495   2.481   4.808
 6257TIP3    H118716   1.475   2.415   4.875
 6257TIP3    H218717   1.512   2.430   4.729
 6258TIP3   OH218718   1.492   2.113   5.641
 6258TIP3    H118719   1.400   2.091   5.657
 6258TIP3    H218720   1.529   2.035   5.600
 6259TIP3   OH218721   0.623   2.345   5.401
 6259TIP3    H118722   0.620   2.424   5.347
 6259TIP3    H218723   0.531   2.322   5.415
 6260TIP3   OH218724   0.164   1.654   5.130
 6260TIP3    H118725   0.233   1.720   5.121
 6260TIP3    H218726   0.112   1.682   5.205
 6261TIP3   OH218727   0.753   2.106   5.343
 6261TIP3    H118728   0.722   2.195   5.362
 6261TIP3    H218729   0.723   2.054   5.416
 6262TIP3   OH218730   0.896   2.685   5.871
 6262TIP3    H118731   0.940   2.756   5.824
 6262TIP3    H218732   0.967   2.642   5.920
 6263TIP3   OH218733   0.537   2.585   5.253
 6263TIP3    H118734   0.454   2.590   5.300
 6263TIP3    H218735   0.571   2.674   5.254
 6264TIP3   OH218736   1.280   2.320   5.830
 6264TIP3    H118737   1.266   2.320   5.925
 6264TIP3    H218738   1.355   2.263   5.816
 6265TIP3   OH218739   1.264   2.198   4.712
 6265TIP3    H118740   1.319   2.180   4.788
 6265TIP3    H218741   1.175   2.180   4.742
 6266TIP3   OH218742   1.526   2.852   5.881
 6266TIP3    H118743   1.452   2.792   5.881
 6266TIP3    H218744   1.507   2.913   5.809
 6267TIP3   OH218745   1.588   2.680   4.532
 6267TIP3    H118746   1.631   2.745   4.476
 6267TIP3    H218747   1.512   2.725   4.567
 6268TIP3   OH218748   1.420   2.145   4.930
 6268TIP3    H118749   1.406   2.081   5.000
 6268TIP3    H218750   1.515   2.144   4.916
 6269TIP3   OH218751   0.324   2.541   6.032
 6269TIP3    H118752   0.384   2.473   6.062
 6269TIP3    H218753   0.352   2.620   6.079
 6270TIP3   OH218754   0.618   2.191   4.715
 6270TIP3    H118755   0.632   2.101   4.686
 6270TIP3    H218756   0.599   2.184   4.808
 6271TIP3   OH218757   0.565   2.200   4.986
 6271TIP3    H118758   0.638   2.168   5.039
 6271TIP3    H218759   0.568   2.295   4.994
 6272TIP3   OH218760   0.300   1.887   5.182
 6272TIP3    H118761   0.237   1.930   5.241
 6272TIP3    H218762   0.320   1.954   5.116
 6273TIP3   OH218763   1.453   1.534   6.081
 6273TIP3    H118764   1.532   1.578   6.111
 6273TIP3    H218765   1.451   1.452   6.129
 6274TIP3   OH218766   1.336   1.279   5.246
 6274TIP3    H118767   1.323   1.299   5.154
 6274TIP3    H218768   1.376   1.358   5.283
 6275TIP3   OH218769   0.829   2.397   4.931
 6275TIP3    H118770   0.744   2.417   4.970
 6275TIP3    H218771   0.848   2.472   4.874
 6276TIP3   OH218772   1.020   1.465   5.349
 6276TIP3    H118773   1.082   1.535   5.331
 6276TIP3    H218774   1.026   1.451   5.443
 6277TIP3   OH218775   1.291   1.776   6.154
 6277TIP3    H118776   1.314   1.826   6.232
 6277TIP3    H218777   1.341   1.694   6.162
 6278TIP3   OH218778   1.171   1.187   5.449
 6278TIP3    H118779   1.167   1.260   5.511
 6278TIP3    H218780   1.231   1.218   5.381
 6279TIP3   OH218781   0.576   2.473   5.003
 6279TIP3    H118782   0.547   2.540   4.941
 6279TIP3    H218783   0.560   2.512   5.089
 6280TIP3   OH218784   0.697   1.196   5.244
 6280TIP3    H118785   0.697   1.284   5.282
 6280TIP3    H218786   0.788   1.169   5.245
 6281TIP3   OH218787   1.920   1.679   6.127
 6281TIP3    H118788   1.825   1.681   6.141
 6281TIP3    H218789   1.932   1.620   6.052
 6282TIP3   OH218790   1.580   1.870   5.525
 6282TIP3    H118791   1.505   1.812   5.536
 6282TIP3    H218792   1.652   1.826   5.570
 6283TIP3   OH218793   0.302   2.097   4.987
 6283TIP3    H118794   0.369   2.164   5.002
 6283TIP3    H218795   0.340   2.038   4.923
 6284TIP3   OH218796   0.279   1.406   5.037
 6284TIP3    H118797   0.276   1.489   5.086
 6284TIP3    H218798   0.236   1.343   5.095
 6285TIP3   OH218799   1.549   2.833   5.469
 6285TIP3    H118800   1.505   2.881   5.399
 6285TIP3    H218801   1.643   2.848   5.453
 6286TIP3   OH218802   0.162   2.323   5.376
 6286TIP3    H118803   0.100   2.350   5.443
 6286TIP3    H218804   0.129   2.362   5.295
 6287TIP3   OH218805   0.349   2.872   6.433
 6287TIP3    H118806   0.423   2.887   6.492
 6287TIP3    H218807   0.334   2.778   6.435
 6288TIP3   OH218808   0.800   2.817   6.493
 6288TIP3    H118809   0.893   2.799   6.507
 6288TIP3    H218810   0.775   2.758   6.422
 6289TIP3   OH218811   0.781   2.391   4.623
 6289TIP3    H118812   0.721   2.327   4.661
 6289TIP3    H218813   0.859   2.340   4.598
 6290TIP3   OH218814   1.441   2.727   6.231
 6290TIP3    H118815   1.431   2.658   6.296
 6290TIP3    H218816   1.518   2.776   6.259
 6291TIP3   OH218817   1.218   2.440   4.550
 6291TIP3    H118818   1.275   2.385   4.603
 6291TIP3    H218819   1.258   2.438   4.462
 6292TIP3   OH218820   0.447   2.253   6.648
 6292TIP3    H118821   0.486   2.166   6.655
 6292TIP3    H218822   0.353   2.237   6.639
 6293TIP3   OH218823   0.433   1.906   4.848
 6293TIP3    H118824   0.485   1.878   4.923
 6293TIP3    H218825   0.496   1.914   4.776
 6294TIP3   OH218826   1.056   2.349   6.426
 6294TIP3    H118827   1.019   2.365   6.339
 6294TIP3    H218828   1.090   2.259   6.421
 6295TIP3   OH218829   0.943   2.111   4.657
 6295TIP3    H118830   0.946   2.124   4.752
 6295TIP3    H218831   0.944   2.016   4.647
 6296TIP3   OH218832   1.550   2.363   6.032
 6296TIP3    H118833   1.627   2.403   5.991
 6296TIP3    H218834   1.479   2.425   6.016
 6297TIP3   OH218835   0.564   2.003   6.641
 6297TIP3    H118836   0.630   1.935   6.627
 6297TIP3    H218837   0.571   2.022   6.735
 6298TIP3   OH218838   0.630   1.817   5.063
 6298TIP3    H118839   0.609   1.781   5.149
 6298TIP3    H218840   0.670   1.744   5.016
 6299TIP3   OH218841   0.906   1.874   6.286
 6299TIP3    H118842   0.837   1.940   6.294
 6299TIP3    H218843   0.963   1.908   6.217
 6300TIP3   OH218844   0.741   1.615   4.905
 6300TIP3    H118845   0.713   1.617   4.814
 6300TIP3    H218846   0.836   1.615   4.902
 6301TIP3   OH218847   1.425   2.283   6.428
 6301TIP3    H118848   1.504   2.252   6.384
 6301TIP3    H218849   1.413   2.223   6.502
 6302TIP3   OH218850   1.550   1.946   4.572
 6302TIP3    H118851   1.537   1.893   4.493
 6302TIP3    H218852   1.542   2.036   4.543
 6303TIP3   OH218853   1.033   1.661   6.411
 6303TIP3    H118854   1.043   1.588   6.351
 6303TIP3    H218855   0.993   1.730   6.359
 6304TIP3   OH218856   1.049   1.465   6.219
 6304TIP3    H118857   1.071   1.504   6.135
 6304TIP3    H218858   0.961   1.430   6.207
 6305TIP3   OH218859   1.055   1.990   6.098
 6305TIP3    H118860   1.142   2.001   6.059
 6305TIP3    H218861   1.001   2.056   6.054
 6306TIP3   OH218862   1.639   1.956   6.480
 6306TIP3    H118863   1.681   1.873   6.499
 6306TIP3    H218864   1.709   2.013   6.448
 6307TIP3   OH218865   1.682   2.214   6.215
 6307TIP3    H118866   1.623   2.266   6.161
 6307TIP3    H218867   1.769   2.231   6.180
 6308TIP3   OH218868   0.928   1.796   6.625
 6308TIP3    H118869   0.846   1.767   6.666
 6308TIP3    H218870   0.941   1.734   6.553
 6309TIP3   OH218871   1.200   1.245   6.276
 6309TIP3    H118872   1.157   1.328   6.256
 6309TIP3    H218873   1.128   1.184   6.291
 6310TIP3   OH218874   1.288   1.724   6.511
 6310TIP3    H118875   1.278   1.726   6.606
 6310TIP3    H218876   1.204   1.693   6.478
 6311TIP3   OH218877   1.528   1.673   6.372
 6311TIP3    H118878   1.453   1.674   6.432
 6311TIP3    H218879   1.601   1.642   6.426
 6312TIP3   OH218880   1.760   1.614   6.517
 6312TIP3    H118881   1.771   1.520   6.533
 6312TIP3    H218882   1.755   1.653   6.604
 6313TIP3   OH218883   1.244   1.198   6.542
 6313TIP3    H118884   1.323   1.143   6.541
 6313TIP3    H218885   1.232   1.224   6.451
 6314TIP3   OH218886   1.339   1.443   6.668
 6314TIP3    H118887   1.318   1.363   6.620
 6314TIP3    H218888   1.257   1.467   6.712
 6315TIP3   OH218889   0.549   2.676   4.814
 6315TIP3    H118890   0.642   2.664   4.798
 6315TIP3    H218891   0.517   2.725   4.738
 6316TIP3   OH218892   0.037   2.045   5.029
 6316TIP3    H118893   0.128   2.071   5.017
 6316TIP3    H218894   0.031   1.959   4.986
 6317TIP3   OH218895   8.427   2.665   5.453
 6317TIP3    H118896   8.383   2.601   5.397
 6317TIP3    H218897   8.473   2.612   5.518
 6318TIP3   OH218898   0.070   2.520   5.640
 6318TIP3    H118899   0.074   2.451   5.707
 6318TIP3    H218900   0.122   2.592   5.677
 6319TIP3   OH218901   1.803   2.921   5.433
 6319TIP3    H118902   1.831   2.951   5.519
 6319TIP3    H218903   1.870   2.955   5.372
 6320TIP3   OH218904   1.831   2.936   5.717
 6320TIP3    H118905   1.785   2.853   5.710
 6320TIP3    H218906   1.907   2.917   5.772
 6321TIP3   OH218907   1.875   2.618   6.287
 6321TIP3    H118908   1.805   2.624   6.352
 6321TIP3    H218909   1.920   2.702   6.291
 6322TIP3   OH218910   1.695   2.132   4.902
 6322TIP3    H118911   1.762   2.194   4.871
 6322TIP3    H218912   1.731   2.097   4.983
 6323TIP3   OH218913   1.810   2.013   5.115
 6323TIP3    H118914   1.753   1.955   5.164
 6323TIP3    H218915   1.890   2.019   5.168
 6324TIP3   OH218916   1.882   2.389   5.539
 6324TIP3    H118917   1.931   2.320   5.495
 6324TIP3    H218918   1.876   2.459   5.474
 6325TIP3   OH218919   1.704   2.689   5.733
 6325TIP3    H118920   1.635   2.727   5.787
 6325TIP3    H218921   1.658   2.642   5.663
 6326TIP3   OH218922   1.758   1.908   4.754
 6326TIP3    H118923   1.686   1.904   4.691
 6326TIP3    H218924   1.734   1.979   4.813
 6327TIP3   OH218925   1.616   1.579   4.700
 6327TIP3    H118926   1.587   1.606   4.613
 6327TIP3    H218927   1.600   1.484   4.702
 6328TIP3   OH218928   1.633   1.850   5.254
 6328TIP3    H118929   1.644   1.755   5.245
 6328TIP3    H218930   1.620   1.864   5.347
 6329TIP3   OH218931   0.262   1.928   6.023
 6329TIP3    H118932   0.250   1.908   5.930
 6329TIP3    H218933   0.357   1.929   6.035
 6330TIP3   OH218934   1.929   2.275   6.111
 6330TIP3    H118935   1.997   2.208   6.101
 6330TIP3    H218936   1.955   2.344   6.049
 6331TIP3   OH218937   2.114   2.073   6.119
 6331TIP3    H118938   2.039   2.028   6.158
 6331TIP3    H218939   2.188   2.016   6.139
 6332TIP3   OH218940   1.575   1.310   4.689
 6332TIP3    H118941   1.648   1.281   4.743
 6332TIP3    H218942   1.503   1.252   4.713
 6333TIP3   OH218943   1.638   1.567   5.144
 6333TIP3    H118944   1.673   1.480   5.161
 6333TIP3    H218945   1.695   1.603   5.076
 6334TIP3   OH218946   1.800   1.744   5.641
 6334TIP3    H118947   1.881   1.765   5.596
 6334TIP3    H218948   1.811   1.778   5.730
 6335TIP3   OH218949   1.864   1.888   5.872
 6335TIP3    H118950   1.789   1.917   5.924
 6335TIP3    H218951   1.898   1.968   5.832
 6336TIP3   OH218952   2.306   1.468   6.419
 6336TIP3    H118953   2.372   1.406   6.389
 6336TIP3    H218954   2.314   1.542   6.359
 6337TIP3   OH218955   1.739   1.316   5.191
 6337TIP3    H118956   1.789   1.303   5.271
 6337TIP3    H218957   1.679   1.242   5.187
 6338TIP3   OH218958   2.177   1.626   6.220
 6338TIP3    H118959   2.094   1.659   6.252
 6338TIP3    H218960   2.156   1.540   6.183
 6339TIP3   OH218961   1.817   1.252   4.818
 6339TIP3    H118962   1.858   1.182   4.767
 6339TIP3    H218963   1.883   1.322   4.821
 6340TIP3   OH218964   1.388   2.791   5.087
 6340TIP3    H118965   1.431   2.772   5.003
 6340TIP3    H218966   1.448   2.850   5.132
 6341TIP3   OH218967   0.472   2.594   6.475
 6341TIP3    H118968   0.438   2.509   6.446
 6341TIP3    H218969   0.498   2.579   6.566
 6342TIP3   OH218970   0.666   2.628   6.018
 6342TIP3    H118971   0.618   2.703   5.981
 6342TIP3    H218972   0.752   2.634   5.977
 6343TIP3   OH218973   1.110   2.871   6.156
 6343TIP3    H118974   1.149   2.865   6.243
 6343TIP3    H218975   1.174   2.922   6.106
 6344TIP3   OH218976   1.287   3.033   6.009
 6344TIP3    H118977   1.348   2.969   5.971
 6344TIP3    H218978   1.339   3.079   6.075
 6345TIP3   OH218979   2.083   1.376   6.114
 6345TIP3    H118980   1.994   1.368   6.081
 6345TIP3    H218981   2.119   1.288   6.107
 6346TIP3   OH218982   0.339   2.880   6.045
 6346TIP3    H118983   0.250   2.906   6.021
 6346TIP3    H218984   0.353   2.919   6.131
 6347TIP3   OH218985   0.579   2.863   5.904
 6347TIP3    H118986   0.494   2.872   5.949
 6347TIP3    H218987   0.561   2.891   5.814
 6348TIP3   OH218988   1.003   2.898   5.700
 6348TIP3    H118989   0.935   2.894   5.634
 6348TIP3    H218990   0.991   2.983   5.743
 6349TIP3   OH218991   1.271   2.828   5.755
 6349TIP3    H118992   1.180   2.844   5.731
 6349TIP3    H218993   1.321   2.891   5.703
 6350TIP3   OH218994   1.473   3.016   5.659
 6350TIP3    H118995   1.463   3.098   5.611
 6350TIP3    H218996   1.504   2.953   5.593
 6351TIP3   OH218997   0.257   2.671   5.782
 6351TIP3    H118998   0.267   2.647   5.874
 6351TIP3    H218999   0.326   2.623   5.736
 6352TIP3   OH219000   0.453   2.540   5.646
 6352TIP3    H119001   0.463   2.459   5.695
 6352TIP3    H219002   0.541   2.577   5.642
 6353TIP3   OH219003   0.721   2.635   5.653
 6353TIP3    H119004   0.745   2.544   5.637
 6353TIP3    H219005   0.765   2.658   5.735
 6354TIP3   OH219006   1.290   1.297   5.730
 6354TIP3    H119007   1.247   1.234   5.789
 6354TIP3    H219008   1.363   1.249   5.692
 6355TIP3   OH219009   1.807   1.176   5.640
 6355TIP3    H119010   1.843   1.224   5.565
 6355TIP3    H219011   1.713   1.191   5.635
 6356TIP3   OH219012   1.910   1.271   5.401
 6356TIP3    H119013   1.978   1.215   5.364
 6356TIP3    H219014   1.943   1.360   5.388
 6357TIP3   OH219015   0.950   1.064   5.599
 6357TIP3    H119016   1.033   1.095   5.564
 6357TIP3    H219017   0.970   1.035   5.687
 6358TIP3   OH219018   1.524   1.174   5.617
 6358TIP3    H119019   1.529   1.136   5.529
 6358TIP3    H219020   1.510   1.098   5.675
 6359TIP3   OH219021   1.554   1.104   5.181
 6359TIP3    H119022   1.472   1.151   5.196
 6359TIP3    H219023   1.542   1.021   5.227
 6360TIP3   OH219024   0.028   2.448   5.179
 6360TIP3    H119025  -0.040   2.398   5.135
 6360TIP3    H219026   0.024   2.535   5.139
 6361TIP3   OH219027   0.971   1.212   5.262
 6361TIP3    H119028   1.026   1.164   5.324
 6361TIP3    H219029   0.985   1.304   5.283
 6362TIP3   OH219030   0.814   2.627   4.759
 6362TIP3    H119031   0.901   2.653   4.728
 6362TIP3    H219032   0.788   2.555   4.702
 6363TIP3   OH219033   1.527   2.748   4.854
 6363TIP3    H119034   1.521   2.653   4.843
 6363TIP3    H219035   1.487   2.784   4.775
 6364TIP3   OH219036   0.119   2.468   4.818
 6364TIP3    H119037   0.121   2.501   4.907
 6364TIP3    H219038   0.205   2.426   4.806
 6365TIP3   OH219039   1.827   1.343   6.550
 6365TIP3    H119040   1.844   1.315   6.640
 6365TIP3    H219041   1.913   1.342   6.508
 6366TIP3   OH219042   1.755   2.897   6.039
 6366TIP3    H119043   1.679   2.864   5.991
 6366TIP3    H219044   1.738   2.991   6.050
 6367TIP3   OH219045   3.016   2.253   4.812
 6367TIP3    H119046   2.995   2.346   4.799
 6367TIP3    H219047   2.949   2.206   4.763
 6368TIP3   OH219048   3.033   2.279   5.195
 6368TIP3    H119049   3.070   2.250   5.278
 6368TIP3    H219050   2.966   2.213   5.175
 6369TIP3   OH219051   2.329   2.161   5.547
 6369TIP3    H119052   2.351   2.088   5.604
 6369TIP3    H219053   2.387   2.231   5.574
 6370TIP3   OH219054   3.264   2.560   4.882
 6370TIP3    H119055   3.265   2.493   4.950
 6370TIP3    H219056   3.315   2.633   4.917
 6371TIP3   OH219057   2.298   2.573   5.277
 6371TIP3    H119058   2.291   2.477   5.279
 6371TIP3    H219059   2.392   2.591   5.271
 6372TIP3   OH219060   2.065   2.052   5.235
 6372TIP3    H119061   2.115   1.970   5.241
 6372TIP3    H219062   2.098   2.094   5.156
 6373TIP3   OH219063   2.902   3.027   4.877
 6373TIP3    H119064   2.957   2.960   4.837
 6373TIP3    H219065   2.897   3.002   4.969
 6374TIP3   OH219066   2.815   2.492   5.230
 6374TIP3    H119067   2.838   2.427   5.163
 6374TIP3    H219068   2.900   2.525   5.262
 6375TIP3   OH219069   3.838   1.815   5.233
 6375TIP3    H119070   3.866   1.895   5.278
 6375TIP3    H219071   3.866   1.828   5.143
 6376TIP3   OH219072   3.234   1.992   5.276
 6376TIP3    H119073   3.260   1.912   5.322
 6376TIP3    H219074   3.257   1.975   5.184
 6377TIP3   OH219075   2.592   1.654   5.215
 6377TIP3    H119076   2.543   1.725   5.174
 6377TIP3    H219077   2.552   1.574   5.181
 6378TIP3   OH219078   3.238   1.802   4.867
 6378TIP3    H119079   3.299   1.773   4.935
 6378TIP3    H219080   3.293   1.816   4.790
 6379TIP3   OH219081   2.665   2.029   5.112
 6379TIP3    H119082   2.671   2.011   5.206
 6379TIP3    H219083   2.610   1.958   5.077
 6380TIP3   OH219084   3.909   2.022   5.410
 6380TIP3    H119085   3.827   2.067   5.391
 6380TIP3    H219086   3.941   2.061   5.491
 6381TIP3   OH219087   2.558   1.629   5.699
 6381TIP3    H119088   2.520   1.662   5.617
 6381TIP3    H219089   2.498   1.658   5.767
 6382TIP3   OH219090   2.910   2.482   4.680
 6382TIP3    H119091   2.877   2.469   4.591
 6382TIP3    H219092   2.875   2.566   4.707
 6383TIP3   OH219093   2.672   2.417   5.464
 6383TIP3    H119094   2.609   2.478   5.503
 6383TIP3    H219095   2.704   2.463   5.386
 6384TIP3   OH219096   3.456   1.764   5.029
 6384TIP3    H119097   3.460   1.700   5.099
 6384TIP3    H219098   3.526   1.826   5.049
 6385TIP3   OH219099   2.462   1.726   5.469
 6385TIP3    H119100   2.488   1.818   5.477
 6385TIP3    H219101   2.447   1.713   5.375
 6386TIP3   OH219102   2.498   2.610   5.559
 6386TIP3    H119103   2.478   2.696   5.522
 6386TIP3    H219104   2.423   2.589   5.614
 6387TIP3   OH219105   1.897   2.302   4.794
 6387TIP3    H119106   1.858   2.328   4.711
 6387TIP3    H219107   1.929   2.384   4.832
 6388TIP3   OH219108   3.317   2.827   5.045
 6388TIP3    H119109   3.224   2.810   5.033
 6388TIP3    H219110   3.332   2.910   5.001
 6389TIP3   OH219111   3.632   1.710   5.397
 6389TIP3    H119112   3.547   1.743   5.367
 6389TIP3    H219113   3.694   1.742   5.331
 6390TIP3   OH219114   2.927   1.355   5.387
 6390TIP3    H119115   2.917   1.260   5.396
 6390TIP3    H219116   2.851   1.390   5.433
 6391TIP3   OH219117   3.055   2.856   4.727
 6391TIP3    H119118   3.092   2.773   4.697
 6391TIP3    H219119   3.107   2.923   4.682
 6392TIP3   OH219120   3.176   2.637   4.626
 6392TIP3    H119121   3.143   2.562   4.577
 6392TIP3    H219122   3.210   2.599   4.708
 6393TIP3   OH219123   3.549   2.725   5.385
 6393TIP3    H119124   3.548   2.649   5.326
 6393TIP3    H219125   3.542   2.801   5.326
 6394TIP3   OH219126   2.855   2.109   4.650
 6394TIP3    H119127   2.780   2.164   4.628
 6394TIP3    H219128   2.901   2.098   4.567
 6395TIP3   OH219129   2.818   1.904   4.353
 6395TIP3    H119130   2.882   1.959   4.399
 6395TIP3    H219131   2.871   1.841   4.304
 6396TIP3   OH219132   3.755   2.361   5.222
 6396TIP3    H119133   3.676   2.414   5.231
 6396TIP3    H219134   3.791   2.385   5.137
 6397TIP3   OH219135   3.201   2.202   4.615
 6397TIP3    H119136   3.149   2.227   4.691
 6397TIP3    H219137   3.287   2.180   4.651
 6398TIP3   OH219138   3.435   2.240   5.526
 6398TIP3    H119139   3.441   2.317   5.581
 6398TIP3    H219140   3.352   2.251   5.478
 6399TIP3   OH219141   2.439   2.189   5.025
 6399TIP3    H119142   2.390   2.142   4.958
 6399TIP3    H219143   2.517   2.135   5.040
 6400TIP3   OH219144   2.561   2.612   5.170
 6400TIP3    H119145   2.535   2.581   5.084
 6400TIP3    H219146   2.647   2.573   5.185
 6401TIP3   OH219147   2.610   2.168   5.367
 6401TIP3    H119148   2.572   2.189   5.282
 6401TIP3    H219149   2.625   2.253   5.408
 6402TIP3   OH219150   2.711   2.705   5.706
 6402TIP3    H119151   2.664   2.777   5.749
 6402TIP3    H219152   2.644   2.660   5.655
 6403TIP3   OH219153   3.045   2.055   4.440
 6403TIP3    H119154   3.098   2.116   4.491
 6403TIP3    H219155   3.073   2.071   4.349
 6404TIP3   OH219156   2.460   2.285   5.804
 6404TIP3    H119157   2.472   2.369   5.847
 6404TIP3    H219158   2.370   2.259   5.825
 6405TIP3   OH219159   2.793   2.736   4.713
 6405TIP3    H119160   2.866   2.797   4.727
 6405TIP3    H219161   2.727   2.788   4.666
 6406TIP3   OH219162   2.506   2.888   5.791
 6406TIP3    H119163   2.471   2.892   5.702
 6406TIP3    H219164   2.429   2.869   5.846
 6407TIP3   OH219165   3.559   1.300   4.485
 6407TIP3    H119166   3.479   1.320   4.534
 6407TIP3    H219167   3.575   1.379   4.433
 6408TIP3   OH219168   2.303   2.043   4.826
 6408TIP3    H119169   2.233   2.083   4.774
 6408TIP3    H219170   2.264   1.963   4.861
 6409TIP3   OH219171   3.361   2.669   4.036
 6409TIP3    H119172   3.367   2.763   4.019
 6409TIP3    H219173   3.449   2.636   4.021
 6410TIP3   OH219174   2.081   2.423   5.738
 6410TIP3    H119175   2.014   2.404   5.673
 6410TIP3    H219176   2.118   2.337   5.761
 6411TIP3   OH219177   1.938   2.622   5.369
 6411TIP3    H119178   2.033   2.612   5.359
 6411TIP3    H219179   1.928   2.697   5.427
 6412TIP3   OH219180   3.803   3.070   5.436
 6412TIP3    H119181   3.802   2.975   5.449
 6412TIP3    H219182   3.721   3.100   5.475
 6413TIP3   OH219183   2.670   2.983   4.516
 6413TIP3    H119184   2.626   2.969   4.433
 6413TIP3    H219185   2.640   3.070   4.544
 6414TIP3   OH219186   2.105   2.829   4.901
 6414TIP3    H119187   2.152   2.825   4.984
 6414TIP3    H219188   2.054   2.748   4.898
 6415TIP3   OH219189   2.871   2.881   4.151
 6415TIP3    H119190   2.929   2.814   4.116
 6415TIP3    H219191   2.904   2.897   4.239
 6416TIP3   OH219192   2.919   2.935   4.420
 6416TIP3    H119193   2.833   2.946   4.460
 6416TIP3    H219194   2.975   2.904   4.491
 6417TIP3   OH219195   3.689   2.195   5.706
 6417TIP3    H119196   3.607   2.208   5.659
 6417TIP3    H219197   3.708   2.102   5.699
 6418TIP3   OH219198   2.285   2.606   5.725
 6418TIP3    H119199   2.335   2.594   5.806
 6418TIP3    H219200   2.212   2.546   5.732
 6419TIP3   OH219201   2.684   1.432   5.534
 6419TIP3    H119202   2.615   1.369   5.512
 6419TIP3    H219203   2.654   1.514   5.495
 6420TIP3   OH219204   3.218   1.548   5.731
 6420TIP3    H119205   3.301   1.517   5.765
 6420TIP3    H219206   3.164   1.563   5.808
 6421TIP3   OH219207   3.452   1.975   5.625
 6421TIP3    H119208   3.406   1.972   5.708
 6421TIP3    H219209   3.433   2.063   5.591
 6422TIP3   OH219210   3.127   2.118   4.187
 6422TIP3    H119211   3.104   2.082   4.101
 6422TIP3    H219212   3.124   2.213   4.175
 6423TIP3   OH219213   2.828   1.476   4.483
 6423TIP3    H119214   2.795   1.473   4.573
 6423TIP3    H219215   2.791   1.399   4.441
 6424TIP3   OH219216   2.624   1.953   5.534
 6424TIP3    H119217   2.566   1.970   5.609
 6424TIP3    H219218   2.616   2.031   5.479
 6425TIP3   OH219219   2.492   1.840   5.035
 6425TIP3    H119220   2.410   1.838   5.084
 6425TIP3    H219221   2.478   1.781   4.962
 6426TIP3   OH219222   3.167   2.193   5.859
 6426TIP3    H119223   3.143   2.124   5.921
 6426TIP3    H219224   3.258   2.213   5.880
 6427TIP3   OH219225   2.438   1.975   5.737
 6427TIP3    H119226   2.453   2.040   5.807
 6427TIP3    H219227   2.418   1.894   5.784
 6428TIP3   OH219228   2.485   1.457   4.452
 6428TIP3    H119229   2.476   1.448   4.547
 6428TIP3    H219230   2.410   1.510   4.425
 6429TIP3   OH219231   2.036   1.496   5.322
 6429TIP3    H119232   2.099   1.541   5.378
 6429TIP3    H219233   2.073   1.503   5.234
 6430TIP3   OH219234   1.995   1.480   4.834
 6430TIP3    H119235   2.044   1.518   4.761
 6430TIP3    H219236   1.934   1.549   4.861
 6431TIP3   OH219237   3.142   2.190   5.431
 6431TIP3    H119238   3.181   2.124   5.374
 6431TIP3    H219239   3.120   2.143   5.511
 6432TIP3   OH219240   2.838   1.687   5.103
 6432TIP3    H119241   2.752   1.681   5.146
 6432TIP3    H219242   2.900   1.657   5.169
 6433TIP3   OH219243   2.537   1.700   4.792
 6433TIP3    H119244   2.608   1.760   4.767
 6433TIP3    H219245   2.469   1.717   4.727
 6434TIP3   OH219246   3.318   1.729   5.308
 6434TIP3    H119247   3.294   1.737   5.400
 6434TIP3    H219248   3.254   1.667   5.272
 6435TIP3   OH219249   2.376   1.742   4.582
 6435TIP3    H119250   2.300   1.700   4.541
 6435TIP3    H219251   2.427   1.775   4.508
 6436TIP3   OH219252   3.495   3.420   5.526
 6436TIP3    H119253   3.490   3.449   5.435
 6436TIP3    H219254   3.573   3.465   5.561
 6437TIP3   OH219255   2.451   2.532   5.949
 6437TIP3    H119256   2.530   2.560   5.994
 6437TIP3    H219257   2.384   2.526   6.017
 6438TIP3   OH219258   2.473   1.445   5.088
 6438TIP3    H119259   2.416   1.392   5.143
 6438TIP3    H219260   2.462   1.410   5.000
 6439TIP3   OH219261   2.884   1.857   5.544
 6439TIP3    H119262   2.799   1.897   5.529
 6439TIP3    H219263   2.944   1.931   5.557
 6440TIP3   OH219264   2.629   2.266   4.595
 6440TIP3    H119265   2.557   2.205   4.577
 6440TIP3    H219266   2.609   2.303   4.680
 6441TIP3   OH219267   3.526   2.512   5.212
 6441TIP3    H119268   3.555   2.561   5.135
 6441TIP3    H219269   3.444   2.471   5.186
 6442TIP3   OH219270   3.084   1.570   4.464
 6442TIP3    H119271   2.990   1.556   4.462
 6442TIP3    H219272   3.095   1.665   4.476
 6443TIP3   OH219273   3.040   2.691   5.602
 6443TIP3    H119274   3.078   2.607   5.629
 6443TIP3    H219275   2.949   2.686   5.629
 6444TIP3   OH219276   3.155   1.824   4.556
 6444TIP3    H119277   3.248   1.840   4.567
 6444TIP3    H219278   3.122   1.905   4.515
 6445TIP3   OH219279   2.338   2.301   5.265
 6445TIP3    H119280   2.360   2.261   5.181
 6445TIP3    H219281   2.327   2.227   5.325
 6446TIP3   OH219282   2.771   2.423   4.416
 6446TIP3    H119283   2.725   2.506   4.416
 6446TIP3    H219284   2.719   2.367   4.474
 6447TIP3   OH219285   2.202   2.209   5.876
 6447TIP3    H119286   2.217   2.196   5.970
 6447TIP3    H219287   2.130   2.149   5.855
 6448TIP3   OH219288   2.925   2.330   5.893
 6448TIP3    H119289   2.860   2.268   5.860
 6448TIP3    H219290   3.009   2.293   5.866
 6449TIP3   OH219291   3.587   1.923   4.389
 6449TIP3    H119292   3.527   1.879   4.328
 6449TIP3    H219293   3.595   2.012   4.354
 6450TIP3   OH219294   3.806   2.777   5.470
 6450TIP3    H119295   3.710   2.775   5.466
 6450TIP3    H219296   3.834   2.751   5.382
 6451TIP3   OH219297   3.298   2.739   4.297
 6451TIP3    H119298   3.264   2.669   4.353
 6451TIP3    H219299   3.308   2.699   4.211
 6452TIP3   OH219300   3.297   2.374   5.114
 6452TIP3    H119301   3.207   2.355   5.143
 6452TIP3    H219302   3.327   2.291   5.076
 6453TIP3   OH219303   2.420   2.601   4.890
 6453TIP3    H119304   2.420   2.680   4.835
 6453TIP3    H219305   2.327   2.581   4.901
 6454TIP3   OH219306   1.990   1.904   4.609
 6454TIP3    H119307   2.032   1.988   4.625
 6454TIP3    H219308   1.911   1.905   4.662
 6455TIP3   OH219309   2.555   2.364   4.836
 6455TIP3    H119310   2.522   2.453   4.849
 6455TIP3    H219311   2.515   2.313   4.906
 6456TIP3   OH219312   2.686   2.954   5.357
 6456TIP3    H119313   2.725   3.015   5.295
 6456TIP3    H219314   2.734   2.969   5.438
 6457TIP3   OH219315   2.340   2.837   4.744
 6457TIP3    H119316   2.254   2.847   4.786
 6457TIP3    H219317   2.377   2.926   4.744
 6458TIP3   OH219318   3.047   2.445   4.205
 6458TIP3    H119319   3.101   2.437   4.284
 6458TIP3    H219320   2.957   2.442   4.237
 6459TIP3   OH219321   3.317   3.107   5.358
 6459TIP3    H119322   3.232   3.079   5.324
 6459TIP3    H219323   3.342   3.181   5.302
 6460TIP3   OH219324   3.388   2.946   4.017
 6460TIP3    H119325   3.429   3.017   3.967
 6460TIP3    H219326   3.308   2.984   4.052
 6461TIP3   OH219327   2.395   1.727   5.885
 6461TIP3    H119328   2.300   1.739   5.889
 6461TIP3    H219329   2.417   1.685   5.968
 6462TIP3   OH219330   3.216   2.402   4.422
 6462TIP3    H119331   3.205   2.336   4.490
 6462TIP3    H219332   3.310   2.403   4.404
 6463TIP3   OH219333   2.126   2.802   5.517
 6463TIP3    H119334   2.179   2.731   5.554
 6463TIP3    H219335   2.149   2.879   5.569
 6464TIP3   OH219336   2.416   2.447   4.200
 6464TIP3    H119337   2.429   2.356   4.173
 6464TIP3    H219338   2.395   2.442   4.293
 6465TIP3   OH219339   2.361   2.457   4.472
 6465TIP3    H119340   2.434   2.431   4.529
 6465TIP3    H219341   2.360   2.552   4.475
 6466TIP3   OH219342   2.094   2.151   4.678
 6466TIP3    H119343   2.028   2.192   4.734
 6466TIP3    H219344   2.108   2.215   4.607
 6467TIP3   OH219345   3.256   1.771   5.566
 6467TIP3    H119346   3.327   1.821   5.606
 6467TIP3    H219347   3.239   1.699   5.626
 6468TIP3   OH219348   3.096   1.569   4.739
 6468TIP3    H119349   3.096   1.556   4.644
 6468TIP3    H219350   3.162   1.637   4.754
 6469TIP3   OH219351   2.627   2.653   4.421
 6469TIP3    H119352   2.541   2.675   4.456
 6469TIP3    H219353   2.647   2.723   4.359
 6470TIP3   OH219354   2.873   1.742   4.840
 6470TIP3    H119355   2.917   1.670   4.795
 6470TIP3    H219356   2.844   1.704   4.923
 6471TIP3   OH219357   3.094   2.035   5.644
 6471TIP3    H119358   3.109   2.091   5.720
 6471TIP3    H219359   3.141   1.954   5.665
 6472TIP3   OH219360   2.954   1.449   4.941
 6472TIP3    H119361   2.984   1.499   5.017
 6472TIP3    H219362   3.013   1.476   4.870
 6473TIP3   OH219363   2.372   2.727   4.489
 6473TIP3    H119364   2.345   2.794   4.426
 6473TIP3    H219365   2.358   2.769   4.575
 6474TIP3   OH219366   2.470   1.438   4.728
 6474TIP3    H119367   2.467   1.527   4.763
 6474TIP3    H219368   2.563   1.414   4.731
 6475TIP3   OH219369   3.720   1.931   5.629
 6475TIP3    H119370   3.625   1.927   5.631
 6475TIP3    H219371   3.743   1.899   5.541
 6476TIP3   OH219372   3.384   2.121   5.013
 6476TIP3    H119373   3.337   2.037   5.006
 6476TIP3    H219374   3.465   2.100   5.059
 6477TIP3   OH219375   2.091   2.352   4.480
 6477TIP3    H119376   2.153   2.425   4.490
 6477TIP3    H219377   2.131   2.295   4.415
 6478TIP3   OH219378   2.039   1.634   4.608
 6478TIP3    H119379   2.036   1.730   4.613
 6478TIP3    H219380   1.952   1.609   4.577
 6479TIP3   OH219381   3.349   3.080   4.951
 6479TIP3    H119382   3.304   3.126   4.880
 6479TIP3    H219383   3.442   3.101   4.938
 6480TIP3   OH219384   2.434   1.347   5.481
 6480TIP3    H119385   2.400   1.323   5.396
 6480TIP3    H219386   2.413   1.273   5.538
 6481TIP3   OH219387   1.954   2.569   4.862
 6481TIP3    H119388   1.895   2.599   4.931
 6481TIP3    H219389   1.923   2.612   4.782
 6482TIP3   OH219390   2.121   3.117   5.941
 6482TIP3    H119391   2.205   3.121   5.987
 6482TIP3    H219392   2.101   3.023   5.938
 6483TIP3   OH219393   2.593   3.072   5.983
 6483TIP3    H119394   2.687   3.062   5.993
 6483TIP3    H219395   2.569   3.010   5.913
 6484TIP3   OH219396   2.578   2.652   4.109
 6484TIP3    H119397   2.528   2.578   4.145
 6484TIP3    H219398   2.654   2.611   4.066
 6485TIP3   OH219399   3.240   2.947   5.682
 6485TIP3    H119400   3.229   2.896   5.761
 6485TIP3    H219401   3.308   3.010   5.703
 6486TIP3   OH219402   3.022   2.680   4.024
 6486TIP3    H119403   3.068   2.614   4.076
 6486TIP3    H219404   3.074   2.689   3.944
 6487TIP3   OH219405   2.247   2.520   6.136
 6487TIP3    H119406   2.264   2.427   6.147
 6487TIP3    H219407   2.161   2.524   6.093
 6488TIP3   OH219408   2.230   2.168   4.338
 6488TIP3    H119409   2.284   2.141   4.412
 6488TIP3    H219410   2.292   2.176   4.265
 6489TIP3   OH219411   2.858   2.607   5.914
 6489TIP3    H119412   2.808   2.627   5.835
 6489TIP3    H219413   2.885   2.516   5.903
 6490TIP3   OH219414   2.738   2.364   4.146
 6490TIP3    H119415   2.741   2.381   4.241
 6490TIP3    H219416   2.739   2.269   4.139
 6491TIP3   OH219417   3.348   2.589   5.525
 6491TIP3    H119418   3.415   2.638   5.476
 6491TIP3    H219419   3.280   2.653   5.543
 6492TIP3   OH219420   2.374   2.260   6.122
 6492TIP3    H119421   2.442   2.195   6.104
 6492TIP3    H219422   2.394   2.292   6.210
 6493TIP3   OH219423   2.433   2.074   4.556
 6493TIP3    H119424   2.399   2.038   4.638
 6493TIP3    H219425   2.467   1.998   4.509
 6494TIP3   OH219426   2.707   2.145   5.786
 6494TIP3    H119427   2.626   2.196   5.786
 6494TIP3    H219428   2.754   2.176   5.708
 6495TIP3   OH219429   2.538   1.868   4.395
 6495TIP3    H119430   2.509   1.880   4.305
 6495TIP3    H219431   2.633   1.872   4.390
 6496TIP3   OH219432   3.225   2.542   5.912
 6496TIP3    H119433   3.314   2.518   5.886
 6496TIP3    H219434   3.204   2.481   5.983
 6497TIP3   OH219435   2.824   1.935   5.912
 6497TIP3    H119436   2.811   1.855   5.861
 6497TIP3    H219437   2.784   2.004   5.859
 6498TIP3   OH219438   2.828   1.644   5.694
 6498TIP3    H119439   2.889   1.694   5.641
 6498TIP3    H219440   2.746   1.693   5.689
 6499TIP3   OH219441   2.855   2.253   5.588
 6499TIP3    H119442   2.936   2.257   5.537
 6499TIP3    H219443   2.795   2.312   5.543
 6500TIP3   OH219444   3.435   2.212   5.967
 6500TIP3    H119445   3.482   2.132   5.988
 6500TIP3    H219446   3.501   2.271   5.932
 6501TIP3   OH219447   3.490   2.457   5.705
 6501TIP3    H119448   3.428   2.504   5.649
 6501TIP3    H219449   3.576   2.481   5.670
 6502TIP3   OH219450   2.699   2.038   6.144
 6502TIP3    H119451   2.638   1.972   6.176
 6502TIP3    H219452   2.731   2.002   6.061
 6503TIP3   OH219453   3.083   1.979   6.007
 6503TIP3    H119454   3.076   1.965   6.101
 6503TIP3    H219455   2.996   1.959   5.972
 6504TIP3   OH219456   3.319   1.922   5.855
 6504TIP3    H119457   3.248   1.929   5.918
 6504TIP3    H219458   3.395   1.896   5.907
 6505TIP3   OH219459   3.552   1.870   6.003
 6505TIP3    H119460   3.565   1.776   6.019
 6505TIP3    H219461   3.547   1.909   6.090
 6506TIP3   OH219462   3.077   1.500   5.991
 6506TIP3    H119463   3.145   1.435   6.010
 6506TIP3    H219464   2.996   1.449   5.989
 6507TIP3   OH219465   3.125   1.702   6.194
 6507TIP3    H119466   3.104   1.641   6.124
 6507TIP3    H219467   3.047   1.757   6.203
 6508TIP3   OH219468   2.344   2.923   4.297
 6508TIP3    H119469   2.438   2.919   4.284
 6508TIP3    H219470   2.312   2.979   4.226
 6509TIP3   OH219471   1.820   2.307   4.511
 6509TIP3    H119472   1.910   2.335   4.498
 6509TIP3    H219473   1.815   2.220   4.472
 6510TIP3   OH219474   1.732   2.918   4.937
 6510TIP3    H119475   1.670   2.859   4.894
 6510TIP3    H219476   1.780   2.862   4.998
 6511TIP3   OH219477   1.872   2.766   5.121
 6511TIP3    H119478   1.861   2.697   5.186
 6511TIP3    H219479   1.924   2.833   5.165
 6512TIP3   OH219480   3.602   3.171   4.922
 6512TIP3    H119481   3.625   3.219   5.001
 6512TIP3    H219482   3.657   3.210   4.853
 6513TIP3   OH219483   3.621   3.197   5.209
 6513TIP3    H119484   3.593   3.107   5.194
 6513TIP3    H219485   3.706   3.189   5.252
 6514TIP3   OH219486   3.671   2.873   5.774
 6514TIP3    H119487   3.602   2.881   5.840
 6514TIP3    H219488   3.716   2.957   5.775
 6515TIP3   OH219489   3.495   2.385   4.392
 6515TIP3    H119490   3.555   2.453   4.362
 6515TIP3    H219491   3.538   2.348   4.469
 6516TIP3   OH219492   3.621   2.251   4.596
 6516TIP3    H119493   3.556   2.212   4.654
 6516TIP3    H219494   3.688   2.286   4.654
 6517TIP3   OH219495   3.669   2.643   5.017
 6517TIP3    H119496   3.724   2.577   4.976
 6517TIP3    H219497   3.678   2.721   4.962
 6518TIP3   OH219498   3.501   2.942   5.223
 6518TIP3    H119499   3.434   2.994   5.267
 6518TIP3    H219500   3.454   2.897   5.152
 6519TIP3   OH219501   3.556   2.158   4.248
 6519TIP3    H119502   3.471   2.132   4.211
 6519TIP3    H219503   3.537   2.240   4.295
 6520TIP3   OH219504   3.422   1.837   4.192
 6520TIP3    H119505   3.394   1.865   4.105
 6520TIP3    H219506   3.402   1.744   4.194
 6521TIP3   OH219507   3.430   2.111   4.741
 6521TIP3    H119508   3.443   2.017   4.730
 6521TIP3    H219509   3.422   2.123   4.836
 6522TIP3   OH219510   2.059   2.177   5.485
 6522TIP3    H119511   2.052   2.137   5.399
 6522TIP3    H219512   2.154   2.179   5.503
 6523TIP3   OH219513   3.727   2.535   5.597
 6523TIP3    H119514   3.795   2.468   5.587
 6523TIP3    H219515   3.755   2.606   5.540
 6524TIP3   OH219516   3.902   2.331   5.610
 6524TIP3    H119517   3.829   2.284   5.651
 6524TIP3    H219518   3.978   2.273   5.623
 6525TIP3   OH219519   3.367   1.572   4.188
 6525TIP3    H119520   3.441   1.534   4.236
 6525TIP3    H219521   3.296   1.510   4.200
 6526TIP3   OH219522   3.432   1.828   4.640
 6526TIP3    H119523   3.467   1.741   4.659
 6526TIP3    H219524   3.485   1.859   4.567
 6527TIP3   OH219525   3.595   2.003   5.133
 6527TIP3    H119526   3.678   2.022   5.089
 6527TIP3    H219527   3.607   2.035   5.222
 6528TIP3   OH219528   3.659   2.144   5.363
 6528TIP3    H119529   3.584   2.177   5.413
 6528TIP3    H219530   3.693   2.222   5.318
 6529TIP3   OH219531   2.301   1.866   6.177
 6529TIP3    H119532   2.390   1.849   6.206
 6529TIP3    H219533   2.253   1.787   6.201
 6530TIP3   OH219534   4.122   1.731   5.918
 6530TIP3    H119535   4.181   1.670   5.873
 6530TIP3    H219536   4.085   1.784   5.848
 6531TIP3   OH219537   3.534   1.574   4.678
 6531TIP3    H119538   3.585   1.560   4.758
 6531TIP3    H219539   3.475   1.499   4.674
 6532TIP3   OH219540   2.234   1.566   5.512
 6532TIP3    H119541   2.294   1.491   5.511
 6532TIP3    H219542   2.289   1.641   5.489
 6533TIP3   OH219543   2.044   1.829   5.543
 6533TIP3    H119544   2.092   1.799   5.465
 6533TIP3    H219545   2.086   1.912   5.566
 6534TIP3   OH219546   3.975   1.865   5.731
 6534TIP3    H119547   3.895   1.913   5.753
 6534TIP3    H219548   3.947   1.797   5.671
 6535TIP3   OH219549   3.617   1.506   4.308
 6535TIP3    H119550   3.653   1.438   4.252
 6535TIP3    H219551   3.681   1.576   4.305
 6536TIP3   OH219552   2.019   1.323   5.055
 6536TIP3    H119553   1.933   1.329   5.096
 6536TIP3    H219554   2.016   1.389   4.985
 6537TIP3   OH219555   3.185   3.036   4.575
 6537TIP3    H119556   3.233   3.028   4.493
 6537TIP3    H219557   3.225   3.112   4.618
 6538TIP3   OH219558   2.249   1.412   5.879
 6538TIP3    H119559   2.205   1.410   5.964
 6538TIP3    H219560   2.186   1.453   5.820
 6539TIP3   OH219561   2.283   2.846   5.957
 6539TIP3    H119562   2.192   2.822   5.940
 6539TIP3    H219563   2.296   2.828   6.050
 6540TIP3   OH219564   2.461   2.879   5.500
 6540TIP3    H119565   2.410   2.953   5.469
 6540TIP3    H219566   2.545   2.886   5.454
 6541TIP3   OH219567   2.919   3.101   5.625
 6541TIP3    H119568   2.937   3.106   5.719
 6541TIP3    H219569   2.969   3.173   5.587
 6542TIP3   OH219570   3.099   3.267   5.514
 6542TIP3    H119571   3.171   3.248   5.453
 6542TIP3    H219572   3.137   3.330   5.576
 6543TIP3   OH219573   3.878   1.631   5.601
 6543TIP3    H119574   3.789   1.625   5.567
 6543TIP3    H219575   3.913   1.542   5.593
 6544TIP3   OH219576   2.136   3.135   5.535
 6544TIP3    H119577   2.048   3.163   5.509
 6544TIP3    H219578   2.156   3.186   5.613
 6545TIP3   OH219579   2.371   3.113   5.388
 6545TIP3    H119580   2.287   3.125   5.432
 6545TIP3    H219581   2.356   3.145   5.299
 6546TIP3   OH219582   2.805   3.136   5.186
 6546TIP3    H119583   2.737   3.152   5.120
 6546TIP3    H219584   2.821   3.222   5.225
 6547TIP3   OH219585   3.071   3.074   5.248
 6547TIP3    H119586   2.977   3.083   5.231
 6547TIP3    H219587   3.111   3.142   5.193
 6548TIP3   OH219588   3.269   3.267   5.146
 6548TIP3    H119589   3.256   3.355   5.109
 6548TIP3    H219590   3.299   3.215   5.071
 6549TIP3   OH219591   2.048   2.925   5.276
 6549TIP3    H119592   2.072   2.900   5.365
 6549TIP3    H219593   2.116   2.887   5.221
 6550TIP3   OH219594   2.243   2.801   5.135
 6550TIP3    H119595   2.256   2.720   5.184
 6550TIP3    H219596   2.331   2.838   5.128
 6551TIP3   OH219597   2.508   2.889   5.139
 6551TIP3    H119598   2.537   2.798   5.127
 6551TIP3    H219599   2.553   2.917   5.219
 6552TIP3   OH219600   3.074   1.536   5.201
 6552TIP3    H119601   3.040   1.474   5.266
 6552TIP3    H219602   3.158   1.499   5.174
 6553TIP3   OH219603   3.603   1.436   5.128
 6553TIP3    H119604   3.642   1.481   5.053
 6553TIP3    H219605   3.509   1.450   5.118
 6554TIP3   OH219606   3.703   1.531   4.891
 6554TIP3    H119607   3.772   1.475   4.855
 6554TIP3    H219608   3.735   1.620   4.877
 6555TIP3   OH219609   2.331   1.257   5.241
 6555TIP3    H119610   2.238   1.232   5.243
 6555TIP3    H219611   2.378   1.174   5.236
 6556TIP3   OH219612   2.116   1.130   4.884
 6556TIP3    H119613   2.145   1.188   4.814
 6556TIP3    H219614   2.087   1.190   4.953
 6557TIP3   OH219615   2.790   1.280   5.110
 6557TIP3    H119616   2.842   1.338   5.053
 6557TIP3    H219617   2.778   1.330   5.190
 6558TIP3   OH219618   3.317   1.431   5.099
 6558TIP3    H119619   3.331   1.388   5.015
 6558TIP3    H219620   3.308   1.360   5.162
 6559TIP3   OH219621   3.354   1.358   4.669
 6559TIP3    H119622   3.262   1.382   4.656
 6559TIP3    H219623   3.350   1.274   4.715
 6560TIP3   OH219624   1.831   2.707   4.664
 6560TIP3    H119625   1.749   2.671   4.632
 6560TIP3    H219626   1.830   2.799   4.638
 6561TIP3   OH219627   2.240   1.290   4.643
 6561TIP3    H119628   2.285   1.224   4.590
 6561TIP3    H219629   2.311   1.340   4.683
 6562TIP3   OH219630   2.748   1.468   4.745
 6562TIP3    H119631   2.801   1.421   4.809
 6562TIP3    H219632   2.728   1.552   4.787
 6563TIP3   OH219633   2.613   2.884   4.247
 6563TIP3    H119634   2.698   2.911   4.214
 6563TIP3    H219635   2.586   2.812   4.190
 6564TIP3   OH219636   3.325   3.006   4.340
 6564TIP3    H119637   3.320   2.911   4.329
 6564TIP3    H219638   3.281   3.041   4.263
 6565TIP3   OH219639   1.915   2.719   4.303
 6565TIP3    H119640   1.920   2.751   4.393
 6565TIP3    H219641   2.001   2.679   4.287
 6566TIP3   OH219642   3.618   1.598   6.035
 6566TIP3    H119643   3.633   1.570   6.125
 6566TIP3    H219644   3.705   1.594   5.994
 6567TIP3   OH219645   3.552   3.152   5.526
 6567TIP3    H119646   3.477   3.121   5.476
 6567TIP3    H219647   3.541   3.246   5.532
 6568TIP3   OH219648   4.819   2.525   4.290
 6568TIP3    H119649   4.793   2.615   4.273
 6568TIP3    H219650   4.744   2.473   4.260
 6569TIP3   OH219651   4.822   2.522   4.678
 6569TIP3    H119652   4.856   2.503   4.766
 6569TIP3    H219653   4.779   2.441   4.651
 6570TIP3   OH219654   4.117   2.417   5.048
 6570TIP3    H119655   4.147   2.349   5.109
 6570TIP3    H219656   4.193   2.473   5.035
 6571TIP3   OH219657   5.067   2.827   4.361
 6571TIP3    H119658   5.049   2.763   4.429
 6571TIP3    H219659   5.095   2.905   4.408
 6572TIP3   OH219660   4.093   2.824   4.762
 6572TIP3    H119661   4.083   2.729   4.764
 6572TIP3    H219662   4.187   2.838   4.753
 6573TIP3   OH219663   3.795   2.026   4.546
 6573TIP3    H119664   3.754   2.110   4.565
 6573TIP3    H219665   3.725   1.975   4.504
 6574TIP3   OH219666   3.855   2.317   4.725
 6574TIP3    H119667   3.904   2.242   4.758
 6574TIP3    H219668   3.918   2.365   4.672
 6575TIP3   OH219669   4.712   3.286   4.370
 6575TIP3    H119670   4.756   3.215   4.324
 6575TIP3    H219671   4.703   3.255   4.460
 6576TIP3   OH219672   4.621   2.748   4.725
 6576TIP3    H119673   4.659   2.674   4.678
 6576TIP3    H219674   4.696   2.800   4.753
 6577TIP3   OH219675   5.636   2.071   4.722
 6577TIP3    H119676   5.662   2.152   4.766
 6577TIP3    H219677   5.655   2.087   4.630
 6578TIP3   OH219678   5.030   2.247   4.753
 6578TIP3    H119679   5.074   2.165   4.775
 6578TIP3    H219680   4.999   2.233   4.663
 6579TIP3   OH219681   4.370   1.910   4.717
 6579TIP3    H119682   4.354   1.984   4.658
 6579TIP3    H219683   4.323   1.837   4.678
 6580TIP3   OH219684   5.069   2.002   4.340
 6580TIP3    H119685   5.136   1.988   4.407
 6580TIP3    H219686   5.118   2.038   4.266
 6581TIP3   OH219687   4.005   2.110   4.826
 6581TIP3    H119688   4.085   2.096   4.876
 6581TIP3    H219689   4.017   2.058   4.747
 6582TIP3   OH219690   4.443   2.307   4.625
 6582TIP3    H119691   4.536   2.287   4.635
 6582TIP3    H219692   4.405   2.226   4.590
 6583TIP3   OH219693   5.705   2.280   4.895
 6583TIP3    H119694   5.623   2.324   4.873
 6583TIP3    H219695   5.730   2.316   4.980
 6584TIP3   OH219696   4.363   1.894   5.155
 6584TIP3    H119697   4.308   1.931   5.085
 6584TIP3    H219698   4.313   1.911   5.235
 6585TIP3   OH219699   4.707   2.747   4.160
 6585TIP3    H119700   4.670   2.734   4.073
 6585TIP3    H219701   4.667   2.827   4.192
 6586TIP3   OH219702   4.471   2.672   4.945
 6586TIP3    H119703   4.413   2.739   4.982
 6586TIP3    H219704   4.516   2.716   4.873
 6587TIP3   OH219705   5.271   2.008   4.522
 6587TIP3    H119706   5.250   1.968   4.606
 6587TIP3    H219707   5.322   2.086   4.544
 6588TIP3   OH219708   4.240   2.010   4.937
 6588TIP3    H119709   4.297   2.082   4.963
 6588TIP3    H219710   4.286   1.968   4.863
 6589TIP3   OH219711   4.299   2.869   5.046
 6589TIP3    H119712   4.280   2.955   5.008
 6589TIP3    H219713   4.223   2.849   5.101
 6590TIP3   OH219714   3.691   2.557   4.284
 6590TIP3    H119715   3.648   2.587   4.204
 6590TIP3    H219716   3.724   2.637   4.326
 6591TIP3   OH219717   5.131   3.071   4.519
 6591TIP3    H119718   5.045   3.062   4.561
 6591TIP3    H219719   5.127   3.157   4.476
 6592TIP3   OH219720   5.427   1.966   4.884
 6592TIP3    H119721   5.341   1.996   4.855
 6592TIP3    H219722   5.487   1.999   4.818
 6593TIP3   OH219723   4.716   1.609   4.871
 6593TIP3    H119724   4.703   1.516   4.888
 6593TIP3    H219725   4.643   1.651   4.916
 6594TIP3   OH219726   4.837   3.111   4.193
 6594TIP3    H119727   4.884   3.030   4.175
 6594TIP3    H219728   4.894   3.180   4.158
 6595TIP3   OH219729   4.980   2.895   4.108
 6595TIP3    H119730   4.936   2.818   4.073
 6595TIP3    H219731   5.018   2.865   4.191
 6596TIP3   OH219732   5.358   2.980   4.866
 6596TIP3    H119733   5.346   2.905   4.808
 6596TIP3    H219734   5.339   3.056   4.811
 6597TIP3   OH219735   4.649   2.375   4.125
 6597TIP3    H119736   4.572   2.428   4.108
 6597TIP3    H219737   4.697   2.375   4.042
 6598TIP3   OH219738   4.611   2.163   3.838
 6598TIP3    H119739   4.673   2.216   3.889
 6598TIP3    H219740   4.667   2.101   3.791
 6599TIP3   OH219741   5.552   2.621   4.712
 6599TIP3    H119742   5.470   2.670   4.719
 6599TIP3    H219743   5.586   2.644   4.625
 6600TIP3   OH219744   5.000   2.457   4.098
 6600TIP3    H119745   4.944   2.482   4.172
 6600TIP3    H219746   5.084   2.435   4.137
 6601TIP3   OH219747   5.231   2.498   5.013
 6601TIP3    H119748   5.232   2.578   5.064
 6601TIP3    H219749   5.148   2.501   4.966
 6602TIP3   OH219750   4.231   2.453   4.515
 6602TIP3    H119751   4.192   2.398   4.447
 6602TIP3    H219752   4.308   2.403   4.545
 6603TIP3   OH219753   4.358   2.858   4.663
 6603TIP3    H119754   4.342   2.833   4.572
 6603TIP3    H219755   4.447   2.827   4.681
 6604TIP3   OH219756   4.362   2.431   4.865
 6604TIP3    H119757   4.397   2.404   4.781
 6604TIP3    H219758   4.406   2.513   4.886
 6605TIP3   OH219759   4.895   3.065   4.647
 6605TIP3    H119760   4.878   3.147   4.693
 6605TIP3    H219761   4.875   2.997   4.711
 6606TIP3   OH219762   4.504   2.981   5.194
 6606TIP3    H119763   4.448   3.044   5.239
 6606TIP3    H219764   4.444   2.929   5.140
 6607TIP3   OH219765   4.839   2.318   3.922
 6607TIP3    H119766   4.895   2.377   3.973
 6607TIP3    H219767   4.863   2.336   3.831
 6608TIP3   OH219768   4.262   2.539   5.299
 6608TIP3    H119769   4.270   2.627   5.337
 6608TIP3    H219770   4.169   2.518   5.308
 6609TIP3   OH219771   4.586   2.995   4.197
 6609TIP3    H119772   4.667   3.045   4.207
 6609TIP3    H219773   4.523   3.057   4.160
 6610TIP3   OH219774   4.299   3.147   5.278
 6610TIP3    H119775   4.267   3.155   5.188
 6610TIP3    H219776   4.221   3.126   5.330
 6611TIP3   OH219777   5.353   1.557   3.972
 6611TIP3    H119778   5.273   1.577   4.021
 6611TIP3    H219779   5.371   1.637   3.922
 6612TIP3   OH219780   4.098   2.298   4.314
 6612TIP3    H119781   4.032   2.344   4.263
 6612TIP3    H219782   4.061   2.211   4.328
 6613TIP3   OH219783   5.156   2.925   3.518
 6613TIP3    H119784   5.161   3.019   3.506
 6613TIP3    H219785   5.246   2.894   3.507
 6614TIP3   OH219786   3.874   2.681   5.229
 6614TIP3    H119787   3.817   2.658   5.155
 6614TIP3    H219788   3.917   2.598   5.252
 6615TIP3   OH219789   3.736   2.874   4.869
 6615TIP3    H119790   3.829   2.869   4.848
 6615TIP3    H219791   3.727   2.956   4.917
 6616TIP3   OH219792   5.596   3.329   4.921
 6616TIP3    H119793   5.596   3.234   4.933
 6616TIP3    H219794   5.515   3.358   4.961
 6617TIP3   OH219795   4.703   3.112   5.053
 6617TIP3    H119796   4.701   3.203   5.080
 6617TIP3    H219797   4.633   3.070   5.103
 6618TIP3   OH219798   4.466   3.245   4.001
 6618TIP3    H119799   4.420   3.230   3.919
 6618TIP3    H219800   4.432   3.329   4.033
 6619TIP3   OH219801   3.902   3.084   4.389
 6619TIP3    H119802   3.955   3.081   4.469
 6619TIP3    H219803   3.836   3.016   4.401
 6620TIP3   OH219804   4.666   3.142   3.640
 6620TIP3    H119805   4.723   3.074   3.604
 6620TIP3    H219806   4.698   3.155   3.729
 6621TIP3   OH219807   4.715   3.191   3.909
 6621TIP3    H119808   4.628   3.204   3.948
 6621TIP3    H219809   4.769   3.161   3.982
 6622TIP3   OH219810   5.485   2.454   5.191
 6622TIP3    H119811   5.403   2.469   5.144
 6622TIP3    H219812   5.502   2.360   5.182
 6623TIP3   OH219813   4.082   2.862   5.211
 6623TIP3    H119814   4.132   2.851   5.292
 6623TIP3    H219815   4.008   2.803   5.220
 6624TIP3   OH219816   4.478   1.688   5.002
 6624TIP3    H119817   4.393   1.657   4.971
 6624TIP3    H219818   4.459   1.769   5.049
 6625TIP3   OH219819   5.019   1.802   5.195
 6625TIP3    H119820   5.086   1.777   5.259
 6625TIP3    H219821   4.936   1.786   5.241
 6626TIP3   OH219822   5.252   2.234   5.111
 6626TIP3    H119823   5.203   2.231   5.194
 6626TIP3    H219824   5.230   2.320   5.075
 6627TIP3   OH219825   4.916   2.355   3.664
 6627TIP3    H119826   4.879   2.336   3.578
 6627TIP3    H219827   4.996   2.404   3.646
 6628TIP3   OH219828   4.625   1.733   3.973
 6628TIP3    H119829   4.593   1.734   4.063
 6628TIP3    H219830   4.587   1.654   3.934
 6629TIP3   OH219831   4.411   2.209   5.015
 6629TIP3    H119832   4.368   2.228   5.099
 6629TIP3    H219833   4.396   2.287   4.962
 6630TIP3   OH219834   4.297   2.088   4.529
 6630TIP3    H119835   4.207   2.067   4.551
 6630TIP3    H219836   4.311   2.050   4.443
 6631TIP3   OH219837   4.787   2.175   4.258
 6631TIP3    H119838   4.737   2.246   4.218
 6631TIP3    H219839   4.843   2.142   4.187
 6632TIP3   OH219840   4.965   2.450   5.343
 6632TIP3    H119841   4.941   2.379   5.403
 6632TIP3    H219842   5.056   2.469   5.364
 6633TIP3   OH219843   4.942   2.200   4.495
 6633TIP3    H119844   4.881   2.235   4.430
 6633TIP3    H219845   4.979   2.122   4.453
 6634TIP3   OH219846   4.234   2.234   5.229
 6634TIP3    H119847   4.272   2.297   5.290
 6634TIP3    H219848   4.226   2.153   5.280
 6635TIP3   OH219849   4.281   1.712   3.937
 6635TIP3    H119850   4.274   1.710   4.032
 6635TIP3    H219851   4.207   1.765   3.908
 6636TIP3   OH219852   3.826   1.753   4.811
 6636TIP3    H119853   3.899   1.788   4.863
 6636TIP3    H219854   3.866   1.727   4.728
 6637TIP3   OH219855   3.792   1.736   4.324
 6637TIP3    H119856   3.837   1.769   4.247
 6637TIP3    H219857   3.730   1.806   4.348
 6638TIP3   OH219858   4.953   2.445   4.918
 6638TIP3    H119859   4.987   2.379   4.858
 6638TIP3    H219860   4.923   2.395   4.994
 6639TIP3   OH219861   4.628   1.908   4.593
 6639TIP3    H119862   4.548   1.910   4.645
 6639TIP3    H219863   4.699   1.908   4.657
 6640TIP3   OH219864   4.059   1.968   4.599
 6640TIP3    H119865   3.967   1.975   4.571
 6640TIP3    H219866   4.084   1.879   4.576
 6641TIP3   OH219867   4.324   1.963   4.288
 6641TIP3    H119868   4.417   1.979   4.269
 6641TIP3    H219869   4.279   1.985   4.207
 6642TIP3   OH219870   5.117   1.986   4.794
 6642TIP3    H119871   5.090   2.002   4.885
 6642TIP3    H219872   5.049   1.929   4.759
 6643TIP3   OH219873   4.175   1.998   4.061
 6643TIP3    H119874   4.106   1.953   4.013
 6643TIP3    H219875   4.228   2.039   3.993
 6644TIP3   OH219876   5.293   3.677   5.014
 6644TIP3    H119877   5.285   3.704   4.922
 6644TIP3    H219878   5.368   3.727   5.047
 6645TIP3   OH219879   4.245   2.786   5.438
 6645TIP3    H119880   4.326   2.817   5.480
 6645TIP3    H219881   4.179   2.789   5.507
 6646TIP3   OH219882   4.708   2.240   4.688
 6646TIP3    H119883   4.783   2.206   4.640
 6646TIP3    H219884   4.714   2.199   4.775
 6647TIP3   OH219885   4.225   1.727   4.572
 6647TIP3    H119886   4.191   1.652   4.620
 6647TIP3    H219887   4.273   1.689   4.498
 6648TIP3   OH219888   4.683   2.142   4.982
 6648TIP3    H119889   4.595   2.178   4.994
 6648TIP3    H219890   4.740   2.202   5.029
 6649TIP3   OH219891   4.419   2.526   4.076
 6649TIP3    H119892   4.347   2.464   4.060
 6649TIP3    H219893   4.401   2.561   4.163
 6650TIP3   OH219894   5.319   2.763   4.698
 6650TIP3    H119895   5.344   2.816   4.622
 6650TIP3    H219896   5.236   2.723   4.674
 6651TIP3   OH219897   4.878   1.838   3.942
 6651TIP3    H119898   4.784   1.821   3.949
 6651TIP3    H219899   4.887   1.931   3.965
 6652TIP3   OH219900   4.814   2.844   5.076
 6652TIP3    H119901   4.853   2.834   5.163
 6652TIP3    H219902   4.781   2.934   5.074
 6653TIP3   OH219903   4.948   2.090   4.042
 6653TIP3    H119904   5.042   2.096   4.058
 6653TIP3    H219905   4.927   2.169   3.992
 6654TIP3   OH219906   4.110   2.540   4.748
 6654TIP3    H119907   4.148   2.521   4.662
 6654TIP3    H219908   4.166   2.493   4.810
 6655TIP3   OH219909   4.564   2.679   3.898
 6655TIP3    H119910   4.518   2.763   3.898
 6655TIP3    H219911   4.513   2.624   3.958
 6656TIP3   OH219912   3.997   2.473   5.368
 6656TIP3    H119913   4.024   2.462   5.459
 6656TIP3    H219914   3.932   2.403   5.354
 6657TIP3   OH219915   4.724   2.585   5.382
 6657TIP3    H119916   4.662   2.529   5.334
 6657TIP3    H219917   4.810   2.554   5.354
 6658TIP3   OH219918   4.977   3.098   4.977
 6658TIP3    H119919   4.882   3.104   4.983
 6658TIP3    H219920   5.009   3.155   5.047
 6659TIP3   OH219921   5.385   2.184   3.873
 6659TIP3    H119922   5.326   2.136   3.814
 6659TIP3    H219923   5.385   2.273   3.839
 6660TIP3   OH219924   5.607   3.035   4.955
 6660TIP3    H119925   5.511   3.033   4.950
 6660TIP3    H219926   5.636   3.008   4.868
 6661TIP3   OH219927   5.093   2.998   3.785
 6661TIP3    H119928   5.063   2.932   3.848
 6661TIP3    H219929   5.104   2.950   3.703
 6662TIP3   OH219930   5.085   2.626   4.617
 6662TIP3    H119931   4.992   2.606   4.632
 6662TIP3    H219932   5.119   2.548   4.573
 6663TIP3   OH219933   4.217   2.858   4.373
 6663TIP3    H119934   4.220   2.938   4.320
 6663TIP3    H219935   4.123   2.845   4.390
 6664TIP3   OH219936   3.776   2.166   4.073
 6664TIP3    H119937   3.826   2.244   4.099
 6664TIP3    H219938   3.702   2.164   4.133
 6665TIP3   OH219939   4.344   2.618   4.318
 6665TIP3    H119940   4.314   2.708   4.332
 6665TIP3    H219941   4.312   2.569   4.393
 6666TIP3   OH219942   4.487   3.199   4.842
 6666TIP3    H119943   4.523   3.272   4.791
 6666TIP3    H219944   4.562   3.164   4.889
 6667TIP3   OH219945   4.136   3.095   4.228
 6667TIP3    H119946   4.051   3.104   4.271
 6667TIP3    H219947   4.174   3.183   4.230
 6668TIP3   OH219948   4.868   2.830   4.808
 6668TIP3    H119949   4.856   2.830   4.903
 6668TIP3    H219950   4.952   2.785   4.794
 6669TIP3   OH219951   4.850   2.724   3.689
 6669TIP3    H119952   4.904   2.699   3.764
 6669TIP3    H219953   4.760   2.702   3.716
 6670TIP3   OH219954   5.118   3.362   4.848
 6670TIP3    H119955   5.037   3.312   4.842
 6670TIP3    H219956   5.109   3.429   4.780
 6671TIP3   OH219957   5.184   3.202   3.505
 6671TIP3    H119958   5.225   3.273   3.455
 6671TIP3    H219959   5.105   3.240   3.542
 6672TIP3   OH219960   4.204   1.976   5.370
 6672TIP3    H119961   4.109   1.980   5.381
 6672TIP3    H219962   4.235   1.922   5.442
 6673TIP3   OH219963   5.012   2.653   3.900
 6673TIP3    H119964   4.999   2.591   3.973
 6673TIP3    H219965   5.106   2.655   3.887
 6674TIP3   OH219966   3.921   3.062   5.006
 6674TIP3    H119967   3.979   2.996   5.044
 6674TIP3    H219968   3.949   3.144   5.046
 6675TIP3   OH219969   4.213   2.703   3.687
 6675TIP3    H119970   4.226   2.612   3.661
 6675TIP3    H219971   4.193   2.699   3.781
 6676TIP3   OH219972   4.159   2.713   3.959
 6676TIP3    H119973   4.233   2.688   4.015
 6676TIP3    H219974   4.156   2.808   3.964
 6677TIP3   OH219975   3.888   2.407   4.163
 6677TIP3    H119976   3.825   2.450   4.221
 6677TIP3    H219977   3.910   2.473   4.097
 6678TIP3   OH219978   5.049   2.036   5.053
 6678TIP3    H119979   5.124   2.080   5.092
 6678TIP3    H219980   5.035   1.958   5.107
 6679TIP3   OH219981   4.927   1.789   4.222
 6679TIP3    H119982   4.912   1.809   4.130
 6679TIP3    H219983   4.966   1.869   4.258
 6680TIP3   OH219984   4.420   2.909   3.904
 6680TIP3    H119985   4.335   2.929   3.943
 6680TIP3    H219986   4.443   2.986   3.852
 6681TIP3   OH219987   4.608   1.974   4.323
 6681TIP3    H119988   4.670   2.044   4.303
 6681TIP3    H219989   4.614   1.963   4.418
 6682TIP3   OH219990   4.882   2.287   5.129
 6682TIP3    H119991   4.904   2.343   5.203
 6682TIP3    H219992   4.935   2.208   5.141
 6683TIP3   OH219993   4.755   1.694   4.420
 6683TIP3    H119994   4.744   1.768   4.480
 6683TIP3    H219995   4.815   1.726   4.353
 6684TIP3   OH219996   4.165   2.983   3.977
 6684TIP3    H119997   4.139   3.051   3.913
 6684TIP3    H219998   4.153   3.025   4.062
 6685TIP3   OH219999   4.270   1.700   4.213
 6685TIP3    H120000   4.263   1.789   4.249
 6685TIP3    H220001   4.363   1.679   4.219
 6686TIP3   OH220002   5.517   2.187   5.112
 6686TIP3    H120003   5.421   2.187   5.119
 6686TIP3    H220004   5.535   2.154   5.024
 6687TIP3   OH220005   5.172   2.381   4.498
 6687TIP3    H120006   5.096   2.325   4.511
 6687TIP3    H220007   5.242   2.337   4.545
 6688TIP3   OH220008   3.893   2.614   3.966
 6688TIP3    H120009   3.956   2.685   3.979
 6688TIP3    H220010   3.933   2.558   3.900
 6689TIP3   OH220011   3.821   1.893   4.103
 6689TIP3    H120012   3.827   1.989   4.096
 6689TIP3    H220013   3.754   1.869   4.039
 6690TIP3   OH220014   5.144   3.341   4.442
 6690TIP3    H120015   5.099   3.385   4.370
 6690TIP3    H220016   5.237   3.357   4.425
 6691TIP3   OH220017   4.214   1.607   4.971
 6691TIP3    H120018   4.186   1.576   4.886
 6691TIP3    H220019   4.205   1.532   5.029
 6692TIP3   OH220020   3.744   2.816   4.350
 6692TIP3    H120021   3.684   2.852   4.416
 6692TIP3    H220022   3.722   2.862   4.269
 6693TIP3   OH220023   3.918   3.373   5.429
 6693TIP3    H120024   4.001   3.381   5.475
 6693TIP3    H220025   3.902   3.278   5.424
 6694TIP3   OH220026   4.389   3.326   5.473
 6694TIP3    H120027   4.484   3.322   5.478
 6694TIP3    H220028   4.366   3.268   5.401
 6695TIP3   OH220029   4.373   2.906   3.592
 6695TIP3    H120030   4.318   2.838   3.633
 6695TIP3    H220031   4.450   2.858   3.562
 6696TIP3   OH220032   5.034   3.239   5.206
 6696TIP3    H120033   5.027   3.172   5.273
 6696TIP3    H220034   5.108   3.293   5.233
 6697TIP3   OH220035   4.811   2.945   3.509
 6697TIP3    H120036   4.854   2.885   3.570
 6697TIP3    H220037   4.867   2.944   3.431
 6698TIP3   OH220038   4.041   2.774   5.625
 6698TIP3    H120039   4.058   2.680   5.633
 6698TIP3    H220040   3.956   2.779   5.581
 6699TIP3   OH220041   4.024   2.421   3.823
 6699TIP3    H120042   4.078   2.395   3.897
 6699TIP3    H220043   4.086   2.428   3.750
 6700TIP3   OH220044   4.649   2.862   5.400
 6700TIP3    H120045   4.611   2.887   5.315
 6700TIP3    H220046   4.681   2.773   5.387
 6701TIP3   OH220047   4.536   2.623   3.630
 6701TIP3    H120048   4.537   2.639   3.724
 6701TIP3    H220049   4.535   2.528   3.622
 6702TIP3   OH220050   5.142   2.876   5.005
 6702TIP3    H120051   5.220   2.914   4.963
 6702TIP3    H220052   5.074   2.943   4.994
 6703TIP3   OH220053   4.170   2.502   5.609
 6703TIP3    H120054   4.253   2.466   5.577
 6703TIP3    H220055   4.193   2.540   5.695
 6704TIP3   OH220056   4.221   2.331   4.036
 6704TIP3    H120057   4.201   2.293   4.122
 6704TIP3    H220058   4.263   2.259   3.988
 6705TIP3   OH220059   4.496   2.390   5.264
 6705TIP3    H120060   4.422   2.451   5.269
 6705TIP3    H220061   4.549   2.423   5.191
 6706TIP3   OH220062   4.333   2.127   3.879
 6706TIP3    H120063   4.306   2.135   3.788
 6706TIP3    H220064   4.429   2.129   3.876
 6707TIP3   OH220065   5.014   2.794   5.403
 6707TIP3    H120066   5.093   2.770   5.355
 6707TIP3    H220067   5.009   2.732   5.476
 6708TIP3   OH220068   5.148   2.454   3.546
 6708TIP3    H120069   5.130   2.408   3.464
 6708TIP3    H220070   5.118   2.543   3.531
 6709TIP3   OH220071   4.622   2.186   5.400
 6709TIP3    H120072   4.625   2.108   5.344
 6709TIP3    H220073   4.578   2.252   5.346
 6710TIP3   OH220074   4.623   1.971   5.202
 6710TIP3    H120075   4.653   2.014   5.122
 6710TIP3    H220076   4.531   1.949   5.185
 6711TIP3   OH220077   4.647   2.504   5.074
 6711TIP3    H120078   4.734   2.521   5.038
 6711TIP3    H220079   4.591   2.569   5.032
 6712TIP3   OH220080   5.232   2.471   5.454
 6712TIP3    H120081   5.281   2.390   5.465
 6712TIP3    H220082   5.295   2.533   5.419
 6713TIP3   OH220083   5.273   2.726   5.187
 6713TIP3    H120084   5.213   2.779   5.134
 6713TIP3    H220085   5.360   2.746   5.152
 6714TIP3   OH220086   4.468   2.311   5.618
 6714TIP3    H120087   4.417   2.233   5.639
 6714TIP3    H220088   4.527   2.282   5.548
 6715TIP3   OH220089   4.753   1.730   5.264
 6715TIP3    H120090   4.707   1.813   5.246
 6715TIP3    H220091   4.685   1.663   5.257
 6716TIP3   OH220092   4.887   2.234   5.488
 6716TIP3    H120093   4.891   2.226   5.583
 6716TIP3    H220094   4.796   2.211   5.467
 6717TIP3   OH220095   5.120   2.182   5.341
 6717TIP3    H120096   5.045   2.187   5.400
 6717TIP3    H220097   5.194   2.156   5.396
 6718TIP3   OH220098   5.349   2.129   5.493
 6718TIP3    H120099   5.363   2.035   5.507
 6718TIP3    H220100   5.345   2.165   5.582
 6719TIP3   OH220101   4.331   2.071   5.671
 6719TIP3    H120102   4.341   1.983   5.635
 6719TIP3    H220103   4.371   2.067   5.757
 6720TIP3   OH220104   4.861   1.733   5.516
 6720TIP3    H120105   4.925   1.662   5.511
 6720TIP3    H220106   4.817   1.732   5.431
 6721TIP3   OH220107   4.138   3.177   3.781
 6721TIP3    H120108   4.233   3.174   3.770
 6721TIP3    H220109   4.108   3.236   3.711
 6722TIP3   OH220110   3.626   2.578   4.003
 6722TIP3    H120111   3.715   2.613   3.993
 6722TIP3    H220112   3.634   2.486   3.978
 6723TIP3   OH220113   3.534   3.171   4.417
 6723TIP3    H120114   3.467   3.116   4.377
 6723TIP3    H220115   3.578   3.114   4.480
 6724TIP3   OH220116   3.675   3.020   4.602
 6724TIP3    H120117   3.656   2.955   4.670
 6724TIP3    H220118   3.725   3.088   4.647
 6725TIP3   OH220119   5.401   3.424   4.407
 6725TIP3    H120120   5.419   3.460   4.494
 6725TIP3    H220121   5.456   3.475   4.348
 6726TIP3   OH220122   5.421   3.447   4.688
 6726TIP3    H120123   5.378   3.362   4.683
 6726TIP3    H220124   5.498   3.432   4.743
 6727TIP3   OH220125   5.471   3.128   5.262
 6727TIP3    H120126   5.399   3.136   5.325
 6727TIP3    H220127   5.513   3.214   5.263
 6728TIP3   OH220128   5.290   2.640   3.879
 6728TIP3    H120129   5.352   2.706   3.847
 6728TIP3    H220130   5.333   2.603   3.957
 6729TIP3   OH220131   5.416   2.506   4.084
 6729TIP3    H120132   5.350   2.467   4.141
 6729TIP3    H220133   5.480   2.544   4.144
 6730TIP3   OH220134   5.474   2.903   4.514
 6730TIP3    H120135   5.522   2.837   4.466
 6730TIP3    H220136   5.468   2.977   4.454
 6731TIP3   OH220137   5.296   3.198   4.710
 6731TIP3    H120138   5.228   3.245   4.759
 6731TIP3    H220139   5.249   3.156   4.638
 6732TIP3   OH220140   5.349   2.417   3.728
 6732TIP3    H120141   5.281   2.416   3.660
 6732TIP3    H220142   5.327   2.491   3.784
 6733TIP3   OH220143   5.224   2.085   3.680
 6733TIP3    H120144   5.177   2.128   3.608
 6733TIP3    H220145   5.202   1.993   3.671
 6734TIP3   OH220146   5.227   2.367   4.230
 6734TIP3    H120147   5.235   2.272   4.221
 6734TIP3    H220148   5.212   2.381   4.323
 6735TIP3   OH220149   3.855   2.439   4.976
 6735TIP3    H120150   3.850   2.408   4.886
 6735TIP3    H220151   3.949   2.441   4.995
 6736TIP3   OH220152   5.520   2.791   5.086
 6736TIP3    H120153   5.589   2.726   5.074
 6736TIP3    H220154   5.542   2.861   5.025
 6737TIP3   OH220155   5.700   2.587   5.094
 6737TIP3    H120156   5.625   2.544   5.135
 6737TIP3    H220157   5.774   2.529   5.109
 6738TIP3   OH220158   5.168   1.819   3.663
 6738TIP3    H120159   5.238   1.791   3.721
 6738TIP3    H220160   5.093   1.764   3.686
 6739TIP3   OH220161   5.227   2.081   4.120
 6739TIP3    H120162   5.265   1.994   4.136
 6739TIP3    H220163   5.281   2.118   4.050
 6740TIP3   OH220164   5.387   2.252   4.620
 6740TIP3    H120165   5.469   2.274   4.576
 6740TIP3    H220166   5.396   2.289   4.707
 6741TIP3   OH220167   5.455   2.401   4.848
 6741TIP3    H120168   5.379   2.433   4.897
 6741TIP3    H220169   5.489   2.479   4.803
 6742TIP3   OH220170   4.065   2.114   5.642
 6742TIP3    H120171   4.161   2.118   5.644
 6742TIP3    H220172   4.043   2.033   5.689
 6743TIP3   OH220173   5.907   1.992   5.402
 6743TIP3    H120174   5.968   1.929   5.362
 6743TIP3    H220175   5.875   2.045   5.329
 6744TIP3   OH220176   5.335   1.830   4.161
 6744TIP3    H120177   5.382   1.817   4.243
 6744TIP3    H220178   5.273   1.757   4.158
 6745TIP3   OH220179   4.034   1.818   4.985
 6745TIP3    H120180   4.092   1.742   4.992
 6745TIP3    H220181   4.093   1.893   4.974
 6746TIP3   OH220182   3.836   2.092   5.049
 6746TIP3    H120183   3.884   2.088   4.966
 6746TIP3    H220184   3.864   2.174   5.090
 6747TIP3   OH220185   5.772   2.126   5.210
 6747TIP3    H120186   5.692   2.174   5.234
 6747TIP3    H220187   5.742   2.057   5.152
 6748TIP3   OH220188   5.413   1.763   3.795
 6748TIP3    H120189   5.451   1.695   3.740
 6748TIP3    H220190   5.476   1.835   3.793
 6749TIP3   OH220191   3.819   1.594   4.554
 6749TIP3    H120192   3.727   1.588   4.582
 6749TIP3    H220193   3.817   1.652   4.477
 6750TIP3   OH220194   4.982   3.295   4.060
 6750TIP3    H120195   5.033   3.290   3.979
 6750TIP3    H220196   5.022   3.367   4.109
 6751TIP3   OH220197   4.037   1.674   5.368
 6751TIP3    H120198   3.989   1.670   5.451
 6751TIP3    H220199   3.974   1.711   5.306
 6752TIP3   OH220200   4.080   3.098   5.442
 6752TIP3    H120201   3.987   3.078   5.429
 6752TIP3    H220202   4.092   3.093   5.537
 6753TIP3   OH220203   4.261   3.140   4.989
 6753TIP3    H120204   4.210   3.213   4.953
 6753TIP3    H220205   4.346   3.148   4.947
 6754TIP3   OH220206   4.701   3.378   5.130
 6754TIP3    H120207   4.739   3.379   5.218
 6754TIP3    H220208   4.762   3.429   5.077
 6755TIP3   OH220209   4.882   3.532   4.995
 6755TIP3    H120210   4.950   3.485   4.947
 6755TIP3    H220211   4.929   3.590   5.054
 6756TIP3   OH220212   5.675   1.890   5.088
 6756TIP3    H120213   5.586   1.888   5.052
 6756TIP3    H220214   5.707   1.801   5.079
 6757TIP3   OH220215   3.931   3.385   5.028
 6757TIP3    H120216   3.843   3.412   5.000
 6757TIP3    H220217   3.954   3.447   5.096
 6758TIP3   OH220218   4.165   3.368   4.874
 6758TIP3    H120219   4.081   3.382   4.918
 6758TIP3    H220220   4.152   3.403   4.786
 6759TIP3   OH220221   4.594   3.398   4.674
 6759TIP3    H120222   4.527   3.413   4.607
 6759TIP3    H220223   4.609   3.484   4.713
 6760TIP3   OH220224   4.863   3.335   4.724
 6760TIP3    H120225   4.770   3.353   4.709
 6760TIP3    H220226   4.909   3.407   4.682
 6761TIP3   OH220227   5.069   3.525   4.637
 6761TIP3    H120228   5.054   3.610   4.596
 6761TIP3    H220229   5.095   3.468   4.564
 6762TIP3   OH220230   3.843   3.179   4.759
 6762TIP3    H120231   3.866   3.160   4.849
 6762TIP3    H220232   3.915   3.143   4.707
 6763TIP3   OH220233   4.041   3.056   4.622
 6763TIP3    H120234   4.056   2.975   4.670
 6763TIP3    H220235   4.128   3.096   4.617
 6764TIP3   OH220236   4.304   3.145   4.630
 6764TIP3    H120237   4.338   3.057   4.617
 6764TIP3    H220238   4.350   3.177   4.707
 6765TIP3   OH220239   4.882   1.806   4.710
 6765TIP3    H120240   4.839   1.737   4.760
 6765TIP3    H220241   4.955   1.762   4.667
 6766TIP3   OH220242   5.399   1.686   4.610
 6766TIP3    H120243   5.437   1.737   4.539
 6766TIP3    H220244   5.306   1.708   4.610
 6767TIP3   OH220245   5.501   1.785   4.376
 6767TIP3    H120246   5.571   1.733   4.338
 6767TIP3    H220247   5.529   1.876   4.364
 6768TIP3   OH220248   4.128   1.511   4.724
 6768TIP3    H120249   4.036   1.484   4.727
 6768TIP3    H220250   4.177   1.429   4.720
 6769TIP3   OH220251   3.920   1.389   4.375
 6769TIP3    H120252   3.949   1.442   4.301
 6769TIP3    H220253   3.892   1.452   4.441
 6770TIP3   OH220254   4.577   1.547   4.608
 6770TIP3    H120255   4.629   1.594   4.543
 6770TIP3    H220256   4.602   1.586   4.691
 6771TIP3   OH220257   5.115   1.694   4.590
 6771TIP3    H120258   5.118   1.658   4.501
 6771TIP3    H220259   5.104   1.617   4.646
 6772TIP3   OH220260   5.148   1.620   4.154
 6772TIP3    H120261   5.066   1.667   4.169
 6772TIP3    H220262   5.135   1.535   4.196
 6773TIP3   OH220263   3.631   2.961   4.152
 6773TIP3    H120264   3.546   2.930   4.121
 6773TIP3    H220265   3.631   3.055   4.131
 6774TIP3   OH220266   4.037   1.543   4.136
 6774TIP3    H120267   4.082   1.481   4.078
 6774TIP3    H220268   4.108   1.597   4.171
 6775TIP3   OH220269   4.546   1.723   4.237
 6775TIP3    H120270   4.605   1.675   4.294
 6775TIP3    H220271   4.563   1.815   4.258
 6776TIP3   OH220272   4.408   3.139   3.734
 6776TIP3    H120273   4.493   3.167   3.701
 6776TIP3    H220274   4.382   3.067   3.676
 6777TIP3   OH220275   5.126   3.265   3.825
 6777TIP3    H120276   5.118   3.170   3.818
 6777TIP3    H220277   5.078   3.299   3.750
 6778TIP3   OH220278   4.352   1.791   5.614
 6778TIP3    H120279   4.322   1.729   5.681
 6778TIP3    H220280   4.448   1.787   5.620
 6779TIP3   OH220281   3.703   2.966   3.791
 6779TIP3    H120282   3.707   3.010   3.875
 6779TIP3    H220283   3.792   2.932   3.777
 6780TIP3   OH220284   5.416   1.858   5.522
 6780TIP3    H120285   5.431   1.829   5.612
 6780TIP3    H220286   5.503   1.853   5.481
 6781TIP3   OH220287   5.346   3.408   5.013
 6781TIP3    H120288   5.271   3.377   4.963
 6781TIP3    H220289   5.332   3.503   5.020
 6782TIP3   OH220290   6.615   2.783   3.776
 6782TIP3    H120291   6.589   2.873   3.757
 6782TIP3    H220292   6.542   2.730   3.747
 6783TIP3   OH220293   6.620   2.779   4.165
 6783TIP3    H120294   6.653   2.758   4.252
 6783TIP3    H220295   6.575   2.699   4.137
 6784TIP3   OH220296   5.916   2.672   4.528
 6784TIP3    H120297   5.944   2.604   4.589
 6784TIP3    H220298   5.991   2.733   4.525
 6785TIP3   OH220299   6.864   3.084   3.847
 6785TIP3    H120300   6.843   3.018   3.913
 6785TIP3    H220301   6.891   3.160   3.898
 6786TIP3   OH220302   5.891   3.084   4.248
 6786TIP3    H120303   5.879   2.989   4.250
 6786TIP3    H220304   5.985   3.096   4.243
 6787TIP3   OH220305   5.591   2.285   4.032
 6787TIP3    H120306   5.550   2.368   4.054
 6787TIP3    H220307   5.523   2.235   3.988
 6788TIP3   OH220308   5.653   2.574   4.212
 6788TIP3    H120309   5.701   2.498   4.245
 6788TIP3    H220310   5.712   2.616   4.150
 6789TIP3   OH220311   6.513   3.544   3.861
 6789TIP3    H120312   6.555   3.473   3.813
 6789TIP3    H220313   6.496   3.508   3.948
 6790TIP3   OH220314   6.417   3.006   4.211
 6790TIP3    H120315   6.453   2.931   4.164
 6790TIP3    H220316   6.494   3.056   4.238
 6791TIP3   OH220317   7.431   2.328   4.208
 6791TIP3    H120318   7.458   2.409   4.251
 6791TIP3    H220319   7.451   2.342   4.115
 6792TIP3   OH220320   6.828   2.504   4.239
 6792TIP3    H120321   6.870   2.421   4.261
 6792TIP3    H220322   6.795   2.490   4.150
 6793TIP3   OH220323   6.167   2.167   4.203
 6793TIP3    H120324   6.149   2.241   4.145
 6793TIP3    H220325   6.120   2.093   4.164
 6794TIP3   OH220326   6.865   2.259   3.827
 6794TIP3    H120327   6.931   2.244   3.894
 6794TIP3    H220328   6.914   2.294   3.753
 6795TIP3   OH220329   5.801   2.366   4.314
 6795TIP3    H120330   5.881   2.352   4.364
 6795TIP3    H220331   5.813   2.314   4.235
 6796TIP3   OH220332   6.240   2.564   4.109
 6796TIP3    H120333   6.332   2.542   4.121
 6796TIP3    H220334   6.200   2.483   4.076
 6797TIP3   OH220335   7.501   2.537   4.380
 6797TIP3    H120336   7.419   2.580   4.358
 6797TIP3    H220337   7.522   2.568   4.468
 6798TIP3   OH220338   6.159   2.151   4.643
 6798TIP3    H120339   6.104   2.188   4.573
 6798TIP3    H220340   6.109   2.168   4.723
 6799TIP3   OH220341   6.506   3.005   3.645
 6799TIP3    H120342   6.465   2.987   3.561
 6799TIP3    H220343   6.464   3.084   3.677
 6800TIP3   OH220344   6.268   2.929   4.432
 6800TIP3    H120345   6.209   2.995   4.470
 6800TIP3    H220346   6.311   2.974   4.360
 6801TIP3   OH220347   7.068   2.265   4.007
 6801TIP3    H120348   7.048   2.222   4.090
 6801TIP3    H220349   7.118   2.343   4.032
 6802TIP3   OH220350   6.037   2.266   4.424
 6802TIP3    H120351   6.094   2.339   4.450
 6802TIP3    H220352   6.083   2.225   4.350
 6803TIP3   OH220353   6.096   3.125   4.534
 6803TIP3    H120354   6.076   3.211   4.496
 6803TIP3    H220355   6.020   3.104   4.588
 6804TIP3   OH220356   5.488   2.813   3.769
 6804TIP3    H120357   5.447   2.839   3.686
 6804TIP3    H220358   5.519   2.896   3.806
 6805TIP3   OH220359   6.928   3.330   4.008
 6805TIP3    H120360   6.842   3.318   4.049
 6805TIP3    H220361   6.922   3.414   3.964
 6806TIP3   OH220362   7.223   2.225   4.372
 6806TIP3    H120363   7.136   2.252   4.343
 6806TIP3    H220364   7.283   2.257   4.305
 6807TIP3   OH220365   6.513   1.866   4.360
 6807TIP3    H120366   6.499   1.772   4.374
 6807TIP3    H220367   6.439   1.908   4.404
 6808TIP3   OH220368   6.634   3.370   3.681
 6808TIP3    H120369   6.680   3.287   3.664
 6808TIP3    H220370   6.691   3.437   3.644
 6809TIP3   OH220371   6.776   3.153   3.595
 6809TIP3    H120372   6.727   3.078   3.562
 6809TIP3    H220373   6.814   3.123   3.678
 6810TIP3   OH220374   7.155   3.237   4.352
 6810TIP3    H120375   7.142   3.160   4.296
 6810TIP3    H220376   7.135   3.312   4.295
 6811TIP3   OH220377   6.446   2.632   3.612
 6811TIP3    H120378   6.368   2.684   3.596
 6811TIP3    H220379   6.492   2.631   3.528
 6812TIP3   OH220380   6.408   2.419   3.324
 6812TIP3    H120381   6.470   2.472   3.375
 6812TIP3    H220382   6.462   2.357   3.277
 6813TIP3   OH220383   7.349   2.881   4.200
 6813TIP3    H120384   7.266   2.928   4.207
 6813TIP3    H220385   7.381   2.901   4.112
 6814TIP3   OH220386   6.797   2.715   3.584
 6814TIP3    H120387   6.740   2.740   3.657
 6814TIP3    H220388   6.880   2.692   3.624
 6815TIP3   OH220389   7.027   2.754   4.500
 6815TIP3    H120390   7.027   2.835   4.550
 6815TIP3    H220391   6.943   2.756   4.454
 6816TIP3   OH220392   6.028   2.709   4.000
 6816TIP3    H120393   5.987   2.654   3.933
 6816TIP3    H220394   6.103   2.658   4.030
 6817TIP3   OH220395   6.158   3.122   4.147
 6817TIP3    H120396   6.137   3.090   4.060
 6817TIP3    H220397   6.246   3.088   4.165
 6818TIP3   OH220398   6.166   2.684   4.354
 6818TIP3    H120399   6.197   2.661   4.266
 6818TIP3    H220400   6.206   2.769   4.372
 6819TIP3   OH220401   6.691   3.321   4.134
 6819TIP3    H120402   6.675   3.402   4.182
 6819TIP3    H220403   6.672   3.251   4.196
 6820TIP3   OH220404   6.300   3.238   4.680
 6820TIP3    H120405   6.243   3.300   4.726
 6820TIP3    H220406   6.240   3.185   4.628
 6821TIP3   OH220407   6.636   2.575   3.408
 6821TIP3    H120408   6.692   2.633   3.459
 6821TIP3    H220409   6.660   2.593   3.317
 6822TIP3   OH220410   6.056   2.794   4.786
 6822TIP3    H120411   6.065   2.882   4.823
 6822TIP3    H220412   5.963   2.773   4.796
 6823TIP3   OH220413   6.383   3.249   3.684
 6823TIP3    H120414   6.462   3.302   3.694
 6823TIP3    H220415   6.319   3.308   3.645
 6824TIP3   OH220416   6.095   3.404   4.766
 6824TIP3    H120417   6.062   3.410   4.677
 6824TIP3    H220418   6.017   3.382   4.819
 6825TIP3   OH220419   7.149   1.814   3.459
 6825TIP3    H120420   7.069   1.832   3.509
 6825TIP3    H220421   7.165   1.895   3.410
 6826TIP3   OH220422   5.894   2.555   3.799
 6826TIP3    H120423   5.827   2.601   3.748
 6826TIP3    H220424   5.855   2.470   3.818
 6827TIP3   OH220425   6.952   3.181   3.005
 6827TIP3    H120426   6.957   3.275   2.992
 6827TIP3    H220427   7.042   3.150   2.995
 6828TIP3   OH220428   5.673   2.938   4.713
 6828TIP3    H120429   5.607   2.921   4.646
 6828TIP3    H220430   5.711   2.852   4.732
 6829TIP3   OH220431   5.529   3.133   4.349
 6829TIP3    H120432   5.625   3.133   4.339
 6829TIP3    H220433   5.510   3.213   4.398
 6830TIP3   OH220434   7.391   3.585   4.405
 6830TIP3    H120435   7.392   3.490   4.416
 6830TIP3    H220436   7.310   3.613   4.447
 6831TIP3   OH220437   6.498   3.367   4.540
 6831TIP3    H120438   6.497   3.459   4.567
 6831TIP3    H220439   6.428   3.326   4.590
 6832TIP3   OH220440   6.263   3.501   3.485
 6832TIP3    H120441   6.216   3.481   3.405
 6832TIP3    H220442   6.226   3.584   3.515
 6833TIP3   OH220443   5.700   3.343   3.875
 6833TIP3    H120444   5.747   3.339   3.958
 6833TIP3    H220445   5.640   3.268   3.879
 6834TIP3   OH220446   6.463   3.400   3.126
 6834TIP3    H120447   6.519   3.331   3.090
 6834TIP3    H220448   6.494   3.411   3.215
 6835TIP3   OH220449   6.513   3.448   3.396
 6835TIP3    H120450   6.425   3.460   3.433
 6835TIP3    H220451   6.564   3.411   3.468
 6836TIP3   OH220452   7.282   2.712   4.675
 6836TIP3    H120453   7.199   2.726   4.630
 6836TIP3    H220454   7.299   2.619   4.668
 6837TIP3   OH220455   5.879   3.119   4.697
 6837TIP3    H120456   5.927   3.108   4.779
 6837TIP3    H220457   5.804   3.060   4.704
 6838TIP3   OH220458   6.275   1.946   4.489
 6838TIP3    H120459   6.191   1.913   4.458
 6838TIP3    H220460   6.254   2.027   4.537
 6839TIP3   OH220461   6.813   2.058   4.682
 6839TIP3    H120462   6.881   2.032   4.744
 6839TIP3    H220463   6.731   2.040   4.728
 6840TIP3   OH220464   7.049   2.491   4.600
 6840TIP3    H120465   6.999   2.487   4.682
 6840TIP3    H220466   7.026   2.577   4.563
 6841TIP3   OH220467   6.713   2.613   3.151
 6841TIP3    H120468   6.675   2.593   3.066
 6841TIP3    H220469   6.793   2.661   3.131
 6842TIP3   OH220470   6.421   1.990   3.459
 6842TIP3    H120471   6.389   1.990   3.549
 6842TIP3    H220472   6.384   1.911   3.421
 6843TIP3   OH220473   6.210   2.464   4.504
 6843TIP3    H120474   6.161   2.481   4.585
 6843TIP3    H220475   6.196   2.542   4.451
 6844TIP3   OH220476   6.093   2.345   4.016
 6844TIP3    H120477   6.003   2.323   4.038
 6844TIP3    H220478   6.107   2.307   3.930
 6845TIP3   OH220479   6.584   2.433   3.746
 6845TIP3    H120480   6.534   2.504   3.705
 6845TIP3    H220481   6.639   2.399   3.675
 6846TIP3   OH220482   6.760   2.706   4.831
 6846TIP3    H120483   6.736   2.636   4.892
 6846TIP3    H220484   6.852   2.724   4.852
 6847TIP3   OH220485   6.739   2.458   3.981
 6847TIP3    H120486   6.677   2.490   3.916
 6847TIP3    H220487   6.776   2.379   3.941
 6848TIP3   OH220488   6.031   2.489   4.713
 6848TIP3    H120489   6.054   2.556   4.777
 6848TIP3    H220490   6.019   2.409   4.765
 6849TIP3   OH220491   6.077   1.969   3.424
 6849TIP3    H120492   6.070   1.966   3.519
 6849TIP3    H220493   6.003   2.022   3.395
 6850TIP3   OH220494   5.624   2.007   4.295
 6850TIP3    H120495   5.695   2.043   4.349
 6850TIP3    H220496   5.667   1.984   4.213
 6851TIP3   OH220497   5.587   1.994   3.810
 6851TIP3    H120498   5.634   2.027   3.733
 6851TIP3    H220499   5.526   2.065   3.833
 6852TIP3   OH220500   6.752   2.702   4.405
 6852TIP3    H120501   6.785   2.635   4.345
 6852TIP3    H220502   6.721   2.653   4.481
 6853TIP3   OH220503   6.426   2.165   4.079
 6853TIP3    H120504   6.344   2.167   4.130
 6853TIP3    H220505   6.495   2.165   4.145
 6854TIP3   OH220506   5.854   2.226   4.085
 6854TIP3    H120507   5.763   2.235   4.058
 6854TIP3    H220508   5.878   2.136   4.062
 6855TIP3   OH220509   6.121   2.220   3.776
 6855TIP3    H120510   6.213   2.236   3.755
 6855TIP3    H220511   6.074   2.242   3.696
 6856TIP3   OH220512   6.912   2.243   4.282
 6856TIP3    H120513   6.885   2.259   4.372
 6856TIP3    H220514   6.845   2.185   4.246
 6857TIP3   OH220515   5.972   2.253   3.550
 6857TIP3    H120516   5.900   2.210   3.505
 6857TIP3    H220517   6.023   2.293   3.480
 6858TIP3   OH220518   7.087   3.933   4.499
 6858TIP3    H120519   7.077   3.956   4.406
 6858TIP3    H220520   7.161   3.986   4.529
 6859TIP3   OH220521   6.042   3.042   4.924
 6859TIP3    H120522   6.121   3.074   4.967
 6859TIP3    H220523   5.975   3.043   4.992
 6860TIP3   OH220524   6.504   2.497   4.178
 6860TIP3    H120525   6.578   2.460   4.129
 6860TIP3    H220526   6.509   2.455   4.264
 6861TIP3   OH220527   6.023   1.983   4.059
 6861TIP3    H120528   5.987   1.908   4.108
 6861TIP3    H220529   6.068   1.943   3.985
 6862TIP3   OH220530   6.480   2.399   4.467
 6862TIP3    H120531   6.391   2.433   4.480
 6862TIP3    H220532   6.536   2.459   4.516
 6863TIP3   OH220533   6.217   2.782   3.564
 6863TIP3    H120534   6.146   2.720   3.548
 6863TIP3    H220535   6.198   2.818   3.651
 6864TIP3   OH220536   7.115   3.020   4.186
 6864TIP3    H120537   7.138   3.072   4.109
 6864TIP3    H220538   7.032   2.978   4.163
 6865TIP3   OH220539   6.673   2.096   3.428
 6865TIP3    H120540   6.579   2.077   3.436
 6865TIP3    H220541   6.681   2.188   3.453
 6866TIP3   OH220542   6.616   3.105   4.560
 6866TIP3    H120543   6.644   3.089   4.650
 6866TIP3    H220544   6.577   3.192   4.562
 6867TIP3   OH220545   6.743   2.346   3.529
 6867TIP3    H120546   6.837   2.353   3.545
 6867TIP3    H220547   6.722   2.425   3.479
 6868TIP3   OH220548   5.911   2.805   4.235
 6868TIP3    H120549   5.948   2.779   4.151
 6868TIP3    H220550   5.955   2.748   4.299
 6869TIP3   OH220551   6.360   2.935   3.385
 6869TIP3    H120552   6.314   3.019   3.386
 6869TIP3    H220553   6.308   2.880   3.444
 6870TIP3   OH220554   5.794   2.722   4.850
 6870TIP3    H120555   5.810   2.713   4.944
 6870TIP3    H220556   5.722   2.661   4.832
 6871TIP3   OH220557   6.519   2.842   4.869
 6871TIP3    H120558   6.456   2.785   4.826
 6871TIP3    H220559   6.604   2.809   4.841
 6872TIP3   OH220560   6.775   3.362   4.458
 6872TIP3    H120561   6.680   3.360   4.468
 6872TIP3    H220562   6.806   3.414   4.532
 6873TIP3   OH220563   7.184   2.439   3.359
 6873TIP3    H120564   7.124   2.392   3.300
 6873TIP3    H220565   7.183   2.529   3.326
 6874TIP3   OH220566   7.404   3.296   4.439
 6874TIP3    H120567   7.309   3.291   4.436
 6874TIP3    H220568   7.433   3.266   4.353
 6875TIP3   OH220569   6.891   3.254   3.273
 6875TIP3    H120570   6.858   3.188   3.335
 6875TIP3    H220571   6.900   3.207   3.191
 6876TIP3   OH220572   6.881   2.882   4.103
 6876TIP3    H120573   6.789   2.861   4.119
 6876TIP3    H220574   6.916   2.804   4.060
 6877TIP3   OH220575   6.011   3.114   3.859
 6877TIP3    H120576   6.009   3.194   3.806
 6877TIP3    H220577   5.919   3.097   3.879
 6878TIP3   OH220578   5.577   2.417   3.571
 6878TIP3    H120579   5.621   2.500   3.588
 6878TIP3    H220580   5.500   2.418   3.628
 6879TIP3   OH220581   6.143   2.876   3.806
 6879TIP3    H120582   6.110   2.965   3.820
 6879TIP3    H220583   6.109   2.825   3.879
 6880TIP3   OH220584   6.284   3.456   4.329
 6880TIP3    H120585   6.321   3.529   4.280
 6880TIP3    H220586   6.358   3.419   4.377
 6881TIP3   OH220587   5.929   3.351   3.714
 6881TIP3    H120588   5.845   3.358   3.760
 6881TIP3    H220589   5.965   3.440   3.716
 6882TIP3   OH220590   6.666   3.087   4.293
 6882TIP3    H120591   6.653   3.089   4.388
 6882TIP3    H220592   6.746   3.037   4.280
 6883TIP3   OH220593   6.645   2.983   3.175
 6883TIP3    H120594   6.698   2.958   3.250
 6883TIP3    H220595   6.556   2.957   3.199
 6884TIP3   OH220596   6.915   3.619   4.336
 6884TIP3    H120597   6.836   3.565   4.334
 6884TIP3    H220598   6.901   3.684   4.268
 6885TIP3   OH220599   6.981   3.458   2.991
 6885TIP3    H120600   7.019   3.528   2.938
 6885TIP3    H220601   6.901   3.497   3.028
 6886TIP3   OH220602   5.999   2.231   4.857
 6886TIP3    H120603   5.904   2.236   4.868
 6886TIP3    H220604   6.029   2.177   4.930
 6887TIP3   OH220605   6.808   2.910   3.385
 6887TIP3    H120606   6.794   2.849   3.459
 6887TIP3    H220607   6.903   2.912   3.374
 6888TIP3   OH220608   5.721   3.316   4.488
 6888TIP3    H120609   5.775   3.249   4.530
 6888TIP3    H220610   5.740   3.396   4.537
 6889TIP3   OH220611   6.010   2.960   3.174
 6889TIP3    H120612   6.021   2.868   3.147
 6889TIP3    H220613   5.989   2.955   3.267
 6890TIP3   OH220614   5.954   2.970   3.444
 6890TIP3    H120615   6.024   2.942   3.504
 6890TIP3    H220616   5.953   3.065   3.450
 6891TIP3   OH220617   5.684   2.663   3.650
 6891TIP3    H120618   5.619   2.704   3.707
 6891TIP3    H220619   5.699   2.727   3.580
 6892TIP3   OH220620   6.845   2.294   4.541
 6892TIP3    H120621   6.921   2.335   4.580
 6892TIP3    H220622   6.830   2.215   4.594
 6893TIP3   OH220623   6.722   2.046   3.709
 6893TIP3    H120624   6.708   2.066   3.617
 6893TIP3    H220625   6.761   2.126   3.745
 6894TIP3   OH220626   6.219   3.167   3.392
 6894TIP3    H120627   6.133   3.185   3.430
 6894TIP3    H220628   6.237   3.242   3.335
 6895TIP3   OH220629   6.407   2.231   3.810
 6895TIP3    H120630   6.468   2.301   3.791
 6895TIP3    H220631   6.411   2.220   3.905
 6896TIP3   OH220632   6.679   2.544   4.614
 6896TIP3    H120633   6.700   2.599   4.690
 6896TIP3    H220634   6.730   2.465   4.627
 6897TIP3   OH220635   6.550   1.951   3.908
 6897TIP3    H120636   6.538   2.026   3.966
 6897TIP3    H220637   6.612   1.982   3.841
 6898TIP3   OH220638   5.965   3.241   3.464
 6898TIP3    H120639   5.936   3.307   3.401
 6898TIP3    H220640   5.949   3.281   3.549
 6899TIP3   OH220641   6.066   1.957   3.700
 6899TIP3    H120642   6.059   2.045   3.736
 6899TIP3    H220643   6.160   1.936   3.705
 6900TIP3   OH220644   7.314   2.445   4.596
 6900TIP3    H120645   7.219   2.446   4.606
 6900TIP3    H220646   7.329   2.404   4.511
 6901TIP3   OH220647   6.968   2.638   3.984
 6901TIP3    H120648   6.892   2.582   3.996
 6901TIP3    H220649   7.038   2.593   4.031
 6902TIP3   OH220650   5.684   2.864   3.452
 6902TIP3    H120651   5.746   2.936   3.464
 6902TIP3    H220652   5.725   2.808   3.386
 6903TIP3   OH220653   5.622   2.146   3.586
 6903TIP3    H120654   5.628   2.241   3.587
 6903TIP3    H220655   5.539   2.128   3.541
 6904TIP3   OH220656   6.939   3.600   3.929
 6904TIP3    H120657   6.894   3.644   3.858
 6904TIP3    H220658   7.032   3.615   3.912
 6905TIP3   OH220659   6.013   1.863   4.457
 6905TIP3    H120660   5.983   1.832   4.372
 6905TIP3    H220661   6.002   1.788   4.515
 6906TIP3   OH220662   5.543   3.076   3.835
 6906TIP3    H120663   5.486   3.110   3.905
 6906TIP3    H220664   5.512   3.121   3.756
 6907TIP3   OH220665   5.713   3.630   4.913
 6907TIP3    H120666   5.797   3.634   4.959
 6907TIP3    H220667   5.691   3.537   4.912
 6908TIP3   OH220668   6.188   3.583   4.960
 6908TIP3    H120669   6.283   3.573   4.963
 6908TIP3    H220670   6.160   3.525   4.889
 6909TIP3   OH220671   6.170   3.162   3.080
 6909TIP3    H120672   6.114   3.095   3.120
 6909TIP3    H220673   6.247   3.114   3.049
 6910TIP3   OH220674   6.833   3.495   4.691
 6910TIP3    H120675   6.823   3.428   4.758
 6910TIP3    H220676   6.905   3.550   4.722
 6911TIP3   OH220677   6.608   3.202   2.997
 6911TIP3    H120678   6.647   3.139   3.057
 6911TIP3    H220679   6.664   3.200   2.919
 6912TIP3   OH220680   5.838   3.032   5.111
 6912TIP3    H120681   5.854   2.938   5.118
 6912TIP3    H220682   5.753   3.038   5.067
 6913TIP3   OH220683   5.821   2.679   3.308
 6913TIP3    H120684   5.874   2.652   3.383
 6913TIP3    H220685   5.883   2.685   3.235
 6914TIP3   OH220686   6.447   3.120   4.885
 6914TIP3    H120687   6.404   3.142   4.802
 6914TIP3    H220688   6.476   3.029   4.874
 6915TIP3   OH220689   6.335   2.880   3.117
 6915TIP3    H120690   6.334   2.895   3.211
 6915TIP3    H220691   6.332   2.785   3.108
 6916TIP3   OH220692   6.939   3.132   4.493
 6916TIP3    H120693   7.015   3.173   4.450
 6916TIP3    H220694   6.868   3.195   4.481
 6917TIP3   OH220695   5.961   2.767   5.099
 6917TIP3    H120696   6.039   2.721   5.069
 6917TIP3    H220697   5.986   2.802   5.185
 6918TIP3   OH220698   6.022   2.587   3.526
 6918TIP3    H120699   5.995   2.551   3.611
 6918TIP3    H220700   6.060   2.513   3.479
 6919TIP3   OH220701   6.295   2.653   4.756
 6919TIP3    H120702   6.218   2.709   4.758
 6919TIP3    H220703   6.345   2.685   4.681
 6920TIP3   OH220704   6.129   2.382   3.365
 6920TIP3    H120705   6.100   2.391   3.274
 6920TIP3    H220706   6.224   2.386   3.361
 6921TIP3   OH220707   6.812   3.052   4.891
 6921TIP3    H120708   6.889   3.023   4.842
 6921TIP3    H220709   6.805   2.990   4.963
 6922TIP3   OH220710   6.945   2.711   3.032
 6922TIP3    H120711   6.926   2.664   2.951
 6922TIP3    H220712   6.914   2.800   3.017
 6923TIP3   OH220713   6.418   2.441   4.878
 6923TIP3    H120714   6.418   2.363   4.822
 6923TIP3    H220715   6.375   2.509   4.825
 6924TIP3   OH220716   6.420   2.226   4.687
 6924TIP3    H120717   6.449   2.269   4.607
 6924TIP3    H220718   6.328   2.205   4.672
 6925TIP3   OH220719   6.444   2.763   4.562
 6925TIP3    H120720   6.529   2.777   4.522
 6925TIP3    H220721   6.386   2.825   4.518
 6926TIP3   OH220722   7.027   2.727   4.941
 6926TIP3    H120723   7.075   2.645   4.954
 6926TIP3    H220724   7.092   2.787   4.906
 6927TIP3   OH220725   7.069   2.983   4.676
 6927TIP3    H120726   7.009   3.035   4.622
 6927TIP3    H220727   7.156   3.002   4.640
 6928TIP3   OH220728   6.297   2.544   5.114
 6928TIP3    H120729   6.228   2.480   5.131
 6928TIP3    H220730   6.329   2.523   5.026
 6929TIP3   OH220731   6.549   1.989   4.759
 6929TIP3    H120732   6.503   2.070   4.736
 6929TIP3    H220733   6.484   1.920   4.748
 6930TIP3   OH220734   6.676   2.489   4.975
 6930TIP3    H120735   6.665   2.477   5.070
 6930TIP3    H220736   6.590   2.468   4.938
 6931TIP3   OH220737   6.915   2.440   4.830
 6931TIP3    H120738   6.841   2.444   4.890
 6931TIP3    H220739   6.989   2.412   4.884
 6932TIP3   OH220740   7.147   2.384   4.979
 6932TIP3    H120741   7.159   2.290   4.994
 6932TIP3    H220742   7.141   2.422   5.067
 6933TIP3   OH220743   6.134   2.325   5.170
 6933TIP3    H120744   6.139   2.236   5.135
 6933TIP3    H220745   6.170   2.318   5.259
 6934TIP3   OH220746   6.645   1.997   5.016
 6934TIP3    H120747   6.711   1.928   5.012
 6934TIP3    H220748   6.604   1.996   4.930
 6935TIP3   OH220749   6.710   2.213   5.175
 6935TIP3    H120750   6.691   2.143   5.112
 6935TIP3    H220751   6.635   2.272   5.169
 6936TIP3   OH220752   5.935   3.438   3.270
 6936TIP3    H120753   6.030   3.433   3.256
 6936TIP3    H220754   5.904   3.494   3.199
 6937TIP3   OH220755   5.414   2.824   3.487
 6937TIP3    H120756   5.506   2.847   3.476
 6937TIP3    H220757   5.406   2.737   3.448
 6938TIP3   OH220758   5.334   3.431   3.904
 6938TIP3    H120759   5.265   3.376   3.865
 6938TIP3    H220760   5.375   3.374   3.969
 6939TIP3   OH220761   5.469   3.279   4.091
 6939TIP3    H120762   5.449   3.213   4.157
 6939TIP3    H220763   5.518   3.346   4.139
 6940TIP3   OH220764   7.196   3.682   3.893
 6940TIP3    H120765   7.217   3.716   3.980
 6940TIP3    H220766   7.253   3.731   3.834
 6941TIP3   OH220767   7.220   3.703   4.175
 6941TIP3    H120768   7.172   3.621   4.168
 6941TIP3    H220769   7.294   3.683   4.232
 6942TIP3   OH220770   7.267   3.387   4.748
 6942TIP3    H120771   7.196   3.393   4.812
 6942TIP3    H220772   7.309   3.472   4.750
 6943TIP3   OH220773   7.087   2.895   3.366
 6943TIP3    H120774   7.149   2.962   3.335
 6943TIP3    H220775   7.129   2.859   3.444
 6944TIP3   OH220776   7.213   2.763   3.573
 6944TIP3    H120777   7.145   2.722   3.627
 6944TIP3    H220778   7.274   2.802   3.635
 6945TIP3   OH220779   7.270   3.160   4.002
 6945TIP3    H120780   7.319   3.093   3.956
 6945TIP3    H220781   7.263   3.232   3.939
 6946TIP3   OH220782   7.092   3.457   4.196
 6946TIP3    H120783   7.023   3.500   4.246
 6946TIP3    H220784   7.046   3.412   4.125
 6947TIP3   OH220785   7.146   2.674   3.214
 6947TIP3    H120786   7.078   2.673   3.147
 6947TIP3    H220787   7.123   2.747   3.271
 6948TIP3   OH220788   7.021   2.342   3.165
 6948TIP3    H120789   6.972   2.382   3.093
 6948TIP3    H220790   6.999   2.249   3.160
 6949TIP3   OH220791   7.024   2.622   3.716
 6949TIP3    H120792   7.030   2.527   3.707
 6949TIP3    H220793   7.009   2.637   3.810
 6950TIP3   OH220794   5.652   2.689   4.463
 6950TIP3    H120795   5.645   2.660   4.373
 6950TIP3    H220796   5.746   2.694   4.480
 6951TIP3   OH220797   7.316   3.047   4.572
 6951TIP3    H120798   7.385   2.982   4.561
 6951TIP3    H220799   7.338   3.115   4.508
 6952TIP3   OH220800   7.498   2.845   4.581
 6952TIP3    H120801   7.422   2.802   4.620
 6952TIP3    H220802   7.571   2.785   4.597
 6953TIP3   OH220803   6.962   2.077   3.152
 6953TIP3    H120804   7.031   2.046   3.210
 6953TIP3    H220805   6.887   2.021   3.172
 6954TIP3   OH220806   7.023   2.337   3.607
 6954TIP3    H120807   7.061   2.251   3.624
 6954TIP3    H220808   7.078   2.373   3.537
 6955TIP3   OH220809   7.183   2.509   4.107
 6955TIP3    H120810   7.265   2.532   4.063
 6955TIP3    H220811   7.192   2.545   4.195
 6956TIP3   OH220812   7.252   2.658   4.335
 6956TIP3    H120813   7.175   2.689   4.384
 6956TIP3    H220814   7.285   2.737   4.291
 6957TIP3   OH220815   5.868   2.375   5.133
 6957TIP3    H120816   5.963   2.376   5.138
 6957TIP3    H220817   5.843   2.292   5.174
 6958TIP3   OH220818   7.705   2.250   4.888
 6958TIP3    H120819   7.763   2.185   4.847
 6958TIP3    H220820   7.672   2.302   4.815
 6959TIP3   OH220821   7.131   2.087   3.648
 6959TIP3    H120822   7.178   2.074   3.730
 6959TIP3    H220823   7.069   2.014   3.644
 6960TIP3   OH220824   5.832   2.074   4.467
 6960TIP3    H120825   5.891   1.999   4.475
 6960TIP3    H220826   5.890   2.149   4.459
 6961TIP3   OH220827   5.631   2.346   4.539
 6961TIP3    H120828   5.679   2.344   4.456
 6961TIP3    H220829   5.651   2.432   4.576
 6962TIP3   OH220830   7.568   2.384   4.695
 6962TIP3    H120831   7.487   2.430   4.719
 6962TIP3    H220832   7.539   2.312   4.639
 6963TIP3   OH220833   7.208   2.021   3.282
 6963TIP3    H120834   7.244   1.953   3.226
 6963TIP3    H220835   7.273   2.091   3.278
 6964TIP3   OH220836   5.615   1.847   4.037
 6964TIP3    H120837   5.525   1.843   4.070
 6964TIP3    H220838   5.611   1.907   3.962
 6965TIP3   OH220839   6.778   3.555   3.547
 6965TIP3    H120840   6.826   3.545   3.465
 6965TIP3    H220841   6.825   3.623   3.595
 6966TIP3   OH220842   5.833   1.926   4.853
 6966TIP3    H120843   5.786   1.926   4.937
 6966TIP3    H220844   5.772   1.968   4.792
 6967TIP3   OH220845   5.875   3.354   4.931
 6967TIP3    H120846   5.783   3.335   4.914
 6967TIP3    H220847   5.885   3.346   5.026
 6968TIP3   OH220848   6.057   3.396   4.476
 6968TIP3    H120849   6.004   3.467   4.442
 6968TIP3    H220850   6.142   3.407   4.434
 6969TIP3   OH220851   6.497   3.633   4.616
 6969TIP3    H120852   6.535   3.634   4.704
 6969TIP3    H220853   6.558   3.685   4.563
 6970TIP3   OH220854   6.676   3.789   4.480
 6970TIP3    H120855   6.744   3.738   4.435
 6970TIP3    H220856   6.724   3.846   4.540
 6971TIP3   OH220857   7.470   2.146   4.576
 6971TIP3    H120858   7.381   2.141   4.541
 6971TIP3    H220859   7.504   2.057   4.567
 6972TIP3   OH220860   5.728   3.646   4.511
 6972TIP3    H120861   5.640   3.672   4.483
 6972TIP3    H220862   5.746   3.700   4.587
 6973TIP3   OH220863   5.962   3.626   4.361
 6973TIP3    H120864   5.879   3.639   4.407
 6973TIP3    H220865   5.947   3.661   4.274
 6974TIP3   OH220866   6.391   3.655   4.159
 6974TIP3    H120867   6.319   3.669   4.097
 6974TIP3    H220868   6.402   3.740   4.202
 6975TIP3   OH220869   6.660   3.593   4.211
 6975TIP3    H120870   6.567   3.609   4.195
 6975TIP3    H220871   6.704   3.668   4.170
 6976TIP3   OH220872   6.869   3.784   4.123
 6976TIP3    H120873   6.854   3.868   4.079
 6976TIP3    H220874   6.893   3.724   4.053
 6977TIP3   OH220875   5.643   3.438   4.246
 6977TIP3    H120876   5.664   3.415   4.336
 6977TIP3    H220877   5.713   3.399   4.194
 6978TIP3   OH220878   5.839   3.312   4.107
 6978TIP3    H120879   5.851   3.232   4.157
 6978TIP3    H220880   5.927   3.351   4.103
 6979TIP3   OH220881   6.105   3.403   4.114
 6979TIP3    H120882   6.133   3.312   4.104
 6979TIP3    H220883   6.147   3.433   4.194
 6980TIP3   OH220884   6.679   2.062   4.199
 6980TIP3    H120885   6.635   1.993   4.248
 6980TIP3    H220886   6.751   2.018   4.154
 6981TIP3   OH220887   7.196   1.945   4.099
 6981TIP3    H120888   7.234   1.995   4.026
 6981TIP3    H220889   7.103   1.964   4.094
 6982TIP3   OH220890   7.297   2.044   3.863
 6982TIP3    H120891   7.368   1.991   3.827
 6982TIP3    H220892   7.326   2.135   3.851
 6983TIP3   OH220893   5.924   1.769   4.210
 6983TIP3    H120894   5.832   1.740   4.214
 6983TIP3    H220895   5.974   1.687   4.206
 6984TIP3   OH220896   5.715   1.645   3.861
 6984TIP3    H120897   5.743   1.700   3.788
 6984TIP3    H220898   5.686   1.708   3.928
 6985TIP3   OH220899   6.373   1.803   4.094
 6985TIP3    H120900   6.427   1.849   4.029
 6985TIP3    H220901   6.396   1.843   4.177
 6986TIP3   OH220902   6.913   1.950   4.075
 6986TIP3    H120903   6.915   1.912   3.987
 6986TIP3    H220904   6.902   1.874   4.133
 6987TIP3   OH220905   6.944   1.877   3.640
 6987TIP3    H120906   6.861   1.922   3.655
 6987TIP3    H220907   6.932   1.791   3.682
 6988TIP3   OH220908   5.428   3.219   3.636
 6988TIP3    H120909   5.343   3.185   3.606
 6988TIP3    H220910   5.424   3.312   3.617
 6989TIP3   OH220911   5.834   1.800   3.622
 6989TIP3    H120912   5.880   1.738   3.565
 6989TIP3    H220913   5.904   1.855   3.658
 6990TIP3   OH220914   6.343   1.981   3.723
 6990TIP3    H120915   6.400   1.931   3.781
 6990TIP3    H220916   6.360   2.072   3.745
 6991TIP3   OH220917   6.204   3.396   3.221
 6991TIP3    H120918   6.290   3.423   3.187
 6991TIP3    H220919   6.178   3.324   3.163
 6992TIP3   OH220920   6.922   3.521   3.313
 6992TIP3    H120921   6.916   3.426   3.305
 6992TIP3    H220922   6.875   3.555   3.237
 6993TIP3   OH220923   6.134   2.050   5.103
 6993TIP3    H120924   6.095   1.982   5.158
 6993TIP3    H220925   6.226   2.052   5.129
 6994TIP3   OH220926   6.383   2.047   5.222
 6994TIP3    H120927   6.468   2.028   5.181
 6994TIP3    H220928   6.371   1.979   5.287
 6995TIP3   OH220929   5.504   3.234   3.276
 6995TIP3    H120930   5.503   3.261   3.368
 6995TIP3    H220931   5.590   3.194   3.263
 6996TIP3   OH220932   7.212   2.113   5.009
 6996TIP3    H120933   7.226   2.083   5.099
 6996TIP3    H220934   7.298   2.108   4.968
 6997TIP3   OH220935   7.142   3.664   4.500
 6997TIP3    H120936   7.067   3.631   4.451
 6997TIP3    H220937   7.126   3.758   4.508
 6998TIP3   OH220938   7.713   2.928   4.012
 6998TIP3    H120939   7.734   2.857   4.074
 6998TIP3    H220940   7.782   2.993   4.026
 6999TIP3   OH220941   7.683   3.343   3.738
 6999TIP3    H120942   7.673   3.248   3.739
 6999TIP3    H220943   7.777   3.356   3.731
 7000TIP3   OH220944   7.387   2.547   3.517
 7000TIP3    H120945   7.341   2.627   3.540
 7000TIP3    H220946   7.320   2.491   3.478
 7001TIP3   OH220947   7.449   2.832   3.701
 7001TIP3    H120948   7.496   2.756   3.734
 7001TIP3    H220949   7.505   2.865   3.630
 7002TIP3   OH220950   8.316   3.763   3.330
 7002TIP3    H120951   8.409   3.739   3.330
 7002TIP3    H220952   8.296   3.779   3.422
 7003TIP3   OH220953   8.224   3.247   3.699
 7003TIP3    H120954   8.230   3.228   3.605
 7003TIP3    H220955   8.298   3.305   3.715
 7004TIP3   OH220956   7.935   2.423   3.704
 7004TIP3    H120957   7.953   2.487   3.635
 7004TIP3    H220958   7.904   2.346   3.656
 7005TIP3   OH220959   7.598   2.624   3.799
 7005TIP3    H120960   7.675   2.607   3.853
 7005TIP3    H220961   7.610   2.569   3.722
 7006TIP3   OH220962   8.024   2.822   3.589
 7006TIP3    H120963   8.115   2.794   3.599
 7006TIP3    H220964   7.977   2.743   3.563
 7007TIP3   OH220965   7.959   2.415   4.139
 7007TIP3    H120966   7.905   2.447   4.067
 7007TIP3    H220967   7.907   2.432   4.218
 7008TIP3   OH220968   8.067   3.184   3.932
 7008TIP3    H120969   8.004   3.247   3.966
 7008TIP3    H220970   8.111   3.230   3.861
 7009TIP3   OH220971   7.826   2.526   3.924
 7009TIP3    H120972   7.887   2.596   3.946
 7009TIP3    H220973   7.865   2.482   3.849
 7010TIP3   OH220974   7.892   3.380   4.021
 7010TIP3    H120975   7.871   3.466   3.983
 7010TIP3    H220976   7.816   3.358   4.075
 7011TIP3   OH220977   7.286   3.070   3.255
 7011TIP3    H120978   7.243   3.094   3.173
 7011TIP3    H220979   7.315   3.153   3.292
 7012TIP3   OH220980   7.813   2.966   3.484
 7012TIP3    H120981   7.775   2.910   3.417
 7012TIP3    H220982   7.890   2.918   3.515
 7013TIP3   OH220983   7.944   3.384   3.630
 7013TIP3    H120984   7.919   3.352   3.544
 7013TIP3    H220985   8.027   3.339   3.649
 7014TIP3   OH220986   7.966   2.940   3.839
 7014TIP3    H120987   7.991   2.920   3.748
 7014TIP3    H220988   8.002   3.028   3.854
 7015TIP3   OH220989   8.092   3.491   4.175
 7015TIP3    H120990   8.036   3.556   4.217
 7015TIP3    H220991   8.032   3.439   4.121
 7016TIP3   OH220992   7.844   3.062   4.266
 7016TIP3    H120993   7.851   3.147   4.310
 7016TIP3    H220994   7.755   3.033   4.284
 7017TIP3   OH220995   8.191   3.547   3.202
 7017TIP3    H120996   8.214   3.633   3.235
 7017TIP3    H220997   8.127   3.564   3.132
 7018TIP3   OH220998   7.889   3.660   4.252
 7018TIP3    H120999   7.857   3.665   4.162
 7018TIP3    H221000   7.811   3.641   4.304
 7019TIP3   OH221001   7.688   2.805   3.283
 7019TIP3    H121002   7.627   2.857   3.231
 7019TIP3    H221003   7.638   2.728   3.311
 7020TIP3   OH221004   7.471   3.196   4.199
 7020TIP3    H121005   7.403   3.178   4.134
 7020TIP3    H221006   7.506   3.109   4.220
 7021TIP3   OH221007   7.325   3.390   3.832
 7021TIP3    H121008   7.421   3.389   3.825
 7021TIP3    H221009   7.306   3.469   3.884
 7022TIP3   OH221010   8.282   3.608   4.017
 7022TIP3    H121011   8.291   3.698   4.046
 7022TIP3    H221012   8.213   3.571   4.073
 7023TIP3   OH221013   8.059   3.751   2.974
 7023TIP3    H121014   8.016   3.736   2.890
 7023TIP3    H221015   8.027   3.837   3.002
 7024TIP3   OH221016   7.494   3.601   3.361
 7024TIP3    H121017   7.541   3.596   3.445
 7024TIP3    H221018   7.438   3.524   3.361
 7025TIP3   OH221019   8.323   3.715   2.911
 7025TIP3    H121020   8.233   3.733   2.936
 7025TIP3    H221021   8.335   3.621   2.930
 7026TIP3   OH221022   7.676   3.376   4.185
 7026TIP3    H121023   7.724   3.363   4.267
 7026TIP3    H221024   7.602   3.317   4.190
 7027TIP3   OH221025   8.058   2.193   3.998
 7027TIP3    H121026   7.976   2.168   3.957
 7027TIP3    H221027   8.041   2.279   4.036
 7028TIP3   OH221028   8.000   2.725   3.995
 7028TIP3    H121029   7.948   2.741   4.074
 7028TIP3    H221030   7.985   2.802   3.940
 7029TIP3   OH221031   7.882   2.605   3.499
 7029TIP3    H121032   7.800   2.573   3.537
 7029TIP3    H221033   7.872   2.591   3.405
 7030TIP3   OH221034   7.815   2.742   4.202
 7030TIP3    H121035   7.863   2.799   4.262
 7030TIP3    H221036   7.804   2.660   4.249
 7031TIP3   OH221037   7.887   2.212   2.915
 7031TIP3    H121038   7.824   2.185   2.981
 7031TIP3    H221039   7.837   2.265   2.854
 7032TIP3   OH221040   7.419   2.266   3.778
 7032TIP3    H121041   7.490   2.299   3.833
 7032TIP3    H221042   7.463   2.231   3.701
 7033TIP3   OH221043   7.385   2.253   3.297
 7033TIP3    H121044   7.430   2.288   3.220
 7033TIP3    H221045   7.323   2.321   3.321
 7034TIP3   OH221046   7.649   2.484   3.568
 7034TIP3    H121047   7.557   2.494   3.543
 7034TIP3    H221048   7.668   2.391   3.555
 7035TIP3   OH221049   7.780   2.476   3.055
 7035TIP3    H121050   7.703   2.448   3.005
 7035TIP3    H221051   7.833   2.524   2.991
 7036TIP3   OH221052   7.839   3.303   4.411
 7036TIP3    H121053   7.919   3.330   4.457
 7036TIP3    H221054   7.772   3.299   4.480
 7037TIP3   OH221055   7.817   2.232   3.542
 7037TIP3    H121056   7.778   2.169   3.604
 7037TIP3    H221057   7.862   2.177   3.478
 7038TIP3   OH221058   8.268   2.650   3.994
 7038TIP3    H121059   8.176   2.673   3.978
 7038TIP3    H221060   8.313   2.734   4.001
 7039TIP3   OH221061   7.992   3.060   3.052
 7039TIP3    H121062   7.937   2.981   3.046
 7039TIP3    H221063   7.992   3.080   3.146
 7040TIP3   OH221064   8.378   3.334   4.078
 7040TIP3    H121065   8.407   3.325   4.168
 7040TIP3    H221066   8.350   3.426   4.070
 7041TIP3   OH221067   7.711   3.069   3.726
 7041TIP3    H121068   7.742   3.035   3.642
 7041TIP3    H221069   7.742   3.005   3.790
 7042TIP3   OH221070   8.116   3.186   2.843
 7042TIP3    H121071   8.094   3.276   2.866
 7042TIP3    H221072   8.092   3.135   2.921
 7043TIP3   OH221073   7.588   2.981   4.338
 7043TIP3    H121074   7.604   2.968   4.431
 7043TIP3    H221075   7.519   2.918   4.316
 7044TIP3   OH221076   8.315   3.099   4.354
 7044TIP3    H121077   8.260   3.052   4.291
 7044TIP3    H221078   8.403   3.061   4.342
 7045TIP3   OH221079   7.809   3.370   3.350
 7045TIP3    H121080   7.810   3.449   3.295
 7045TIP3    H221081   7.716   3.351   3.362
 7046TIP3   OH221082   7.374   2.674   3.059
 7046TIP3    H121083   7.417   2.757   3.076
 7046TIP3    H221084   7.296   2.675   3.115
 7047TIP3   OH221085   7.953   3.135   3.313
 7047TIP3    H121086   7.915   3.223   3.315
 7047TIP3    H221087   7.902   3.084   3.376
 7048TIP3   OH221088   8.078   3.708   3.817
 7048TIP3    H121089   8.109   3.785   3.769
 7048TIP3    H221090   8.153   3.678   3.867
 7049TIP3   OH221091   7.727   3.608   3.203
 7049TIP3    H121092   7.642   3.616   3.247
 7049TIP3    H221093   7.762   3.697   3.203
 7050TIP3   OH221094   7.792   2.491   4.347
 7050TIP3    H121095   7.697   2.493   4.355
 7050TIP3    H221096   7.821   2.432   4.417
 7051TIP3   OH221097   7.518   3.572   3.975
 7051TIP3    H121098   7.569   3.501   4.014
 7051TIP3    H221099   7.538   3.649   4.028
 7052TIP3   OH221100   7.802   3.215   2.662
 7052TIP3    H121101   7.806   3.123   2.636
 7052TIP3    H221102   7.783   3.212   2.756
 7053TIP3   OH221103   7.755   3.224   2.932
 7053TIP3    H121104   7.835   3.195   2.977
 7053TIP3    H221105   7.754   3.319   2.942
 7054TIP3   OH221106   7.484   2.922   3.138
 7054TIP3    H121107   7.418   2.962   3.195
 7054TIP3    H221108   7.497   2.986   3.068
 7055TIP3   OH221109   8.016   3.435   2.889
 7055TIP3    H121110   7.927   3.454   2.919
 7055TIP3    H221111   8.041   3.512   2.837
 7056TIP3   OH221112   7.755   3.499   2.949
 7056TIP3    H121113   7.725   3.565   2.887
 7056TIP3    H221114   7.742   3.539   3.035
 7057TIP3   OH221115   7.845   2.209   3.191
 7057TIP3    H121116   7.810   2.298   3.199
 7057TIP3    H221117   7.924   2.219   3.138
 7058TIP3   OH221118   7.482   3.120   2.939
 7058TIP3    H121119   7.544   3.192   2.953
 7058TIP3    H221120   7.522   3.067   2.871
 7059TIP3   OH221121   7.423   2.404   3.072
 7059TIP3    H121122   7.422   2.499   3.073
 7059TIP3    H221123   7.342   2.379   3.027
 7060TIP3   OH221124   7.795   2.121   3.945
 7060TIP3    H121125   7.778   2.086   3.857
 7060TIP3    H221126   7.791   2.045   4.003
 7061TIP3   OH221127   7.340   3.336   3.322
 7061TIP3    H121128   7.283   3.366   3.392
 7061TIP3    H221129   7.309   3.380   3.243
 7062TIP3   OH221130   7.511   3.883   4.401
 7062TIP3    H121131   7.595   3.881   4.447
 7062TIP3    H221132   7.484   3.791   4.395
 7063TIP3   OH221133   7.980   3.841   4.442
 7063TIP3    H121134   8.074   3.832   4.455
 7063TIP3    H221135   7.959   3.780   4.371
 7064TIP3   OH221136   7.959   3.418   2.572
 7064TIP3    H121137   7.900   3.351   2.605
 7064TIP3    H221138   8.046   3.386   2.593
 7065TIP3   OH221139   7.635   3.290   4.597
 7065TIP3    H121140   7.650   3.196   4.608
 7065TIP3    H221141   7.549   3.295   4.555
 7066TIP3   OH221142   7.623   2.939   2.790
 7066TIP3    H121143   7.673   2.914   2.868
 7066TIP3    H221144   7.688   2.944   2.720
 7067TIP3   OH221145   8.258   3.378   4.367
 7067TIP3    H121146   8.204   3.398   4.291
 7067TIP3    H221147   8.271   3.283   4.364
 7068TIP3   OH221148   8.110   3.118   2.588
 7068TIP3    H121149   8.130   3.155   2.674
 7068TIP3    H221150   8.033   3.063   2.603
 7069TIP3   OH221151   7.759   3.027   4.584
 7069TIP3    H121152   7.832   2.970   4.559
 7069TIP3    H221153   7.784   3.060   4.670
 7070TIP3   OH221154   7.818   2.837   3.013
 7070TIP3    H121155   7.787   2.801   3.097
 7070TIP3    H221156   7.863   2.763   2.971
 7071TIP3   OH221157   8.053   2.892   4.261
 7071TIP3    H121158   7.984   2.958   4.265
 7071TIP3    H221159   8.115   2.926   4.197
 7072TIP3   OH221160   7.931   2.625   2.856
 7072TIP3    H121161   7.884   2.637   2.773
 7072TIP3    H221162   8.021   2.609   2.829
 7073TIP3   OH221163   8.226   2.702   4.360
 7073TIP3    H121164   8.223   2.617   4.317
 7073TIP3    H221165   8.160   2.755   4.315
 7074TIP3   OH221166   8.226   2.472   4.193
 7074TIP3    H121167   8.235   2.524   4.113
 7074TIP3    H221168   8.140   2.432   4.186
 7075TIP3   OH221169   8.215   3.015   4.088
 7075TIP3    H121170   8.283   3.002   4.022
 7075TIP3    H221171   8.155   3.079   4.049
 7076TIP3   OH221172   8.097   2.804   4.598
 7076TIP3    H121173   8.029   2.738   4.614
 7076TIP3    H221174   8.128   2.785   4.510
 7077TIP3   OH221175   7.932   2.586   4.655
 7077TIP3    H121176   7.934   2.497   4.620
 7077TIP3    H221177   7.965   2.577   4.744
 7078TIP3   OH221178   7.722   3.698   2.759
 7078TIP3    H121179   7.817   3.694   2.752
 7078TIP3    H221180   7.695   3.752   2.684
 7079TIP3   OH221181   7.211   3.080   2.974
 7079TIP3    H121182   7.303   3.102   2.962
 7079TIP3    H221183   7.201   2.994   2.934
 7080TIP3   OH221184   7.126   3.690   3.393
 7080TIP3    H121185   7.060   3.634   3.353
 7080TIP3    H221186   7.171   3.633   3.456
 7081TIP3   OH221187   7.264   3.537   3.579
 7081TIP3    H121188   7.245   3.469   3.644
 7081TIP3    H221189   7.313   3.603   3.628
 7082TIP3   OH221190   7.448   2.949   3.950
 7082TIP3    H121191   7.440   2.917   3.861
 7082TIP3    H221192   7.542   2.951   3.967
 7083TIP3   OH221193   7.665   2.634   4.624
 7083TIP3    H121194   7.760   2.633   4.625
 7083TIP3    H221195   7.639   2.551   4.663
 7084TIP3   OH221196   7.623   2.333   3.953
 7084TIP3    H121197   7.678   2.256   3.959
 7084TIP3    H221198   7.684   2.407   3.952
 7085TIP3   OH221199   7.426   2.604   4.025
 7085TIP3    H121200   7.475   2.599   3.943
 7085TIP3    H221201   7.453   2.687   4.064
 7086TIP3   OH221202   7.411   2.105   3.524
 7086TIP3    H121203   7.321   2.100   3.557
 7086TIP3    H221204   7.405   2.165   3.450
 7087TIP3   OH221205   7.629   2.190   4.344
 7087TIP3    H121206   7.580   2.186   4.426
 7087TIP3    H221207   7.567   2.227   4.281
 7088TIP3   OH221208   7.669   3.618   4.419
 7088TIP3    H121209   7.579   3.593   4.402
 7088TIP3    H221210   7.684   3.595   4.511
 7089TIP3   OH221211   7.853   3.651   3.963
 7089TIP3    H121212   7.800   3.722   3.928
 7089TIP3    H221213   7.938   3.661   3.921
 7090TIP3   OH221214   8.282   3.875   4.104
 7090TIP3    H121215   8.325   3.881   4.189
 7090TIP3    H221216   8.330   3.936   4.048
 7091TIP3   OH221217   8.425   4.047   3.929
 7091TIP3    H121218   8.472   4.040   3.845
 7091TIP3    H221219   8.459   4.127   3.969
 7092TIP3   OH221220   7.523   3.905   3.994
 7092TIP3    H121221   7.435   3.932   3.966
 7092TIP3    H221222   7.539   3.954   4.074
 7093TIP3   OH221223   7.757   3.881   3.848
 7093TIP3    H121224   7.673   3.893   3.892
 7093TIP3    H221225   7.742   3.914   3.759
 7094TIP3   OH221226   8.158   3.919   3.650
 7094TIP3    H121227   8.086   3.929   3.588
 7094TIP3    H221228   8.172   4.007   3.685
 7095TIP3   OH221229   8.410   3.819   3.628
 7095TIP3    H121230   8.320   3.851   3.636
 7095TIP3    H221231   8.465   3.893   3.654
 7096TIP3   OH221232   7.440   3.696   3.734
 7096TIP3    H121233   7.460   3.670   3.824
 7096TIP3    H221234   7.508   3.656   3.681
 7097TIP3   OH221235   7.633   3.570   3.594
 7097TIP3    H121236   7.645   3.489   3.644
 7097TIP3    H221237   7.721   3.608   3.590
 7098TIP3   OH221238   7.898   3.663   3.600
 7098TIP3    H121239   7.924   3.572   3.588
 7098TIP3    H221240   7.944   3.690   3.680
 7099TIP3   OH221241   7.719   2.028   3.692
 7099TIP3    H121242   7.628   1.997   3.699
 7099TIP3    H221243   7.771   1.948   3.687
 7100TIP3   OH221244   7.514   1.906   3.339
 7100TIP3    H121245   7.532   1.967   3.268
 7100TIP3    H221246   7.485   1.961   3.412
 7101TIP3   OH221247   7.223   3.476   3.123
 7101TIP3    H121248   7.139   3.441   3.093
 7101TIP3    H221249   7.220   3.569   3.100
 7102TIP3   OH221250   7.619   2.059   3.109
 7102TIP3    H121251   7.661   1.996   3.051
 7102TIP3    H221252   7.691   2.101   3.155
 7103TIP3   OH221253   7.991   3.654   2.715
 7103TIP3    H121254   8.081   3.668   2.687
 7103TIP3    H221255   7.957   3.586   2.656
 7104TIP3   OH221256   7.923   2.310   4.584
 7104TIP3    H121257   7.884   2.241   4.638
 7104TIP3    H221258   8.014   2.313   4.612
 7105TIP3   OH221259   8.162   2.303   4.716
 7105TIP3    H121260   8.240   2.267   4.671
 7105TIP3    H221261   8.142   2.238   4.783
 7106TIP3   OH221262   7.300   3.491   2.763
 7106TIP3    H121263   7.302   3.518   2.855
 7106TIP3    H221264   7.386   3.450   2.749
 7107TIP3   OH221265   0.864   3.824   4.955
 7107TIP3    H121266   0.836   3.914   4.939
 7107TIP3    H221267   0.791   3.771   4.924
 7108TIP3   OH221268   0.863   3.826   5.338
 7108TIP3    H121269   0.893   3.806   5.426
 7108TIP3    H221270   0.819   3.747   5.308
 7109TIP3   OH221271   0.200   3.703   5.665
 7109TIP3    H121272   0.161   3.648   5.733
 7109TIP3    H221273   0.222   3.785   5.709
 7110TIP3   OH221274   1.108   4.131   5.024
 7110TIP3    H121275   1.097   4.061   5.088
 7110TIP3    H221276   1.142   4.205   5.075
 7111TIP3   OH221277   0.148   4.107   5.357
 7111TIP3    H121278   0.126   4.015   5.375
 7111TIP3    H221279   0.216   4.128   5.421
 7112TIP3   OH221280   8.419   3.617   5.336
 7112TIP3    H121281   8.444   3.569   5.415
 7112TIP3    H221282   8.479   3.692   5.334
 7113TIP3   OH221283   0.760   4.586   5.041
 7113TIP3    H121284   0.800   4.521   4.983
 7113TIP3    H221285   0.759   4.544   5.127
 7114TIP3   OH221286   0.667   4.050   5.390
 7114TIP3    H121287   0.701   3.973   5.345
 7114TIP3    H221288   0.745   4.100   5.415
 7115TIP3   OH221289   1.678   3.369   5.383
 7115TIP3    H121290   1.705   3.449   5.428
 7115TIP3    H221291   1.711   3.379   5.294
 7116TIP3   OH221292   1.070   3.544   5.433
 7116TIP3    H121293   1.112   3.460   5.452
 7116TIP3    H221294   1.045   3.538   5.341
 7117TIP3   OH221295   0.422   3.213   5.378
 7117TIP3    H121296   0.399   3.285   5.320
 7117TIP3    H221297   0.375   3.138   5.342
 7118TIP3   OH221298   1.112   3.308   5.005
 7118TIP3    H121299   1.178   3.294   5.073
 7118TIP3    H221300   1.163   3.339   4.930
 7119TIP3   OH221301   0.054   3.416   5.493
 7119TIP3    H121302   0.131   3.405   5.548
 7119TIP3    H221303   0.076   3.371   5.411
 7120TIP3   OH221304   0.492   3.608   5.265
 7120TIP3    H121305   0.582   3.586   5.289
 7120TIP3    H221306   0.451   3.524   5.244
 7121TIP3   OH221307   1.743   3.572   5.572
 7121TIP3    H121308   1.667   3.625   5.546
 7121TIP3    H221309   1.788   3.624   5.637
 7122TIP3   OH221310   0.409   3.195   5.824
 7122TIP3    H121311   0.355   3.236   5.755
 7122TIP3    H221312   0.359   3.209   5.904
 7123TIP3   OH221313   0.742   4.041   4.830
 7123TIP3    H121314   0.721   4.034   4.737
 7123TIP3    H221315   0.705   4.125   4.857
 7124TIP3   OH221316   0.521   3.975   5.623
 7124TIP3    H121317   0.461   4.037   5.663
 7124TIP3    H221318   0.560   4.022   5.550
 7125TIP3   OH221319   1.309   3.312   5.194
 7125TIP3    H121320   1.355   3.241   5.238
 7125TIP3    H221321   1.363   3.389   5.208
 7126TIP3   OH221322   0.291   3.307   5.600
 7126TIP3    H121323   0.343   3.383   5.628
 7126TIP3    H221324   0.340   3.270   5.526
 7127TIP3   OH221325   0.326   4.154   5.733
 7127TIP3    H121326   0.275   4.214   5.678
 7127TIP3    H221327   0.261   4.111   5.789
 7128TIP3   OH221328   1.171   4.373   5.183
 7128TIP3    H121329   1.085   4.363   5.223
 7128TIP3    H221330   1.169   4.458   5.140
 7129TIP3   OH221331   1.467   3.276   5.548
 7129TIP3    H121332   1.385   3.301   5.506
 7129TIP3    H221333   1.535   3.304   5.486
 7130TIP3   OH221334   0.762   2.907   5.539
 7130TIP3    H121335   0.748   2.813   5.554
 7130TIP3    H221336   0.688   2.950   5.582
 7131TIP3   OH221337   0.875   4.417   4.853
 7131TIP3    H121338   0.920   4.333   4.838
 7131TIP3    H221339   0.935   4.483   4.819
 7132TIP3   OH221340   1.014   4.198   4.774
 7132TIP3    H121341   1.006   4.118   4.721
 7132TIP3    H221342   1.054   4.168   4.856
 7133TIP3   OH221343   1.402   4.279   5.535
 7133TIP3    H121344   1.395   4.204   5.475
 7133TIP3    H221345   1.387   4.356   5.479
 7134TIP3   OH221346   0.693   3.678   4.787
 7134TIP3    H121347   0.618   3.732   4.764
 7134TIP3    H221348   0.745   3.673   4.707
 7135TIP3   OH221349   0.657   3.465   4.500
 7135TIP3    H121350   0.720   3.517   4.550
 7135TIP3    H221351   0.710   3.400   4.453
 7136TIP3   OH221352   1.595   3.917   5.371
 7136TIP3    H121353   1.516   3.971   5.378
 7136TIP3    H221354   1.633   3.941   5.286
 7137TIP3   OH221355   1.044   3.759   4.760
 7137TIP3    H121356   0.990   3.783   4.836
 7137TIP3    H221357   1.129   3.735   4.797
 7138TIP3   OH221358   1.278   3.797   5.678
 7138TIP3    H121359   1.281   3.869   5.741
 7138TIP3    H221360   1.213   3.826   5.612
 7139TIP3   OH221361   0.279   3.750   5.174
 7139TIP3    H121362   0.236   3.694   5.109
 7139TIP3    H221363   0.356   3.701   5.201
 7140TIP3   OH221364   0.434   4.188   5.311
 7140TIP3    H121365   0.389   4.121   5.259
 7140TIP3    H221366   0.517   4.148   5.334
 7141TIP3   OH221367   0.476   3.716   5.526
 7141TIP3    H121368   0.469   3.711   5.431
 7141TIP3    H221369   0.476   3.810   5.546
 7142TIP3   OH221370   0.932   4.368   5.310
 7142TIP3    H121371   0.928   4.446   5.365
 7142TIP3    H221372   0.919   4.295   5.370
 7143TIP3   OH221373   0.543   4.287   5.853
 7143TIP3    H121374   0.492   4.347   5.907
 7143TIP3    H221375   0.478   4.231   5.811
 7144TIP3   OH221376   0.880   3.624   4.585
 7144TIP3    H121377   0.940   3.678   4.636
 7144TIP3    H221378   0.905   3.640   4.494
 7145TIP3   OH221379   0.290   3.841   5.965
 7145TIP3    H121380   0.303   3.922   6.015
 7145TIP3    H221381   0.196   3.839   5.947
 7146TIP3   OH221382   0.625   4.302   4.851
 7146TIP3    H121383   0.711   4.342   4.868
 7146TIP3    H221384   0.570   4.374   4.822
 7147TIP3   OH221385   0.328   4.454   5.939
 7147TIP3    H121386   0.309   4.461   5.846
 7147TIP3    H221387   0.251   4.410   5.976
 7148TIP3   OH221388   1.399   2.858   4.635
 7148TIP3    H121389   1.320   2.880   4.684
 7148TIP3    H221390   1.417   2.937   4.583
 7149TIP3   OH221391   0.150   3.589   4.975
 7149TIP3    H121392   0.081   3.619   4.916
 7149TIP3    H221393   0.117   3.506   5.010
 7150TIP3   OH221394   1.204   4.224   4.186
 7150TIP3    H121395   1.209   4.318   4.168
 7150TIP3    H221396   1.293   4.192   4.172
 7151TIP3   OH221397   0.744   4.413   5.712
 7151TIP3    H121398   0.745   4.503   5.743
 7151TIP3    H221399   0.675   4.371   5.764
 7152TIP3   OH221400   0.503   4.536   4.667
 7152TIP3    H121401   0.469   4.530   4.577
 7152TIP3    H221402   0.481   4.624   4.696
 7153TIP3   OH221403   0.713   4.442   4.303
 7153TIP3    H121404   0.769   4.375   4.265
 7153TIP3    H221405   0.748   4.456   4.390
 7154TIP3   OH221406   0.758   4.494   4.576
 7154TIP3    H121407   0.672   4.500   4.618
 7154TIP3    H221408   0.816   4.459   4.644
 7155TIP3   OH221409   1.528   3.753   5.859
 7155TIP3    H121410   1.457   3.774   5.798
 7155TIP3    H221411   1.542   3.659   5.848
 7156TIP3   OH221412   0.525   2.992   5.664
 7156TIP3    H121413   0.441   2.956   5.634
 7156TIP3    H221414   0.500   3.069   5.715
 7157TIP3   OH221415   1.079   3.169   5.870
 7157TIP3    H121416   1.137   3.107   5.914
 7157TIP3    H221417   0.991   3.141   5.894
 7158TIP3   OH221418   1.248   3.512   5.777
 7158TIP3    H121419   1.268   3.554   5.861
 7158TIP3    H221420   1.253   3.583   5.713
 7159TIP3   OH221421   0.958   3.662   4.328
 7159TIP3    H121422   0.924   3.638   4.242
 7159TIP3    H221423   1.043   3.702   4.309
 7160TIP3   OH221424   0.668   3.037   4.635
 7160TIP3    H121425   0.637   3.036   4.725
 7160TIP3    H221426   0.633   2.957   4.596
 7161TIP3   OH221427   0.458   3.501   5.682
 7161TIP3    H121428   0.405   3.522   5.759
 7161TIP3    H221429   0.456   3.580   5.629
 7162TIP3   OH221430   0.336   3.387   5.192
 7162TIP3    H121431   0.245   3.366   5.211
 7162TIP3    H221432   0.352   3.350   5.106
 7163TIP3   OH221433   0.833   3.477   4.922
 7163TIP3    H121434   0.783   3.547   4.881
 7163TIP3    H221435   0.890   3.443   4.853
 7164TIP3   OH221436   1.016   3.759   6.005
 7164TIP3    H121437   0.984   3.685   6.057
 7164TIP3    H221438   1.106   3.772   6.035
 7165TIP3   OH221439   0.988   3.502   5.162
 7165TIP3    H121440   0.928   3.538   5.097
 7165TIP3    H221441   1.026   3.425   5.120
 7166TIP3   OH221442   0.295   3.519   5.902
 7166TIP3    H121443   0.283   3.597   5.957
 7166TIP3    H221444   0.278   3.446   5.960
 7167TIP3   OH221445   0.326   3.011   4.599
 7167TIP3    H121446   0.320   3.010   4.695
 7167TIP3    H221447   0.247   3.055   4.570
 7168TIP3   OH221448   8.393   3.097   5.460
 7168TIP3    H121449   8.470   3.086   5.515
 7168TIP3    H221450   8.396   3.024   5.399
 7169TIP3   OH221451   8.367   3.088   5.019
 7169TIP3    H121452   8.394   3.100   4.928
 7169TIP3    H221453   8.356   3.177   5.053
 7170TIP3   OH221454   0.974   3.753   5.583
 7170TIP3    H121455   1.011   3.679   5.535
 7170TIP3    H221456   0.998   3.738   5.674
 7171TIP3   OH221457   0.677   3.210   5.256
 7171TIP3    H121458   0.595   3.211   5.305
 7171TIP3    H221459   0.746   3.205   5.322
 7172TIP3   OH221460   0.101   3.254   5.260
 7172TIP3    H121461   0.011   3.225   5.276
 7172TIP3    H221462   0.150   3.174   5.246
 7173TIP3   OH221463   0.369   3.265   4.951
 7173TIP3    H121464   0.462   3.279   4.933
 7173TIP3    H221465   0.325   3.288   4.868
 7174TIP3   OH221466   1.155   3.278   5.474
 7174TIP3    H121467   1.099   3.223   5.529
 7174TIP3    H221468   1.140   3.245   5.385
 7175TIP3   OH221469   0.217   3.307   4.723
 7175TIP3    H121470   0.151   3.258   4.674
 7175TIP3    H221471   0.274   3.345   4.656
 7176TIP3   OH221472   0.288   4.076   6.124
 7176TIP3    H121473   0.365   4.107   6.171
 7176TIP3    H221474   0.216   4.128   6.158
 7177TIP3   OH221475   0.753   3.543   5.345
 7177TIP3    H121476   0.826   3.507   5.295
 7177TIP3    H221477   0.764   3.505   5.433
 7178TIP3   OH221478   0.270   3.029   5.239
 7178TIP3    H121479   0.232   2.956   5.288
 7178TIP3    H221480   0.317   2.988   5.166
 7179TIP3   OH221481   0.723   3.458   5.656
 7179TIP3    H121482   0.627   3.460   5.647
 7179TIP3    H221483   0.746   3.545   5.688
 7180TIP3   OH221484   0.452   3.836   4.731
 7180TIP3    H121485   0.391   3.763   4.725
 7180TIP3    H221486   0.445   3.865   4.822
 7181TIP3   OH221487   1.364   4.066   5.362
 7181TIP3    H121488   1.392   4.117   5.286
 7181TIP3    H221489   1.282   4.025   5.336
 7182TIP3   OH221490   0.923   3.139   4.609
 7182TIP3    H121491   0.829   3.122   4.614
 7182TIP3    H221492   0.932   3.232   4.629
 7183TIP3   OH221493   0.864   4.148   5.737
 7183TIP3    H121494   0.897   4.131   5.825
 7183TIP3    H221495   0.826   4.236   5.742
 7184TIP3   OH221496   0.993   3.393   4.706
 7184TIP3    H121497   1.088   3.395   4.721
 7184TIP3    H221498   0.976   3.470   4.653
 7185TIP3   OH221499   0.168   3.842   5.419
 7185TIP3    H121500   0.212   3.796   5.347
 7185TIP3    H221501   0.176   3.782   5.494
 7186TIP3   OH221502   0.607   3.983   4.560
 7186TIP3    H121503   0.557   4.065   4.563
 7186TIP3    H221504   0.560   3.925   4.619
 7187TIP3   OH221505   0.768   3.884   6.047
 7187TIP3    H121506   0.703   3.825   6.010
 7187TIP3    H221507   0.852   3.852   6.015
 7188TIP3   OH221508   1.022   4.414   5.632
 7188TIP3    H121509   0.927   4.408   5.642
 7188TIP3    H221510   1.052   4.461   5.710
 7189TIP3   OH221511   1.424   3.486   4.539
 7189TIP3    H121512   1.366   3.437   4.480
 7189TIP3    H221513   1.428   3.574   4.502
 7190TIP3   OH221514   1.657   4.319   5.624
 7190TIP3    H121515   1.563   4.334   5.619
 7190TIP3    H221516   1.684   4.302   5.534
 7191TIP3   OH221517   1.130   4.298   4.446
 7191TIP3    H121518   1.115   4.225   4.506
 7191TIP3    H221519   1.151   4.257   4.363
 7192TIP3   OH221520   1.128   3.925   5.285
 7192TIP3    H121521   1.035   3.905   5.295
 7192TIP3    H221522   1.164   3.849   5.240
 7193TIP3   OH221523   0.244   4.150   5.023
 7193TIP3    H121524   0.244   4.236   4.982
 7193TIP3    H221525   0.188   4.160   5.100
 7194TIP3   OH221526   8.327   3.465   4.751
 7194TIP3    H121527   8.379   3.543   4.769
 7194TIP3    H221528   8.238   3.487   4.779
 7195TIP3   OH221529   0.390   3.918   4.979
 7195TIP3    H121530   0.349   4.003   4.993
 7195TIP3    H221531   0.362   3.865   5.054
 7196TIP3   OH221532   0.539   4.504   5.508
 7196TIP3    H121533   0.580   4.572   5.454
 7196TIP3    H221534   0.612   4.462   5.553
 7197TIP3   OH221535   0.173   4.410   4.897
 7197TIP3    H121536   0.101   4.426   4.958
 7197TIP3    H221537   0.219   4.494   4.891
 7198TIP3   OH221538   0.915   4.134   5.469
 7198TIP3    H121539   0.904   4.133   5.564
 7198TIP3    H221540   0.996   4.085   5.453
 7199TIP3   OH221541   0.895   4.026   4.356
 7199TIP3    H121542   0.952   4.005   4.430
 7199TIP3    H221543   0.807   3.999   4.385
 7200TIP3   OH221544   1.163   4.690   5.525
 7200TIP3    H121545   1.102   4.617   5.526
 7200TIP3    H221546   1.143   4.736   5.443
 7201TIP3   OH221547   1.228   4.502   4.168
 7201TIP3    H121548   1.269   4.569   4.113
 7201TIP3    H221549   1.149   4.543   4.202
 7202TIP3   OH221550   0.258   3.262   6.051
 7202TIP3    H121551   0.165   3.251   6.068
 7202TIP3    H221552   0.301   3.210   6.119
 7203TIP3   OH221553   1.057   3.964   4.573
 7203TIP3    H121554   1.044   3.896   4.639
 7203TIP3    H221555   1.151   3.961   4.554
 7204TIP3   OH221556   0.257   4.001   4.351
 7204TIP3    H121557   0.274   3.916   4.312
 7204TIP3    H221558   0.245   3.984   4.444
 7205TIP3   OH221559   0.253   4.022   4.629
 7205TIP3    H121560   0.310   3.961   4.675
 7205TIP3    H221561   0.309   4.098   4.611
 7206TIP3   OH221562   8.449   3.701   4.822
 7206TIP3    H121563   8.416   3.752   4.896
 7206TIP3    H221564   8.489   3.765   4.764
 7207TIP3   OH221565   0.968   3.093   4.886
 7207TIP3    H121566   0.956   3.110   4.793
 7207TIP3    H221567   1.008   3.173   4.921
 7208TIP3   OH221568   0.440   4.209   4.570
 7208TIP3    H121569   0.400   4.274   4.627
 7208TIP3    H221570   0.487   4.260   4.504
 7209TIP3   OH221571   0.653   3.277   4.987
 7209TIP3    H121572   0.715   3.346   4.966
 7209TIP3    H221573   0.659   3.266   5.082
 7210TIP3   OH221574   0.798   2.997   5.084
 7210TIP3    H121575   0.783   3.074   5.140
 7210TIP3    H221576   0.859   3.028   5.017
 7211TIP3   OH221577   0.159   4.298   4.648
 7211TIP3    H121578   0.161   4.364   4.579
 7211TIP3    H221579   0.169   4.347   4.729
 7212TIP3   OH221580   0.315   3.002   4.876
 7212TIP3    H121581   0.309   3.089   4.914
 7212TIP3    H221582   0.408   2.979   4.882
 7213TIP3   OH221583   1.542   3.493   5.772
 7213TIP3    H121584   1.458   3.454   5.747
 7213TIP3    H221585   1.598   3.479   5.695
 7214TIP3   OH221586   1.216   3.684   5.165
 7214TIP3    H121587   1.142   3.623   5.173
 7214TIP3    H221588   1.288   3.640   5.209
 7215TIP3   OH221589   8.463   3.960   4.637
 7215TIP3    H121590   8.526   3.896   4.603
 7215TIP3    H221591   8.379   3.933   4.601
 7216TIP3   OH221592   8.361   3.190   4.768
 7216TIP3    H121593   8.360   3.286   4.766
 7216TIP3    H221594   8.322   3.164   4.684
 7217TIP3   OH221595   1.187   4.644   5.104
 7217TIP3    H121596   1.144   4.689   5.031
 7217TIP3    H221597   1.280   4.662   5.091
 7218TIP3   OH221598   0.266   2.903   5.633
 7218TIP3    H121599   0.235   2.870   5.548
 7218TIP3    H221600   0.256   2.830   5.693
 7219TIP3   OH221601   0.426   4.633   6.135
 7219TIP3    H121602   0.521   4.635   6.145
 7219TIP3    H221603   0.410   4.567   6.067
 7220TIP3   OH221604   0.421   4.207   4.259
 7220TIP3    H121605   0.370   4.134   4.295
 7220TIP3    H221606   0.497   4.164   4.218
 7221TIP3   OH221607   1.078   4.541   5.868
 7221TIP3    H121608   1.069   4.473   5.935
 7221TIP3    H221609   1.157   4.589   5.893
 7222TIP3   OH221610   0.854   4.245   4.171
 7222TIP3    H121611   0.901   4.188   4.232
 7222TIP3    H221612   0.908   4.246   4.092
 7223TIP3   OH221613   0.078   3.742   4.503
 7223TIP3    H121614   0.128   3.688   4.565
 7223TIP3    H221615   0.128   3.737   4.422
 7224TIP3   OH221616   0.693   4.163   6.062
 7224TIP3    H121617   0.654   4.181   5.976
 7224TIP3    H221618   0.726   4.073   6.054
 7225TIP3   OH221619   0.572   3.921   4.294
 7225TIP3    H121620   0.582   3.936   4.388
 7225TIP3    H221621   0.579   3.826   4.284
 7226TIP3   OH221622   1.185   4.176   5.667
 7226TIP3    H121623   1.264   4.212   5.626
 7226TIP3    H221624   1.118   4.243   5.653
 7227TIP3   OH221625   0.212   3.793   6.294
 7227TIP3    H121626   0.277   3.767   6.229
 7227TIP3    H221627   0.261   3.845   6.358
 7228TIP3   OH221628   0.268   3.630   4.703
 7228TIP3    H121629   0.253   3.588   4.788
 7228TIP3    H221630   0.308   3.561   4.649
 7229TIP3   OH221631   0.551   3.711   5.937
 7229TIP3    H121632   0.466   3.754   5.935
 7229TIP3    H221633   0.591   3.734   5.853
 7230TIP3   OH221634   0.380   3.434   4.543
 7230TIP3    H121635   0.353   3.437   4.451
 7230TIP3    H221636   0.475   3.432   4.539
 7231TIP3   OH221637   1.061   4.098   6.067
 7231TIP3    H121638   1.140   4.071   6.020
 7231TIP3    H221639   1.051   4.034   6.138
 7232TIP3   OH221640   1.188   3.755   4.211
 7232TIP3    H121641   1.176   3.708   4.129
 7232TIP3    H221642   1.158   3.844   4.193
 7233TIP3   OH221643   0.669   3.493   6.056
 7233TIP3    H121644   0.662   3.411   6.006
 7233TIP3    H221645   0.623   3.558   6.003
 7234TIP3   OH221646   0.668   3.270   5.868
 7234TIP3    H121647   0.692   3.322   5.791
 7234TIP3    H221648   0.577   3.246   5.853
 7235TIP3   OH221649   0.708   3.793   5.722
 7235TIP3    H121650   0.788   3.815   5.674
 7235TIP3    H221651   0.642   3.853   5.687
 7236TIP3   OH221652   1.278   3.764   6.116
 7236TIP3    H121653   1.332   3.696   6.155
 7236TIP3    H221654   1.340   3.827   6.080
 7237TIP3   OH221655   1.317   4.023   5.847
 7237TIP3    H121656   1.258   4.078   5.795
 7237TIP3    H221657   1.405   4.045   5.814
 7238TIP3   OH221658   0.546   3.604   6.290
 7238TIP3    H121659   0.488   3.528   6.301
 7238TIP3    H221660   0.581   3.595   6.201
 7239TIP3   OH221661   0.811   3.037   5.919
 7239TIP3    H121662   0.757   3.115   5.907
 7239TIP3    H221663   0.749   2.964   5.917
 7240TIP3   OH221664   0.924   3.543   6.152
 7240TIP3    H121665   0.917   3.527   6.246
 7240TIP3    H221666   0.838   3.521   6.117
 7241TIP3   OH221667   1.136   3.431   6.023
 7241TIP3    H121668   1.066   3.471   6.075
 7241TIP3    H221669   1.213   3.435   6.080
 7242TIP3   OH221670   1.374   3.422   6.147
 7242TIP3    H121671   1.400   3.332   6.167
 7242TIP3    H221672   1.378   3.467   6.232
 7243TIP3   OH221673   0.412   3.373   6.344
 7243TIP3    H121674   0.400   3.286   6.305
 7243TIP3    H221675   0.436   3.355   6.435
 7244TIP3   OH221676   0.895   3.044   6.186
 7244TIP3    H121677   0.961   2.976   6.188
 7244TIP3    H221678   0.857   3.038   6.098
 7245TIP3   OH221679   0.961   3.259   6.348
 7245TIP3    H121680   0.941   3.188   6.287
 7245TIP3    H221681   0.884   3.316   6.344
 7246TIP3   OH221682   0.188   4.469   4.446
 7246TIP3    H121683   0.282   4.474   4.429
 7246TIP3    H221684   0.149   4.532   4.386
 7247TIP3   OH221685   1.441   4.747   5.071
 7247TIP3    H121686   1.500   4.793   5.130
 7247TIP3    H221687   1.485   4.749   4.986
 7248TIP3   OH221688   1.512   4.432   5.927
 7248TIP3    H121689   1.443   4.443   5.992
 7248TIP3    H221690   1.559   4.516   5.928
 7249TIP3   OH221691   1.332   3.943   4.543
 7249TIP3    H121692   1.395   4.007   4.508
 7249TIP3    H221693   1.376   3.906   4.619
 7250TIP3   OH221694   1.460   3.813   4.748
 7250TIP3    H121695   1.398   3.773   4.808
 7250TIP3    H221696   1.531   3.845   4.804
 7251TIP3   OH221697   1.515   4.199   5.173
 7251TIP3    H121698   1.569   4.133   5.131
 7251TIP3    H221699   1.512   4.271   5.111
 7252TIP3   OH221700   1.341   4.491   5.378
 7252TIP3    H121701   1.277   4.550   5.417
 7252TIP3    H221702   1.296   4.452   5.303
 7253TIP3   OH221703   1.392   3.719   4.394
 7253TIP3    H121704   1.325   3.719   4.325
 7253TIP3    H221705   1.369   3.794   4.449
 7254TIP3   OH221706   1.259   3.391   4.348
 7254TIP3    H121707   1.228   3.426   4.264
 7254TIP3    H221708   1.241   3.297   4.342
 7255TIP3   OH221709   1.269   3.669   4.893
 7255TIP3    H121710   1.282   3.575   4.883
 7255TIP3    H221711   1.257   3.681   4.988
 7256TIP3   OH221712   1.563   4.087   5.748
 7256TIP3    H121713   1.634   4.023   5.740
 7256TIP3    H221714   1.589   4.159   5.691
 7257TIP3   OH221715   1.744   3.889   5.770
 7257TIP3    H121716   1.672   3.841   5.810
 7257TIP3    H221717   1.819   3.830   5.778
 7258TIP3   OH221718   1.211   3.125   4.333
 7258TIP3    H121719   1.286   3.095   4.382
 7258TIP3    H221720   1.142   3.061   4.352
 7259TIP3   OH221721   1.272   3.383   4.782
 7259TIP3    H121722   1.310   3.296   4.798
 7259TIP3    H221723   1.326   3.420   4.712
 7260TIP3   OH221724   1.432   3.558   5.284
 7260TIP3    H121725   1.513   3.579   5.237
 7260TIP3    H221726   1.445   3.593   5.372
 7261TIP3   OH221727   1.500   3.704   5.513
 7261TIP3    H121728   1.425   3.742   5.559
 7261TIP3    H221729   1.537   3.778   5.464
 7262TIP3   OH221730   0.132   3.345   6.429
 7262TIP3    H121731   0.192   3.381   6.364
 7262TIP3    H221732   0.046   3.377   6.402
 7263TIP3   OH221733   1.948   3.291   6.065
 7263TIP3    H121734   2.009   3.227   6.029
 7263TIP3    H221735   1.922   3.345   5.990
 7264TIP3   OH221736   1.374   3.134   4.829
 7264TIP3    H121737   1.428   3.117   4.906
 7264TIP3    H221738   1.316   3.058   4.823
 7265TIP3   OH221739   0.096   3.116   5.651
 7265TIP3    H121740   0.155   3.041   5.655
 7265TIP3    H221741   0.154   3.190   5.633
 7266TIP3   OH221742   1.814   3.429   5.869
 7266TIP3    H121743   1.734   3.469   5.903
 7266TIP3    H221744   1.783   3.356   5.815
 7267TIP3   OH221745   1.455   3.065   4.457
 7267TIP3    H121746   1.495   2.996   4.404
 7267TIP3    H221747   1.520   3.136   4.458
 7268TIP3   OH221748   8.386   2.924   5.240
 7268TIP3    H121749   8.298   2.887   5.245
 7268TIP3    H221750   8.385   2.977   5.160
 7269TIP3   OH221751   1.024   4.601   4.724
 7269TIP3    H121752   1.071   4.586   4.641
 7269TIP3    H221753   1.077   4.667   4.770
 7270TIP3   OH221754   0.081   2.987   6.046
 7270TIP3    H121755   0.039   2.982   6.132
 7270TIP3    H221756   0.018   3.033   5.991
 7271TIP3   OH221757   0.304   4.473   5.654
 7271TIP3    H121758   0.281   4.549   5.600
 7271TIP3    H221759   0.393   4.450   5.626
 7272TIP3   OH221760   0.746   4.677   5.793
 7272TIP3    H121761   0.784   4.676   5.880
 7272TIP3    H221762   0.808   4.729   5.741
 7273TIP3   OH221763   0.925   4.833   5.655
 7273TIP3    H121764   0.993   4.782   5.611
 7273TIP3    H221765   0.972   4.887   5.718
 7274TIP3   OH221766   1.719   3.188   5.754
 7274TIP3    H121767   1.631   3.175   5.719
 7274TIP3    H221768   1.761   3.102   5.746
 7275TIP3   OH221769   0.214   4.702   5.513
 7275TIP3    H121770   0.193   4.790   5.547
 7275TIP3    H221771   0.161   4.694   5.434
 7276TIP3   OH221772   0.641   4.699   5.340
 7276TIP3    H121773   0.593   4.718   5.260
 7276TIP3    H221774   0.655   4.785   5.381
 7277TIP3   OH221775   0.910   4.641   5.388
 7277TIP3    H121776   0.816   4.653   5.373
 7277TIP3    H221777   0.951   4.714   5.340
 7278TIP3   OH221778   1.134   4.833   5.292
 7278TIP3    H121779   1.113   4.915   5.247
 7278TIP3    H221780   1.147   4.769   5.221
 7279TIP3   OH221781   0.094   4.355   5.258
 7279TIP3    H121782   0.096   4.269   5.299
 7279TIP3    H221783   0.182   4.391   5.274
 7280TIP3   OH221784   0.365   4.453   5.294
 7280TIP3    H121785   0.389   4.362   5.277
 7280TIP3    H221786   0.414   4.476   5.373
 7281TIP3   OH221787   0.923   3.103   5.383
 7281TIP3    H121788   0.879   3.030   5.427
 7281TIP3    H221789   0.994   3.062   5.333
 7282TIP3   OH221790   1.443   3.002   5.282
 7282TIP3    H121791   1.482   3.039   5.203
 7282TIP3    H221792   1.349   3.005   5.266
 7283TIP3   OH221793   1.544   3.088   5.042
 7283TIP3    H121794   1.611   3.029   5.006
 7283TIP3    H221795   1.579   3.176   5.027
 7284TIP3   OH221796   0.171   2.815   5.388
 7284TIP3    H121797   0.078   2.792   5.386
 7284TIP3    H221798   0.216   2.730   5.383
 7285TIP3   OH221799   8.489   2.680   5.044
 7285TIP3    H121800   8.506   2.736   4.969
 7285TIP3    H221801   8.428   2.730   5.099
 7286TIP3   OH221802   0.621   2.850   5.269
 7286TIP3    H121803   0.676   2.895   5.206
 7286TIP3    H221804   0.646   2.887   5.354
 7287TIP3   OH221805   1.160   2.996   5.254
 7287TIP3    H121806   1.163   2.958   5.166
 7287TIP3    H221807   1.150   2.920   5.312
 7288TIP3   OH221808   1.193   2.919   4.818
 7288TIP3    H121809   1.109   2.963   4.829
 7288TIP3    H221810   1.182   2.834   4.861
 7289TIP3   OH221811   0.084   2.842   4.808
 7289TIP3    H121812   0.125   2.778   4.750
 7289TIP3    H221813   0.157   2.895   4.841
 7290TIP3   OH221814   0.591   3.025   4.900
 7290TIP3    H121815   0.648   2.973   4.957
 7290TIP3    H221816   0.611   3.116   4.922
 7291TIP3   OH221817   0.458   4.441   4.398
 7291TIP3    H121818   0.544   4.467   4.365
 7291TIP3    H221819   0.430   4.370   4.340
 7292TIP3   OH221820   1.166   4.564   4.491
 7292TIP3    H121821   1.159   4.469   4.481
 7292TIP3    H221822   1.125   4.599   4.412
 7293TIP3   OH221823   0.380   3.101   6.278
 7293TIP3    H121824   0.340   3.031   6.329
 7293TIP3    H221825   0.472   3.100   6.306
 7294TIP3   OH221826   0.630   3.096   6.403
 7294TIP3    H121827   0.714   3.074   6.361
 7294TIP3    H221828   0.616   3.026   6.466
 7295TIP3   OH221829   1.459   3.159   6.185
 7295TIP3    H121830   1.473   3.129   6.275
 7295TIP3    H221831   1.546   3.155   6.145
 7296TIP3   OH221832   1.969   3.978   5.187
 7296TIP3    H121833   1.986   3.913   5.256
 7296TIP3    H221834   2.046   4.034   5.188
 7297TIP3   OH221835   1.930   4.374   4.913
 7297TIP3    H121836   1.928   4.278   4.909
 7297TIP3    H221837   2.023   4.396   4.908
 7298TIP3   OH221838   1.633   3.588   4.691
 7298TIP3    H121839   1.594   3.673   4.708
 7298TIP3    H221840   1.564   3.538   4.647
 7299TIP3   OH221841   1.703   3.875   4.874
 7299TIP3    H121842   1.745   3.797   4.907
 7299TIP3    H221843   1.769   3.918   4.820
 7300TIP3   OH221844   2.557   4.846   4.527
 7300TIP3    H121845   2.600   4.776   4.479
 7300TIP3    H221846   2.544   4.810   4.615
 7301TIP3   OH221847   3.484   3.622   4.871
 7301TIP3    H121848   3.507   3.703   4.915
 7301TIP3    H221849   3.529   3.626   4.787
 7302TIP3   OH221850   2.921   3.821   4.910
 7302TIP3    H121851   2.920   3.726   4.897
 7302TIP3    H221852   2.868   3.855   4.837
 7303TIP3   OH221853   2.203   3.498   4.854
 7303TIP3    H121854   2.179   3.581   4.812
 7303TIP3    H221855   2.155   3.432   4.805
 7304TIP3   OH221856   2.911   3.529   4.486
 7304TIP3    H121857   2.974   3.517   4.557
 7304TIP3    H221858   2.946   3.601   4.434
 7305TIP3   OH221859   1.838   3.667   4.983
 7305TIP3    H121860   1.926   3.667   5.023
 7305TIP3    H221861   1.846   3.606   4.910
 7306TIP3   OH221862   3.546   3.832   5.049
 7306TIP3    H121863   3.464   3.879   5.032
 7306TIP3    H221864   3.583   3.876   5.126
 7307TIP3   OH221865   2.207   3.458   5.301
 7307TIP3    H121866   2.154   3.499   5.233
 7307TIP3    H221867   2.156   3.471   5.381
 7308TIP3   OH221868   2.582   4.331   4.295
 7308TIP3    H121869   2.525   4.256   4.277
 7308TIP3    H221870   2.523   4.401   4.320
 7309TIP3   OH221871   2.317   4.234   5.146
 7309TIP3    H121872   2.245   4.295   5.164
 7309TIP3    H221873   2.353   4.263   5.063
 7310TIP3   OH221874   3.100   3.513   4.682
 7310TIP3    H121875   3.059   3.505   4.769
 7310TIP3    H221876   3.164   3.583   4.692
 7311TIP3   OH221877   2.085   3.582   5.086
 7311TIP3    H121878   2.120   3.671   5.084
 7311TIP3    H221879   2.125   3.539   5.010
 7312TIP3   OH221880   2.128   4.430   5.200
 7312TIP3    H121881   2.114   4.516   5.162
 7312TIP3    H221882   2.053   4.416   5.257
 7313TIP3   OH221883   1.525   4.119   4.434
 7313TIP3    H121884   1.494   4.143   4.347
 7313TIP3    H221885   1.564   4.199   4.469
 7314TIP3   OH221886   2.975   4.635   4.694
 7314TIP3    H121887   2.895   4.600   4.732
 7314TIP3    H221888   2.948   4.717   4.651
 7315TIP3   OH221889   3.270   3.519   5.039
 7315TIP3    H121890   3.184   3.549   5.012
 7315TIP3    H221891   3.330   3.554   4.972
 7316TIP3   OH221892   2.564   3.166   5.033
 7316TIP3    H121893   2.542   3.072   5.035
 7316TIP3    H221894   2.488   3.209   5.073
 7317TIP3   OH221895   2.679   4.675   4.342
 7317TIP3    H121896   2.726   4.594   4.320
 7317TIP3    H221897   2.733   4.745   4.307
 7318TIP3   OH221898   2.815   4.456   4.249
 7318TIP3    H121899   2.732   4.408   4.244
 7318TIP3    H221900   2.860   4.417   4.324
 7319TIP3   OH221901   3.203   4.543   5.017
 7319TIP3    H121902   3.179   4.467   4.963
 7319TIP3    H221903   3.180   4.619   4.964
 7320TIP3   OH221904   2.499   3.938   4.261
 7320TIP3    H121905   2.416   3.985   4.263
 7320TIP3    H221906   2.525   3.937   4.169
 7321TIP3   OH221907   2.450   3.721   3.984
 7321TIP3    H121908   2.508   3.761   4.050
 7321TIP3    H221909   2.507   3.661   3.936
 7322TIP3   OH221910   3.382   4.208   4.915
 7322TIP3    H121911   3.299   4.257   4.916
 7322TIP3    H221912   3.403   4.199   4.822
 7323TIP3   OH221913   3.072   4.052   5.160
 7323TIP3    H121914   3.060   4.134   5.210
 7323TIP3    H221915   3.004   4.055   5.093
 7324TIP3   OH221916   2.193   4.434   4.813
 7324TIP3    H121917   2.175   4.377   4.738
 7324TIP3    H221918   2.285   4.418   4.834
 7325TIP3   OH221919   2.341   4.550   5.347
 7325TIP3    H121920   2.276   4.606   5.390
 7325TIP3    H221921   2.289   4.487   5.296
 7326TIP3   OH221922   2.697   3.872   4.063
 7326TIP3    H121923   2.736   3.950   4.103
 7326TIP3    H221924   2.710   3.885   3.969
 7327TIP3   OH221925   2.099   4.104   5.451
 7327TIP3    H121926   2.104   4.191   5.490
 7327TIP3    H221927   2.007   4.079   5.461
 7328TIP3   OH221928   2.427   4.552   4.349
 7328TIP3    H121929   2.504   4.608   4.362
 7328TIP3    H221930   2.363   4.609   4.307
 7329TIP3   OH221931   2.129   4.713   5.428
 7329TIP3    H121932   2.106   4.714   5.335
 7329TIP3    H221933   2.046   4.696   5.472
 7330TIP3   OH221934   3.194   3.116   4.122
 7330TIP3    H121935   3.115   3.138   4.172
 7330TIP3    H221936   3.214   3.195   4.072
 7331TIP3   OH221937   1.944   3.833   4.413
 7331TIP3    H121938   1.861   3.876   4.391
 7331TIP3    H221939   1.925   3.784   4.493
 7332TIP3   OH221940   3.000   4.481   3.671
 7332TIP3    H121941   3.006   4.575   3.656
 7332TIP3    H221942   3.090   4.449   3.659
 7333TIP3   OH221943   1.721   4.244   5.372
 7333TIP3    H121944   1.656   4.219   5.306
 7333TIP3    H221945   1.756   4.161   5.403
 7334TIP3   OH221946   1.579   4.433   5.008
 7334TIP3    H121947   1.671   4.414   4.989
 7334TIP3    H221948   1.581   4.505   5.071
 7335TIP3   OH221949   3.432   4.886   5.067
 7335TIP3    H121950   3.435   4.791   5.079
 7335TIP3    H221951   3.352   4.913   5.111
 7336TIP3   OH221952   2.531   4.679   5.196
 7336TIP3    H121953   2.530   4.767   5.235
 7336TIP3    H221954   2.478   4.626   5.255
 7337TIP3   OH221955   2.305   4.799   4.151
 7337TIP3    H121956   2.259   4.780   4.069
 7337TIP3    H221957   2.272   4.885   4.177
 7338TIP3   OH221958   1.742   4.645   4.542
 7338TIP3    H121959   1.792   4.638   4.623
 7338TIP3    H221960   1.697   4.561   4.534
 7339TIP3   OH221961   2.507   4.700   3.790
 7339TIP3    H121962   2.563   4.632   3.753
 7339TIP3    H221963   2.539   4.711   3.879
 7340TIP3   OH221964   2.556   4.750   4.061
 7340TIP3    H121965   2.469   4.759   4.099
 7340TIP3    H221966   2.609   4.711   4.130
 7341TIP3   OH221967   3.324   4.011   5.345
 7341TIP3    H121968   3.247   4.027   5.291
 7341TIP3    H221969   3.342   3.918   5.335
 7342TIP3   OH221970   1.917   4.434   5.378
 7342TIP3    H121971   1.977   4.403   5.446
 7342TIP3    H221972   1.849   4.367   5.374
 7343TIP3   OH221973   2.319   3.247   5.153
 7343TIP3    H121974   2.235   3.215   5.120
 7343TIP3    H221975   2.298   3.328   5.199
 7344TIP3   OH221976   2.857   3.355   5.345
 7344TIP3    H121977   2.921   3.340   5.415
 7344TIP3    H221978   2.772   3.344   5.388
 7345TIP3   OH221979   3.091   3.787   5.260
 7345TIP3    H121980   3.045   3.786   5.344
 7345TIP3    H221981   3.069   3.872   5.221
 7346TIP3   OH221982   2.757   3.922   3.809
 7346TIP3    H121983   2.720   3.897   3.725
 7346TIP3    H221984   2.842   3.962   3.788
 7347TIP3   OH221985   2.463   3.292   4.122
 7347TIP3    H121986   2.435   3.294   4.213
 7347TIP3    H221987   2.427   3.211   4.086
 7348TIP3   OH221988   2.613   3.720   4.393
 7348TIP3    H121989   2.574   3.803   4.365
 7348TIP3    H221990   2.675   3.698   4.324
 7349TIP3   OH221991   2.814   4.015   5.501
 7349TIP3    H121992   2.785   3.942   5.556
 7349TIP3    H221993   2.907   4.026   5.523
 7350TIP3   OH221994   2.049   3.800   5.392
 7350TIP3    H121995   2.132   3.845   5.408
 7350TIP3    H221996   2.060   3.714   5.434
 7351TIP3   OH221997   2.119   3.269   4.087
 7351TIP3    H121998   2.116   3.267   4.183
 7351TIP3    H221999   2.046   3.326   4.062
 7352TIP3   OH222000   1.674   3.308   4.964
 7352TIP3    H122001   1.741   3.351   5.017
 7352TIP3    H222002   1.712   3.303   4.876
 7353TIP3   OH222003   1.630   3.294   4.474
 7353TIP3    H122004   1.679   3.323   4.398
 7353TIP3    H222005   1.573   3.367   4.497
 7354TIP3   OH222006   2.467   3.448   4.744
 7354TIP3    H122007   2.382   3.466   4.785
 7354TIP3    H222008   2.531   3.483   4.806
 7355TIP3   OH222009   1.877   3.493   4.785
 7355TIP3    H122010   1.804   3.520   4.730
 7355TIP3    H222011   1.933   3.442   4.726
 7356TIP3   OH222012   2.167   3.497   4.431
 7356TIP3    H122013   2.252   3.540   4.436
 7356TIP3    H222014   2.118   3.547   4.367
 7357TIP3   OH222015   2.960   3.532   4.936
 7357TIP3    H122016   2.938   3.560   5.025
 7357TIP3    H222017   2.887   3.476   4.909
 7358TIP3   OH222018   2.003   3.557   4.207
 7358TIP3    H122019   1.938   3.513   4.152
 7358TIP3    H222020   2.063   3.598   4.145
 7359TIP3   OH222021   3.133   5.238   5.165
 7359TIP3    H122022   3.128   5.256   5.071
 7359TIP3    H222023   3.213   5.282   5.194
 7360TIP3   OH222024   2.082   4.350   5.588
 7360TIP3    H122025   2.166   4.376   5.627
 7360TIP3    H222026   2.023   4.343   5.663
 7361TIP3   OH222027   2.076   3.293   4.717
 7361TIP3    H122028   2.042   3.216   4.763
 7361TIP3    H222029   2.114   3.258   4.636
 7362TIP3   OH222030   2.260   4.084   4.223
 7362TIP3    H122031   2.193   4.018   4.206
 7362TIP3    H222032   2.239   4.116   4.311
 7363TIP3   OH222033   3.150   4.332   4.849
 7363TIP3    H122034   3.174   4.358   4.760
 7363TIP3    H222035   3.065   4.288   4.839
 7364TIP3   OH222036   2.715   3.397   4.083
 7364TIP3    H122037   2.622   3.380   4.097
 7364TIP3    H222038   2.728   3.487   4.114
 7365TIP3   OH222039   2.616   4.389   5.281
 7365TIP3    H122040   2.693   4.412   5.334
 7365TIP3    H222041   2.623   4.443   5.203
 7366TIP3   OH222042   2.791   3.641   4.185
 7366TIP3    H122043   2.885   3.644   4.205
 7366TIP3    H222044   2.775   3.721   4.135
 7367TIP3   OH222045   1.990   4.091   4.892
 7367TIP3    H122046   2.072   4.067   4.848
 7367TIP3    H222047   1.986   4.034   4.968
 7368TIP3   OH222048   2.400   4.231   4.039
 7368TIP3    H122049   2.361   4.318   4.048
 7368TIP3    H222050   2.353   4.177   4.102
 7369TIP3   OH222051   1.832   4.039   5.519
 7369TIP3    H122052   1.861   4.026   5.609
 7369TIP3    H222053   1.779   3.961   5.500
 7370TIP3   OH222054   2.571   4.141   5.538
 7370TIP3    H122055   2.523   4.124   5.457
 7370TIP3    H222056   2.660   4.109   5.521
 7371TIP3   OH222057   2.838   4.704   5.094
 7371TIP3    H122058   2.759   4.657   5.067
 7371TIP3    H222059   2.824   4.723   5.186
 7372TIP3   OH222060   3.222   3.748   4.023
 7372TIP3    H122061   3.164   3.695   3.969
 7372TIP3    H222062   3.223   3.834   3.981
 7373TIP3   OH222063   3.452   4.599   5.104
 7373TIP3    H122064   3.356   4.592   5.100
 7373TIP3    H222065   3.482   4.569   5.018
 7374TIP3   OH222066   2.930   4.557   3.936
 7374TIP3    H122067   2.902   4.488   3.996
 7374TIP3    H222068   2.945   4.512   3.853
 7375TIP3   OH222069   2.053   4.415   4.531
 7375TIP3    H122070   2.056   4.493   4.475
 7375TIP3    H222071   1.961   4.389   4.531
 7376TIP3   OH222072   1.617   3.717   4.230
 7376TIP3    H122073   1.666   3.796   4.250
 7376TIP3    H222074   1.544   3.718   4.292
 7377TIP3   OH222075   2.194   4.172   4.467
 7377TIP3    H122076   2.152   4.250   4.505
 7377TIP3    H222077   2.230   4.125   4.542
 7378TIP3   OH222078   2.332   4.748   4.991
 7378TIP3    H122079   2.375   4.818   4.943
 7378TIP3    H222080   2.404   4.701   5.035
 7379TIP3   OH222081   1.970   4.658   4.375
 7379TIP3    H122082   1.887   4.663   4.423
 7379TIP3    H222083   2.005   4.747   4.378
 7380TIP3   OH222084   2.686   4.288   3.836
 7380TIP3    H122085   2.744   4.258   3.906
 7380TIP3    H222086   2.599   4.259   3.863
 7381TIP3   OH222087   2.966   4.927   5.007
 7381TIP3    H122088   2.903   4.857   5.021
 7381TIP3    H222089   2.930   4.976   4.933
 7382TIP3   OH222090   3.026   4.760   3.654
 7382TIP3    H122091   3.069   4.831   3.607
 7382TIP3    H222092   2.946   4.798   3.689
 7383TIP3   OH222093   2.051   3.525   5.522
 7383TIP3    H122094   1.956   3.530   5.533
 7383TIP3    H222095   2.081   3.471   5.596
 7384TIP3   OH222096   2.856   4.203   4.036
 7384TIP3    H122097   2.838   4.197   4.130
 7384TIP3    H222098   2.952   4.203   4.030
 7385TIP3   OH222099   1.764   4.621   5.153
 7385TIP3    H122100   1.808   4.541   5.182
 7385TIP3    H222101   1.808   4.691   5.200
 7386TIP3   OH222102   2.050   4.262   3.839
 7386TIP3    H122103   2.066   4.172   3.811
 7386TIP3    H222104   2.031   4.255   3.933
 7387TIP3   OH222105   1.995   4.270   4.111
 7387TIP3    H122106   2.067   4.236   4.164
 7387TIP3    H222107   2.002   4.365   4.120
 7388TIP3   OH222108   1.717   3.961   4.311
 7388TIP3    H122109   1.656   4.007   4.368
 7388TIP3    H222110   1.744   4.027   4.247
 7389TIP3   OH222111   2.891   3.591   5.194
 7389TIP3    H122112   2.961   3.642   5.234
 7389TIP3    H222113   2.877   3.518   5.254
 7390TIP3   OH222114   2.767   3.335   4.367
 7390TIP3    H122115   2.749   3.364   4.278
 7390TIP3    H222116   2.811   3.409   4.409
 7391TIP3   OH222117   2.265   4.468   4.057
 7391TIP3    H122118   2.179   4.488   4.095
 7391TIP3    H222119   2.281   4.540   3.995
 7392TIP3   OH222120   2.449   3.523   4.475
 7392TIP3    H122121   2.508   3.594   4.448
 7392TIP3    H222122   2.457   3.520   4.570
 7393TIP3   OH222123   2.700   3.827   5.326
 7393TIP3    H122124   2.744   3.901   5.369
 7393TIP3    H222125   2.770   3.779   5.283
 7394TIP3   OH222126   2.594   3.252   4.572
 7394TIP3    H122127   2.568   3.328   4.623
 7394TIP3    H222128   2.656   3.286   4.507
 7395TIP3   OH222129   2.010   4.544   4.126
 7395TIP3    H122130   1.981   4.611   4.064
 7395TIP3    H222131   1.995   4.583   4.212
 7396TIP3   OH222132   2.113   3.245   4.362
 7396TIP3    H122133   2.110   3.337   4.390
 7396TIP3    H222134   2.206   3.222   4.368
 7397TIP3   OH222135   3.358   3.744   5.266
 7397TIP3    H122136   3.262   3.741   5.269
 7397TIP3    H222137   3.379   3.730   5.174
 7398TIP3   OH222138   1.731   4.169   4.112
 7398TIP3    H122139   1.802   4.232   4.126
 7398TIP3    H222140   1.768   4.106   4.050
 7399TIP3   OH222141   1.662   3.445   4.253
 7399TIP3    H122142   1.679   3.539   4.251
 7399TIP3    H222143   1.586   3.432   4.197
 7400TIP3   OH222144   2.979   4.906   4.593
 7400TIP3    H122145   2.937   4.951   4.520
 7400TIP3    H222146   3.073   4.919   4.577
 7401TIP3   OH222147   2.055   3.167   5.122
 7401TIP3    H122148   2.027   3.138   5.035
 7401TIP3    H222149   2.044   3.090   5.178
 7402TIP3   OH222150   1.594   4.391   4.499
 7402TIP3    H122151   1.527   4.416   4.562
 7402TIP3    H222152   1.566   4.430   4.416
 7403TIP3   OH222153   2.228   4.886   5.620
 7403TIP3    H122154   2.322   4.874   5.630
 7403TIP3    H222155   2.204   4.828   5.547
 7404TIP3   OH222156   2.215   4.463   3.746
 7404TIP3    H122157   2.159   4.395   3.785
 7404TIP3    H222158   2.291   4.415   3.715
 7405TIP3   OH222159   2.858   4.807   5.368
 7405TIP3    H122160   2.856   4.732   5.428
 7405TIP3    H222161   2.942   4.849   5.385
 7406TIP3   OH222162   2.652   4.506   3.661
 7406TIP3    H122163   2.688   4.441   3.721
 7406TIP3    H222164   2.709   4.501   3.584
 7407TIP3   OH222165   1.883   4.331   5.779
 7407TIP3    H122166   1.904   4.238   5.788
 7407TIP3    H222167   1.799   4.333   5.732
 7408TIP3   OH222168   1.867   3.978   3.975
 7408TIP3    H122169   1.920   3.950   4.049
 7408TIP3    H222170   1.928   3.987   3.902
 7409TIP3   OH222171   2.485   4.414   5.549
 7409TIP3    H122172   2.469   4.440   5.458
 7409TIP3    H222173   2.524   4.327   5.542
 7410TIP3   OH222174   2.373   4.179   3.775
 7410TIP3    H122175   2.375   4.195   3.869
 7410TIP3    H222176   2.376   4.084   3.767
 7411TIP3   OH222177   2.973   4.412   5.156
 7411TIP3    H122178   3.026   4.485   5.123
 7411TIP3    H222179   2.901   4.404   5.093
 7412TIP3   OH222180   2.004   4.070   5.759
 7412TIP3    H122181   2.081   4.029   5.720
 7412TIP3    H222182   2.033   4.099   5.846
 7413TIP3   OH222183   2.064   3.895   4.181
 7413TIP3    H122184   2.031   3.871   4.268
 7413TIP3    H222185   2.100   3.813   4.146
 7414TIP3   OH222186   2.303   3.926   5.414
 7414TIP3    H122187   2.242   3.998   5.427
 7414TIP3    H222188   2.376   3.965   5.366
 7415TIP3   OH222189   2.172   3.680   4.029
 7415TIP3    H122190   2.145   3.691   3.938
 7415TIP3    H222191   2.267   3.684   4.027
 7416TIP3   OH222192   2.860   4.354   5.556
 7416TIP3    H122193   2.927   4.320   5.497
 7416TIP3    H222194   2.852   4.287   5.624
 7417TIP3   OH222195   2.989   4.014   3.695
 7417TIP3    H122196   2.973   3.966   3.614
 7417TIP3    H222197   2.956   4.102   3.678
 7418TIP3   OH222198   2.461   3.743   5.547
 7418TIP3    H122199   2.473   3.667   5.490
 7418TIP3    H222200   2.416   3.807   5.492
 7419TIP3   OH222201   2.468   3.526   5.354
 7419TIP3    H122202   2.496   3.583   5.282
 7419TIP3    H222203   2.376   3.507   5.335
 7420TIP3   OH222204   2.486   4.083   5.290
 7420TIP3    H122205   2.569   4.091   5.243
 7420TIP3    H222206   2.425   4.138   5.240
 7421TIP3   OH222207   3.075   4.029   5.605
 7421TIP3    H122208   3.125   3.949   5.617
 7421TIP3    H222209   3.136   4.091   5.565
 7422TIP3   OH222210   3.115   4.286   5.347
 7422TIP3    H122211   3.056   4.335   5.290
 7422TIP3    H222212   3.202   4.301   5.310
 7423TIP3   OH222213   2.340   3.847   5.781
 7423TIP3    H122214   2.272   3.781   5.794
 7423TIP3    H222215   2.374   3.830   5.693
 7424TIP3   OH222216   2.593   3.288   5.423
 7424TIP3    H122217   2.550   3.371   5.398
 7424TIP3    H222218   2.525   3.222   5.410
 7425TIP3   OH222219   2.726   3.794   5.640
 7425TIP3    H122220   2.705   3.781   5.732
 7425TIP3    H222221   2.644   3.777   5.594
 7426TIP3   OH222222   2.962   3.741   5.492
 7426TIP3    H122223   2.886   3.749   5.549
 7426TIP3    H222224   3.034   3.716   5.550
 7427TIP3   OH222225   3.189   3.684   5.645
 7427TIP3    H122226   3.203   3.591   5.664
 7427TIP3    H222227   3.186   3.725   5.732
 7428TIP3   OH222228   2.175   3.628   5.836
 7428TIP3    H122229   2.184   3.541   5.798
 7428TIP3    H222230   2.215   3.620   5.923
 7429TIP3   OH222231   2.694   3.295   5.677
 7429TIP3    H122232   2.753   3.220   5.670
 7429TIP3    H222233   2.649   3.298   5.593
 7430TIP3   OH222234   2.753   3.513   5.840
 7430TIP3    H122235   2.734   3.446   5.775
 7430TIP3    H222236   2.680   3.574   5.833
 7431TIP3   OH222237   1.982   4.748   3.937
 7431TIP3    H122238   2.075   4.735   3.922
 7431TIP3    H222239   1.951   4.797   3.861
 7432TIP3   OH222240   1.461   4.126   4.152
 7432TIP3    H122241   1.553   4.150   4.138
 7432TIP3    H222242   1.453   4.038   4.114
 7433TIP3   OH222243   1.372   4.735   4.571
 7433TIP3    H122244   1.308   4.676   4.530
 7433TIP3    H222245   1.417   4.680   4.635
 7434TIP3   OH222246   1.505   4.586   4.761
 7434TIP3    H122247   1.498   4.511   4.821
 7434TIP3    H222248   1.568   4.644   4.803
 7435TIP3   OH222249   3.238   4.990   4.557
 7435TIP3    H122250   3.263   5.017   4.645
 7435TIP3    H222251   3.306   5.026   4.500
 7436TIP3   OH222252   3.268   5.007   4.838
 7436TIP3    H122253   3.216   4.927   4.837
 7436TIP3    H222254   3.345   4.985   4.891
 7437TIP3   OH222255   3.313   4.688   5.413
 7437TIP3    H122256   3.240   4.695   5.475
 7437TIP3    H222257   3.355   4.774   5.415
 7438TIP3   OH222258   3.135   4.199   4.050
 7438TIP3    H122259   3.186   4.262   4.000
 7438TIP3    H222260   3.183   4.188   4.132
 7439TIP3   OH222261   3.330   4.441   4.648
 7439TIP3    H122262   3.328   4.403   4.560
 7439TIP3    H222263   3.302   4.532   4.636
 7440TIP3   OH222264   3.139   4.765   4.865
 7440TIP3    H122265   3.072   4.806   4.919
 7440TIP3    H222266   3.090   4.719   4.797
 7441TIP3   OH222267   3.185   3.978   3.883
 7441TIP3    H122268   3.119   3.978   3.814
 7441TIP3    H222269   3.161   4.053   3.939
 7442TIP3   OH222270   3.059   3.646   3.830
 7442TIP3    H122271   3.019   3.681   3.750
 7442TIP3    H222272   3.041   3.552   3.827
 7443TIP3   OH222273   1.700   3.995   5.126
 7443TIP3    H122274   1.694   3.960   5.037
 7443TIP3    H222275   1.794   3.998   5.144
 7444TIP3   OH222276   3.360   4.348   5.238
 7444TIP3    H122277   3.429   4.282   5.226
 7444TIP3    H222278   3.380   4.414   5.172
 7445TIP3   OH222279   3.540   4.145   5.248
 7445TIP3    H122280   3.465   4.099   5.287
 7445TIP3    H222281   3.614   4.086   5.260
 7446TIP3   OH222282   3.009   3.379   3.814
 7446TIP3    H122283   3.082   3.351   3.869
 7446TIP3    H222284   2.936   3.323   3.839
 7447TIP3   OH222285   3.064   3.639   4.255
 7447TIP3    H122286   3.099   3.552   4.279
 7447TIP3    H222287   3.129   3.675   4.195
 7448TIP3   OH222288   3.311   3.968   5.029
 7448TIP3    H122289   3.220   3.980   5.058
 7448TIP3    H222290   3.336   4.054   4.996
 7449TIP3   OH222291   1.910   3.675   5.789
 7449TIP3    H122292   2.006   3.678   5.796
 7449TIP3    H222293   1.885   3.593   5.832
 7450TIP3   OH222294   3.744   3.545   5.554
 7450TIP3    H122295   3.806   3.485   5.514
 7450TIP3    H222296   3.714   3.601   5.482
 7451TIP3   OH222297   3.175   3.392   4.314
 7451TIP3    H122298   3.223   3.378   4.395
 7451TIP3    H222299   3.112   3.320   4.310
 7452TIP3   OH222300   1.877   3.382   5.147
 7452TIP3    H122301   1.935   3.306   5.144
 7452TIP3    H222302   1.933   3.456   5.125
 7453TIP3   OH222303   1.674   3.649   5.203
 7453TIP3    H122304   1.722   3.640   5.121
 7453TIP3    H222305   1.708   3.729   5.242
 7454TIP3   OH222306   3.612   3.685   5.363
 7454TIP3    H122307   3.533   3.733   5.387
 7454TIP3    H222308   3.582   3.616   5.304
 7455TIP3   OH222309   3.251   3.323   3.943
 7455TIP3    H122310   3.295   3.256   3.891
 7455TIP3    H222311   3.315   3.395   3.949
 7456TIP3   OH222312   1.657   3.142   4.697
 7456TIP3    H122313   1.567   3.146   4.730
 7456TIP3    H222314   1.660   3.205   4.625
 7457TIP3   OH222315   2.820   4.860   4.210
 7457TIP3    H122316   2.870   4.848   4.129
 7457TIP3    H222317   2.871   4.922   4.261
 7458TIP3   OH222318   1.880   3.230   5.519
 7458TIP3    H122319   1.830   3.229   5.601
 7458TIP3    H222320   1.819   3.267   5.454
 7459TIP3   OH222321   1.903   4.663   5.589
 7459TIP3    H122322   1.869   4.577   5.565
 7459TIP3    H222323   1.934   4.652   5.679
 7460TIP3   OH222324   2.101   4.703   5.142
 7460TIP3    H122325   2.058   4.778   5.102
 7460TIP3    H222326   2.190   4.704   5.105
 7461TIP3   OH222327   2.538   4.949   5.289
 7461TIP3    H122328   2.584   4.941   5.373
 7461TIP3    H222329   2.602   4.990   5.231
 7462TIP3   OH222330   2.718   5.092   5.139
 7462TIP3    H122331   2.778   5.035   5.092
 7462TIP3    H222332   2.775   5.143   5.197
 7463TIP3   OH222333   3.513   3.453   5.240
 7463TIP3    H122334   3.429   3.457   5.196
 7463TIP3    H222335   3.544   3.363   5.227
 7464TIP3   OH222336   1.772   4.956   5.170
 7464TIP3    H122337   1.683   4.981   5.148
 7464TIP3    H222338   1.798   5.015   5.240
 7465TIP3   OH222339   2.009   4.931   5.025
 7465TIP3    H122340   1.923   4.941   5.066
 7465TIP3    H222341   1.996   4.960   4.935
 7466TIP3   OH222342   2.436   4.956   4.821
 7466TIP3    H122343   2.366   4.977   4.759
 7466TIP3    H222344   2.453   5.038   4.867
 7467TIP3   OH222345   2.713   4.918   4.874
 7467TIP3    H122346   2.620   4.905   4.854
 7467TIP3    H222347   2.738   4.994   4.821
 7468TIP3   OH222348   2.923   5.098   4.784
 7468TIP3    H122349   2.906   5.177   4.733
 7468TIP3    H222350   2.943   5.031   4.719
 7469TIP3   OH222351   1.686   4.736   4.912
 7469TIP3    H122352   1.710   4.714   5.002
 7469TIP3    H222353   1.757   4.699   4.859
 7470TIP3   OH222354   1.884   4.613   4.775
 7470TIP3    H122355   1.898   4.528   4.817
 7470TIP3    H222356   1.972   4.651   4.769
 7471TIP3   OH222357   2.150   4.709   4.779
 7471TIP3    H122358   2.171   4.617   4.762
 7471TIP3    H222359   2.201   4.731   4.856
 7472TIP3   OH222360   2.735   3.367   4.880
 7472TIP3    H122361   2.681   3.297   4.916
 7472TIP3    H222362   2.795   3.323   4.819
 7473TIP3   OH222363   3.242   3.242   4.762
 7473TIP3    H122364   3.282   3.294   4.693
 7473TIP3    H222365   3.150   3.267   4.762
 7474TIP3   OH222366   3.347   3.340   4.525
 7474TIP3    H122367   3.414   3.285   4.486
 7474TIP3    H222368   3.379   3.429   4.513
 7475TIP3   OH222369   1.969   3.070   4.877
 7475TIP3    H122370   1.877   3.044   4.877
 7475TIP3    H222371   2.017   2.987   4.870
 7476TIP3   OH222372   1.760   2.945   4.525
 7476TIP3    H122373   1.790   2.998   4.451
 7476TIP3    H222374   1.732   3.009   4.590
 7477TIP3   OH222375   2.422   3.101   4.758
 7477TIP3    H122376   2.471   3.148   4.690
 7477TIP3    H222377   2.428   3.156   4.835
 7478TIP3   OH222378   2.957   3.252   4.741
 7478TIP3    H122379   2.954   3.231   4.647
 7478TIP3    H222380   2.938   3.168   4.784
 7479TIP3   OH222381   2.989   3.179   4.303
 7479TIP3    H122382   2.908   3.228   4.318
 7479TIP3    H222383   2.973   3.094   4.344
 7480TIP3   OH222384   1.469   4.521   4.300
 7480TIP3    H122385   1.386   4.485   4.268
 7480TIP3    H222386   1.466   4.614   4.274
 7481TIP3   OH222387   1.879   3.100   4.289
 7481TIP3    H122388   1.922   3.040   4.228
 7481TIP3    H222389   1.950   3.154   4.323
 7482TIP3   OH222390   2.390   3.273   4.386
 7482TIP3    H122391   2.456   3.235   4.444
 7482TIP3    H222392   2.393   3.367   4.405
 7483TIP3   OH222393   2.248   4.698   3.882
 7483TIP3    H122394   2.334   4.724   3.851
 7483TIP3    H222395   2.222   4.625   3.826
 7484TIP3   OH222396   2.964   4.822   3.977
 7484TIP3    H122397   2.959   4.727   3.969
 7484TIP3    H222398   2.921   4.856   3.899
 7485TIP3   OH222399   2.178   3.348   5.766
 7485TIP3    H122400   2.141   3.279   5.822
 7485TIP3    H222401   2.270   3.353   5.792
 7486TIP3   OH222402   2.426   3.350   5.885
 7486TIP3    H122403   2.512   3.332   5.848
 7486TIP3    H222404   2.414   3.282   5.951
 7487TIP3   OH222405   1.552   4.536   3.940
 7487TIP3    H122406   1.556   4.558   4.033
 7487TIP3    H222407   1.636   4.494   3.921
 7488TIP3   OH222408   3.258   3.414   5.676
 7488TIP3    H122409   3.275   3.387   5.766
 7488TIP3    H222410   3.344   3.415   5.635
 7489TIP3   OH222411   3.185   4.967   5.168
 7489TIP3    H122412   3.112   4.934   5.116
 7489TIP3    H222413   3.170   5.062   5.174
 7490TIP3   OH222414   3.726   4.643   4.403
 7490TIP3    H122415   3.728   4.551   4.430
 7490TIP3    H222416   3.816   4.662   4.377
 7491TIP3   OH222417   3.434   3.824   4.204
 7491TIP3    H122418   3.432   3.917   4.227
 7491TIP3    H222419   3.356   3.812   4.148
 7492TIP3   OH222420   4.355   5.107   4.016
 7492TIP3    H122421   4.398   5.036   3.969
 7492TIP3    H222422   4.326   5.067   4.098
 7493TIP3   OH222423   5.272   3.877   4.362
 7493TIP3    H122424   5.297   3.958   4.407
 7493TIP3    H222425   5.309   3.886   4.274
 7494TIP3   OH222426   4.668   4.071   4.391
 7494TIP3    H122427   4.700   3.982   4.407
 7494TIP3    H222428   4.641   4.071   4.299
 7495TIP3   OH222429   3.993   3.736   4.344
 7495TIP3    H122430   3.936   3.804   4.308
 7495TIP3    H222431   3.962   3.654   4.305
 7496TIP3   OH222432   4.706   3.802   3.975
 7496TIP3    H122433   4.773   3.788   4.042
 7496TIP3    H222434   4.747   3.862   3.912
 7497TIP3   OH222435   5.339   4.086   4.551
 7497TIP3    H122436   5.258   4.138   4.543
 7497TIP3    H222437   5.384   4.124   4.627
 7498TIP3   OH222438   4.000   3.706   4.800
 7498TIP3    H122439   3.951   3.739   4.725
 7498TIP3    H222440   3.947   3.730   4.876
 7499TIP3   OH222441   4.118   4.498   4.605
 7499TIP3    H122442   4.044   4.545   4.643
 7499TIP3    H222443   4.136   4.543   4.523
 7500TIP3   OH222444   4.906   3.795   4.159
 7500TIP3    H122445   4.864   3.774   4.242
 7500TIP3    H222446   4.963   3.869   4.179
 7501TIP3   OH222447   3.878   3.811   4.584
 7501TIP3    H122448   3.921   3.895   4.595
 7501TIP3    H222449   3.909   3.779   4.500
 7502TIP3   OH222450   3.929   4.687   4.683
 7502TIP3    H122451   3.917   4.773   4.644
 7502TIP3    H222452   3.852   4.675   4.739
 7503TIP3   OH222453   3.306   4.374   3.920
 7503TIP3    H122454   3.284   4.392   3.829
 7503TIP3    H222455   3.348   4.454   3.951
 7504TIP3   OH222456   4.778   4.901   4.165
 7504TIP3    H122457   4.695   4.883   4.211
 7504TIP3    H222458   4.763   4.986   4.123
 7505TIP3   OH222459   5.060   3.777   4.526
 7505TIP3    H122460   4.972   3.802   4.497
 7505TIP3    H222461   5.118   3.812   4.459
 7506TIP3   OH222462   4.358   3.425   4.516
 7506TIP3    H122463   4.337   3.332   4.520
 7506TIP3    H222464   4.283   3.469   4.556
 7507TIP3   OH222465   4.474   4.938   3.828
 7507TIP3    H122466   4.528   4.860   3.843
 7507TIP3    H222467   4.532   5.001   3.787
 7508TIP3   OH222468   5.004   4.790   4.483
 7508TIP3    H122469   4.993   4.726   4.413
 7508TIP3    H222470   4.982   4.874   4.443
 7509TIP3   OH222471   4.303   4.208   3.749
 7509TIP3    H122472   4.209   4.194   3.755
 7509TIP3    H222473   4.324   4.187   3.658
 7510TIP3   OH222474   4.245   3.977   3.467
 7510TIP3    H122475   4.307   4.023   3.524
 7510TIP3    H222476   4.298   3.913   3.420
 7511TIP3   OH222477   4.588   4.265   3.751
 7511TIP3    H122478   4.503   4.275   3.793
 7511TIP3    H222479   4.636   4.204   3.806
 7512TIP3   OH222480   4.859   4.309   4.658
 7512TIP3    H122481   4.858   4.392   4.706
 7512TIP3    H222482   4.774   4.307   4.613
 7513TIP3   OH222483   3.974   4.649   4.308
 7513TIP3    H122484   3.966   4.621   4.217
 7513TIP3    H222485   4.052   4.705   4.309
 7514TIP3   OH222486   4.549   4.906   4.304
 7514TIP3    H122487   4.517   4.988   4.342
 7514TIP3    H222488   4.535   4.841   4.373
 7515TIP3   OH222489   4.138   4.793   4.832
 7515TIP3    H122490   4.081   4.857   4.873
 7515TIP3    H222491   4.080   4.740   4.777
 7516TIP3   OH222492   4.477   4.117   3.546
 7516TIP3    H122493   4.517   4.181   3.605
 7516TIP3    H222494   4.504   4.144   3.459
 7517TIP3   OH222495   3.899   4.350   4.942
 7517TIP3    H122496   3.907   4.440   4.975
 7517TIP3    H222497   3.806   4.330   4.950
 7518TIP3   OH222498   4.202   4.831   3.829
 7518TIP3    H122499   4.286   4.874   3.849
 7518TIP3    H222500   4.148   4.901   3.792
 7519TIP3   OH222501   3.935   4.967   4.914
 7519TIP3    H122502   3.909   4.974   4.822
 7519TIP3    H222503   3.854   4.946   4.961
 7520TIP3   OH222504   4.989   3.371   3.609
 7520TIP3    H122505   4.910   3.391   3.660
 7520TIP3    H222506   5.007   3.452   3.561
 7521TIP3   OH222507   4.795   4.740   3.158
 7521TIP3    H122508   4.801   4.834   3.140
 7521TIP3    H222509   4.884   4.708   3.146
 7522TIP3   OH222510   3.514   4.497   4.862
 7522TIP3    H122511   3.450   4.470   4.796
 7522TIP3    H222512   3.552   4.414   4.893
 7523TIP3   OH222513   3.376   4.697   4.491
 7523TIP3    H122514   3.472   4.696   4.485
 7523TIP3    H222515   3.357   4.771   4.548
 7524TIP3   OH222516   5.226   5.141   4.545
 7524TIP3    H122517   5.235   5.047   4.556
 7524TIP3    H222518   5.147   5.164   4.596
 7525TIP3   OH222519   4.359   4.919   4.710
 7525TIP3    H122520   4.343   5.013   4.714
 7525TIP3    H222521   4.276   4.880   4.739
 7526TIP3   OH222522   4.100   5.060   3.634
 7526TIP3    H122523   4.050   5.041   3.555
 7526TIP3    H222524   4.067   5.145   3.663
 7527TIP3   OH222525   3.541   4.903   4.031
 7527TIP3    H122526   3.593   4.898   4.111
 7527TIP3    H222527   3.492   4.821   4.029
 7528TIP3   OH222528   4.303   4.958   3.278
 7528TIP3    H122529   4.359   4.889   3.242
 7528TIP3    H222530   4.333   4.968   3.368
 7529TIP3   OH222531   4.350   5.006   3.551
 7529TIP3    H122532   4.261   5.019   3.583
 7529TIP3    H222533   4.396   4.963   3.624
 7530TIP3   OH222534   5.112   4.259   4.837
 7530TIP3    H122535   5.041   4.280   4.776
 7530TIP3    H222536   5.128   4.166   4.824
 7531TIP3   OH222537   3.716   4.683   4.852
 7531TIP3    H122538   3.770   4.666   4.929
 7531TIP3    H222539   3.644   4.620   4.858
 7532TIP3   OH222540   4.115   3.501   4.638
 7532TIP3    H122541   4.028   3.474   4.608
 7532TIP3    H222542   4.101   3.585   4.681
 7533TIP3   OH222543   4.656   3.616   4.832
 7533TIP3    H122544   4.722   3.590   4.896
 7533TIP3    H222545   4.572   3.599   4.876
 7534TIP3   OH222546   4.887   4.047   4.750
 7534TIP3    H122547   4.839   4.044   4.833
 7534TIP3    H222548   4.864   4.132   4.712
 7535TIP3   OH222549   4.554   4.179   3.296
 7535TIP3    H122550   4.517   4.153   3.212
 7535TIP3    H222551   4.637   4.221   3.274
 7536TIP3   OH222552   4.261   3.549   3.613
 7536TIP3    H122553   4.228   3.560   3.702
 7536TIP3    H222554   4.221   3.467   3.582
 7537TIP3   OH222555   4.042   4.036   4.639
 7537TIP3    H122556   3.992   4.044   4.720
 7537TIP3    H222557   4.015   4.112   4.587
 7538TIP3   OH222558   4.464   4.023   3.893
 7538TIP3    H122559   4.386   4.078   3.882
 7538TIP3    H222560   4.457   3.957   3.824
 7539TIP3   OH222561   4.602   4.265   4.984
 7539TIP3    H122562   4.578   4.193   5.042
 7539TIP3    H222563   4.695   4.281   5.002
 7540TIP3   OH222564   4.591   4.008   4.137
 7540TIP3    H122565   4.539   4.064   4.079
 7540TIP3    H222566   4.607   3.929   4.086
 7541TIP3   OH222567   3.880   4.033   4.861
 7541TIP3    H122568   3.895   4.110   4.916
 7541TIP3    H222569   3.873   3.961   4.923
 7542TIP3   OH222570   3.911   3.526   3.578
 7542TIP3    H122571   3.912   3.533   3.674
 7542TIP3    H222572   3.842   3.585   3.550
 7543TIP3   OH222573   3.473   3.566   4.451
 7543TIP3    H122574   3.537   3.612   4.506
 7543TIP3    H222575   3.505   3.578   4.362
 7544TIP3   OH222576   3.426   3.550   3.963
 7544TIP3    H122577   3.471   3.578   3.883
 7544TIP3    H222578   3.376   3.627   3.991
 7545TIP3   OH222579   4.601   4.272   4.560
 7545TIP3    H122580   4.623   4.212   4.488
 7545TIP3    H222581   4.565   4.215   4.628
 7546TIP3   OH222582   4.264   3.678   4.252
 7546TIP3    H122583   4.175   3.702   4.277
 7546TIP3    H222584   4.321   3.734   4.306
 7547TIP3   OH222585   3.695   3.748   4.287
 7547TIP3    H122586   3.620   3.798   4.256
 7547TIP3    H222587   3.728   3.703   4.210
 7548TIP3   OH222588   4.756   3.798   4.431
 7548TIP3    H122589   4.730   3.821   4.520
 7548TIP3    H222590   4.686   3.741   4.399
 7549TIP3   OH222591   3.764   3.808   3.689
 7549TIP3    H122592   3.730   3.771   3.608
 7549TIP3    H222593   3.847   3.849   3.663
 7550TIP3   OH222594   4.929   5.494   4.652
 7550TIP3    H122595   4.925   5.513   4.558
 7550TIP3    H222596   5.009   5.537   4.682
 7551TIP3   OH222597   3.880   4.605   5.072
 7551TIP3    H122598   3.962   4.632   5.114
 7551TIP3    H222599   3.817   4.601   5.144
 7552TIP3   OH222600   3.887   3.535   4.203
 7552TIP3    H122601   3.843   3.459   4.240
 7552TIP3    H222602   3.912   3.507   4.115
 7553TIP3   OH222603   4.311   3.941   4.648
 7553TIP3    H122604   4.229   3.988   4.632
 7553TIP3    H222605   4.375   4.011   4.663
 7554TIP3   OH222606   4.030   4.355   3.706
 7554TIP3    H122607   3.975   4.277   3.698
 7554TIP3    H222608   4.059   4.355   3.797
 7555TIP3   OH222609   4.508   3.654   3.556
 7555TIP3    H122610   4.418   3.634   3.581
 7555TIP3    H222611   4.524   3.740   3.593
 7556TIP3   OH222612   4.453   4.660   4.732
 7556TIP3    H122613   4.479   4.646   4.823
 7556TIP3    H222614   4.420   4.750   4.731
 7557TIP3   OH222615   4.586   3.889   3.665
 7557TIP3    H122616   4.677   3.899   3.693
 7557TIP3    H222617   4.563   3.973   3.627
 7558TIP3   OH222618   4.196   4.489   3.520
 7558TIP3    H122619   4.159   4.576   3.532
 7558TIP3    H222620   4.156   4.437   3.589
 7559TIP3   OH222621   3.636   4.292   5.008
 7559TIP3    H122622   3.666   4.283   5.098
 7559TIP3    H222623   3.560   4.235   5.001
 7560TIP3   OH222624   4.360   4.399   5.019
 7560TIP3    H122625   4.296   4.345   4.973
 7560TIP3    H222626   4.445   4.366   4.991
 7561TIP3   OH222627   4.622   4.943   4.608
 7561TIP3    H122628   4.530   4.920   4.621
 7561TIP3    H222629   4.647   4.987   4.689
 7562TIP3   OH222630   5.025   4.003   3.508
 7562TIP3    H122631   4.965   3.950   3.455
 7562TIP3    H222632   5.023   4.089   3.467
 7563TIP3   OH222633   5.260   4.856   4.570
 7563TIP3    H122634   5.169   4.834   4.552
 7563TIP3    H222635   5.310   4.813   4.501
 7564TIP3   OH222636   4.728   4.803   3.422
 7564TIP3    H122637   4.695   4.725   3.467
 7564TIP3    H222638   4.744   4.774   3.332
 7565TIP3   OH222639   3.841   4.675   4.029
 7565TIP3    H122640   3.870   4.740   3.965
 7565TIP3    H222641   3.748   4.663   4.012
 7566TIP3   OH222642   3.399   3.955   3.710
 7566TIP3    H122643   3.448   4.037   3.717
 7566TIP3    H222644   3.333   3.962   3.779
 7567TIP3   OH222645   3.762   4.920   3.856
 7567TIP3    H122646   3.684   4.920   3.910
 7567TIP3    H222647   3.799   5.008   3.866
 7568TIP3   OH222648   4.546   4.666   4.479
 7568TIP3    H122649   4.502   4.660   4.563
 7568TIP3    H222650   4.613   4.598   4.482
 7569TIP3   OH222651   4.482   4.544   3.326
 7569TIP3    H122652   4.538   4.518   3.399
 7569TIP3    H222653   4.394   4.517   3.352
 7570TIP3   OH222654   4.753   5.180   4.492
 7570TIP3    H122655   4.682   5.116   4.495
 7570TIP3    H222656   4.730   5.237   4.419
 7571TIP3   OH222657   4.822   5.018   3.141
 7571TIP3    H122658   4.864   5.090   3.093
 7571TIP3    H222659   4.741   5.056   3.176
 7572TIP3   OH222660   3.843   3.788   5.016
 7572TIP3    H122661   3.747   3.791   5.025
 7572TIP3    H222662   3.871   3.731   5.087
 7573TIP3   OH222663   4.653   4.471   3.533
 7573TIP3    H122664   4.625   4.415   3.605
 7573TIP3    H222665   4.747   4.457   3.527
 7574TIP3   OH222666   3.561   4.873   4.641
 7574TIP3    H122667   3.617   4.806   4.680
 7574TIP3    H222668   3.589   4.954   4.683
 7575TIP3   OH222669   3.845   4.519   3.326
 7575TIP3    H122670   3.862   4.429   3.299
 7575TIP3    H222671   3.828   4.513   3.420
 7576TIP3   OH222672   3.796   4.525   3.598
 7576TIP3    H122673   3.875   4.490   3.639
 7576TIP3    H222674   3.803   4.620   3.610
 7577TIP3   OH222675   3.493   4.202   3.747
 7577TIP3    H122676   3.458   4.242   3.826
 7577TIP3    H222677   3.538   4.274   3.702
 7578TIP3   OH222678   4.686   3.853   4.690
 7578TIP3    H122679   4.763   3.895   4.729
 7578TIP3    H222680   4.671   3.775   4.743
 7579TIP3   OH222681   4.570   3.599   3.856
 7579TIP3    H122682   4.549   3.629   3.767
 7579TIP3    H222683   4.611   3.675   3.897
 7580TIP3   OH222684   4.058   4.724   3.535
 7580TIP3    H122685   3.976   4.743   3.582
 7580TIP3    H222686   4.076   4.804   3.486
 7581TIP3   OH222687   4.523   4.106   4.759
 7581TIP3    H122688   4.546   4.156   4.838
 7581TIP3    H222689   4.571   4.024   4.769
 7582TIP3   OH222690   4.382   3.516   4.056
 7582TIP3    H122691   4.358   3.586   4.117
 7582TIP3    H222692   4.448   3.555   4.000
 7583TIP3   OH222693   3.805   4.802   3.613
 7583TIP3    H122694   3.776   4.869   3.552
 7583TIP3    H222695   3.790   4.840   3.700
 7584TIP3   OH222696   3.905   3.540   3.854
 7584TIP3    H122697   3.898   3.633   3.879
 7584TIP3    H222698   3.999   3.521   3.861
 7585TIP3   OH222699   5.151   3.994   4.759
 7585TIP3    H122700   5.055   3.994   4.761
 7585TIP3    H222701   5.173   3.971   4.669
 7586TIP3   OH222702   3.528   4.439   3.588
 7586TIP3    H122703   3.603   4.496   3.606
 7586TIP3    H222704   3.563   4.374   3.526
 7587TIP3   OH222705   3.455   3.685   3.730
 7587TIP3    H122706   3.491   3.774   3.733
 7587TIP3    H222707   3.366   3.695   3.697
 7588TIP3   OH222708   4.778   5.166   4.077
 7588TIP3    H122709   4.733   5.209   4.005
 7588TIP3    H222710   4.871   5.184   4.062
 7589TIP3   OH222711   3.846   3.426   4.609
 7589TIP3    H122712   3.821   3.400   4.521
 7589TIP3    H222713   3.837   3.347   4.662
 7590TIP3   OH222714   3.390   4.642   3.987
 7590TIP3    H122715   3.327   4.671   4.052
 7590TIP3    H222716   3.362   4.683   3.905
 7591TIP3   OH222717   3.554   5.187   5.066
 7591TIP3    H122718   3.639   5.189   5.109
 7591TIP3    H222719   3.532   5.094   5.059
 7592TIP3   OH222720   4.029   5.140   5.107
 7592TIP3    H122721   4.123   5.126   5.113
 7592TIP3    H222722   4.001   5.085   5.035
 7593TIP3   OH222723   4.009   4.718   3.231
 7593TIP3    H122724   3.951   4.655   3.274
 7593TIP3    H222725   4.087   4.667   3.208
 7594TIP3   OH222726   4.668   5.061   4.851
 7594TIP3    H122727   4.661   4.989   4.913
 7594TIP3    H222728   4.747   5.108   4.878
 7595TIP3   OH222729   4.449   4.761   3.150
 7595TIP3    H122730   4.481   4.694   3.210
 7595TIP3    H222731   4.506   4.754   3.074
 7596TIP3   OH222732   3.680   4.590   5.265
 7596TIP3    H122733   3.698   4.497   5.273
 7596TIP3    H222734   3.596   4.595   5.219
 7597TIP3   OH222735   3.659   4.239   3.459
 7597TIP3    H122736   3.703   4.198   3.534
 7597TIP3    H222737   3.727   4.245   3.391
 7598TIP3   OH222738   4.284   4.676   5.037
 7598TIP3    H122739   4.245   4.700   4.952
 7598TIP3    H222740   4.315   4.586   5.024
 7599TIP3   OH222741   4.168   4.436   3.257
 7599TIP3    H122742   4.170   4.454   3.351
 7599TIP3    H222743   4.169   4.340   3.250
 7600TIP3   OH222744   4.789   4.691   4.642
 7600TIP3    H122745   4.864   4.732   4.599
 7600TIP3    H222746   4.715   4.747   4.620
 7601TIP3   OH222747   3.801   4.327   5.247
 7601TIP3    H122748   3.878   4.283   5.213
 7601TIP3    H222749   3.827   4.358   5.334
 7602TIP3   OH222750   3.886   4.123   3.700
 7602TIP3    H122751   3.919   4.077   3.777
 7602TIP3    H222752   3.899   4.063   3.628
 7603TIP3   OH222753   4.138   4.211   4.911
 7603TIP3    H122754   4.058   4.265   4.910
 7603TIP3    H222755   4.187   4.238   4.834
 7604TIP3   OH222756   3.961   3.939   3.514
 7604TIP3    H122757   3.941   3.947   3.420
 7604TIP3    H222758   4.057   3.939   3.518
 7605TIP3   OH222759   4.654   4.611   5.041
 7605TIP3    H122760   4.728   4.582   4.988
 7605TIP3    H222761   4.647   4.546   5.111
 7606TIP3   OH222762   4.786   4.271   3.181
 7606TIP3    H122763   4.769   4.223   3.100
 7606TIP3    H222764   4.754   4.359   3.164
 7607TIP3   OH222765   4.259   3.998   5.029
 7607TIP3    H122766   4.259   3.920   4.974
 7607TIP3    H222767   4.217   4.066   4.976
 7608TIP3   OH222768   4.258   3.776   4.853
 7608TIP3    H122769   4.288   3.826   4.777
 7608TIP3    H222770   4.167   3.755   4.834
 7609TIP3   OH222771   4.285   4.314   4.715
 7609TIP3    H122772   4.371   4.329   4.675
 7609TIP3    H222773   4.228   4.380   4.674
 7610TIP3   OH222774   4.871   4.286   5.091
 7610TIP3    H122775   4.918   4.202   5.097
 7610TIP3    H222776   4.933   4.346   5.050
 7611TIP3   OH222777   4.912   4.543   4.829
 7611TIP3    H122778   4.856   4.596   4.773
 7611TIP3    H222779   5.001   4.558   4.796
 7612TIP3   OH222780   4.138   4.102   5.265
 7612TIP3    H122781   4.069   4.038   5.280
 7612TIP3    H222782   4.170   4.084   5.177
 7613TIP3   OH222783   4.392   3.544   4.911
 7613TIP3    H122784   4.347   3.626   4.890
 7613TIP3    H222785   4.326   3.476   4.896
 7614TIP3   OH222786   4.517   4.046   5.125
 7614TIP3    H122787   4.503   4.035   5.219
 7614TIP3    H222788   4.432   4.026   5.086
 7615TIP3   OH222789   4.758   4.000   4.982
 7615TIP3    H122790   4.683   4.002   5.041
 7615TIP3    H222791   4.831   3.972   5.036
 7616TIP3   OH222792   4.988   3.943   5.132
 7616TIP3    H122793   5.000   3.849   5.146
 7616TIP3    H222794   4.983   3.980   5.220
 7617TIP3   OH222795   3.973   3.885   5.321
 7617TIP3    H122796   3.984   3.797   5.283
 7617TIP3    H222797   4.009   3.877   5.409
 7618TIP3   OH222798   4.484   3.552   5.169
 7618TIP3    H122799   4.551   3.484   5.163
 7618TIP3    H222800   4.444   3.554   5.082
 7619TIP3   OH222801   4.550   3.770   5.327
 7619TIP3    H122802   4.530   3.701   5.263
 7619TIP3    H222803   4.476   3.830   5.320
 7620TIP3   OH222804   3.778   5.007   3.423
 7620TIP3    H122805   3.871   4.991   3.407
 7620TIP3    H222806   3.749   5.056   3.346
 7621TIP3   OH222807   3.260   4.384   3.638
 7621TIP3    H122808   3.351   4.410   3.623
 7621TIP3    H222809   3.254   4.295   3.602
 7622TIP3   OH222810   3.170   4.992   4.058
 7622TIP3    H122811   3.105   4.934   4.018
 7622TIP3    H222812   3.215   4.937   4.122
 7623TIP3   OH222813   3.306   4.841   4.246
 7623TIP3    H122814   3.296   4.771   4.310
 7623TIP3    H222815   3.360   4.906   4.290
 7624TIP3   OH222816   5.032   5.257   4.044
 7624TIP3    H122817   5.059   5.276   4.133
 7624TIP3    H222818   5.107   5.283   3.990
 7625TIP3   OH222819   5.067   5.261   4.326
 7625TIP3    H122820   5.014   5.181   4.320
 7625TIP3    H222821   5.138   5.238   4.386
 7626TIP3   OH222822   5.106   4.945   4.899
 7626TIP3    H122823   5.036   4.952   4.964
 7626TIP3    H222824   5.151   5.029   4.902
 7627TIP3   OH222825   4.938   4.454   3.530
 7627TIP3    H122826   4.993   4.516   3.483
 7627TIP3    H222827   4.969   4.456   3.620
 7628TIP3   OH222828   4.935   5.021   4.350
 7628TIP3    H122829   4.865   5.060   4.401
 7628TIP3    H222830   4.890   4.974   4.279
 7629TIP3   OH222831   4.986   4.235   3.365
 7629TIP3    H122832   4.918   4.233   3.298
 7629TIP3    H222833   4.961   4.307   3.423
 7630TIP3   OH222834   4.864   3.900   3.313
 7630TIP3    H122835   4.812   3.937   3.241
 7630TIP3    H222836   4.844   3.807   3.311
 7631TIP3   OH222837   5.160   4.602   4.724
 7631TIP3    H122838   5.229   4.536   4.722
 7631TIP3    H222839   5.180   4.661   4.651
 7632TIP3   OH222840   5.337   4.402   4.804
 7632TIP3    H122841   5.257   4.350   4.812
 7632TIP3    H222842   5.405   4.338   4.780
 7633TIP3   OH222843   4.806   3.634   3.299
 7633TIP3    H122844   4.875   3.606   3.358
 7633TIP3    H222845   4.730   3.582   3.324
 7634TIP3   OH222846   4.858   3.891   3.744
 7634TIP3    H122847   4.894   3.806   3.767
 7634TIP3    H222848   4.923   3.929   3.685
 7635TIP3   OH222849   5.096   4.238   4.529
 7635TIP3    H122850   5.011   4.247   4.571
 7635TIP3    H222851   5.091   4.294   4.451
 7636TIP3   OH222852   3.707   3.931   5.277
 7636TIP3    H122853   3.802   3.933   5.283
 7636TIP3    H222854   3.682   3.850   5.321
 7637TIP3   OH222855   5.546   3.807   5.041
 7637TIP3    H122856   5.605   3.743   4.999
 7637TIP3    H222857   5.511   3.859   4.968
 7638TIP3   OH222858   4.974   3.645   3.797
 7638TIP3    H122859   5.019   3.634   3.880
 7638TIP3    H222860   4.909   3.575   3.795
 7639TIP3   OH222861   3.664   3.643   4.649
 7639TIP3    H122862   3.721   3.567   4.640
 7639TIP3    H222863   3.718   3.717   4.620
 7640TIP3   OH222864   5.407   3.939   4.850
 7640TIP3    H122865   5.327   3.986   4.874
 7640TIP3    H222866   5.378   3.870   4.791
 7641TIP3   OH222867   5.049   3.578   3.431
 7641TIP3    H122868   5.089   3.510   3.379
 7641TIP3    H222869   5.113   3.649   3.432
 7642TIP3   OH222870   3.450   3.388   4.178
 7642TIP3    H122871   3.365   3.399   4.221
 7642TIP3    H222872   3.453   3.457   4.112
 7643TIP3   OH222873   4.626   5.113   3.695
 7643TIP3    H122874   4.677   5.109   3.614
 7643TIP3    H222875   4.670   5.179   3.748
 7644TIP3   OH222876   3.673   3.474   5.006
 7644TIP3    H122877   3.630   3.488   5.091
 7644TIP3    H222878   3.615   3.517   4.943
 7645TIP3   OH222879   3.711   4.923   5.080
 7645TIP3    H122880   3.621   4.894   5.064
 7645TIP3    H222881   3.729   4.896   5.170
 7646TIP3   OH222882   3.909   4.961   4.617
 7646TIP3    H122883   3.854   5.035   4.590
 7646TIP3    H222884   3.986   4.967   4.560
 7647TIP3   OH222885   4.338   5.200   4.771
 7647TIP3    H122886   4.382   5.193   4.856
 7647TIP3    H222887   4.400   5.246   4.715
 7648TIP3   OH222888   4.523   5.345   4.630
 7648TIP3    H122889   4.589   5.290   4.588
 7648TIP3    H222890   4.573   5.402   4.689
 7649TIP3   OH222891   5.311   3.705   4.725
 7649TIP3    H122892   5.223   3.705   4.689
 7649TIP3    H222893   5.341   3.614   4.715
 7650TIP3   OH222894   3.547   5.202   4.663
 7650TIP3    H122895   3.462   5.241   4.643
 7650TIP3    H222896   3.576   5.245   4.742
 7651TIP3   OH222897   3.783   5.178   4.522
 7651TIP3    H122898   3.695   5.199   4.553
 7651TIP3    H222899   3.786   5.214   4.433
 7652TIP3   OH222900   4.480   5.167   4.374
 7652TIP3    H122901   4.385   5.167   4.382
 7652TIP3    H222902   4.500   5.249   4.329
 7653TIP3   OH222903   4.721   5.351   4.275
 7653TIP3    H122904   4.700   5.430   4.225
 7653TIP3    H222905   4.736   5.284   4.208
 7654TIP3   OH222906   3.486   4.995   4.398
 7654TIP3    H122907   3.509   4.974   4.489
 7654TIP3    H222908   3.557   4.959   4.346
 7655TIP3   OH222909   3.686   4.873   4.262
 7655TIP3    H122910   3.691   4.788   4.307
 7655TIP3    H222911   3.776   4.904   4.260
 7656TIP3   OH222912   4.545   3.624   4.372
 7656TIP3    H122913   4.477   3.564   4.404
 7656TIP3    H222914   4.595   3.572   4.309
 7657TIP3   OH222915   5.041   3.498   4.246
 7657TIP3    H122916   5.077   3.552   4.176
 7657TIP3    H222917   4.948   3.517   4.246
 7658TIP3   OH222918   5.141   3.599   4.011
 7658TIP3    H122919   5.211   3.546   3.973
 7658TIP3    H222920   5.170   3.690   4.000
 7659TIP3   OH222921   3.766   3.324   4.364
 7659TIP3    H122922   3.674   3.299   4.365
 7659TIP3    H222923   3.814   3.241   4.357
 7660TIP3   OH222924   3.557   3.200   4.007
 7660TIP3    H122925   3.587   3.258   3.937
 7660TIP3    H222926   3.524   3.260   4.075
 7661TIP3   OH222927   4.219   3.357   4.246
 7661TIP3    H122928   4.261   3.410   4.178
 7661TIP3    H222929   4.222   3.413   4.324
 7662TIP3   OH222930   4.764   3.505   4.223
 7662TIP3    H122931   4.747   3.475   4.134
 7662TIP3    H222932   4.746   3.429   4.278
 7663TIP3   OH222933   4.785   3.435   3.790
 7663TIP3    H122934   4.705   3.485   3.807
 7663TIP3    H222935   4.770   3.351   3.833
 7664TIP3   OH222936   3.267   4.776   3.788
 7664TIP3    H122937   3.184   4.739   3.757
 7664TIP3    H222938   3.262   4.869   3.766
 7665TIP3   OH222939   3.676   3.358   3.778
 7665TIP3    H122940   3.727   3.304   3.717
 7665TIP3    H222941   3.739   3.422   3.811
 7666TIP3   OH222942   4.173   3.571   3.877
 7666TIP3    H122943   4.241   3.549   3.940
 7666TIP3    H222944   4.137   3.654   3.908
 7667TIP3   OH222945   4.043   4.955   3.367
 7667TIP3    H122946   4.129   4.980   3.334
 7667TIP3    H222947   4.017   4.880   3.312
 7668TIP3   OH222948   4.767   5.075   3.459
 7668TIP3    H122949   4.757   4.980   3.455
 7668TIP3    H222950   4.718   5.108   3.384
 7669TIP3   OH222951   3.974   3.602   5.249
 7669TIP3    H122952   3.937   3.536   5.308
 7669TIP3    H222953   4.066   3.608   5.275
 7670TIP3   OH222954   4.223   3.606   5.370
 7670TIP3    H122955   4.307   3.590   5.328
 7670TIP3    H222956   4.215   3.536   5.435
 7671TIP3   OH222957   3.349   4.795   3.427
 7671TIP3    H122958   3.350   4.810   3.522
 7671TIP3    H222959   3.432   4.752   3.408
 7672TIP3   OH222960   5.053   3.670   5.160
 7672TIP3    H122961   5.068   3.641   5.250
 7672TIP3    H222962   5.139   3.667   5.119
 7673TIP3   OH222963   4.980   5.223   4.653
 7673TIP3    H122964   4.906   5.190   4.603
 7673TIP3    H222965   4.963   5.317   4.661
 7674TIP3   OH222966   5.518   4.921   3.880
 7674TIP3    H122967   5.491   4.829   3.881
 7674TIP3    H222968   5.613   4.919   3.886
 7675TIP3   OH222969   5.231   4.091   3.684
 7675TIP3    H122970   5.207   4.182   3.698
 7675TIP3    H222971   5.158   4.055   3.634
 7676TIP3   OH222972   6.153   5.357   3.497
 7676TIP3    H122973   6.194   5.286   3.448
 7676TIP3    H222974   6.136   5.320   3.583
 7677TIP3   OH222975   6.035   4.831   3.836
 7677TIP3    H122976   6.042   4.752   3.782
 7677TIP3    H222977   6.124   4.850   3.863
 7678TIP3   OH222978   7.070   4.143   3.844
 7678TIP3    H122979   7.097   4.223   3.888
 7678TIP3    H222980   7.092   4.157   3.752
 7679TIP3   OH222981   6.477   4.301   3.887
 7679TIP3    H122982   6.531   4.250   3.947
 7679TIP3    H222983   6.447   4.238   3.822
 7680TIP3   OH222984   5.758   3.964   3.853
 7680TIP3    H122985   5.722   4.037   3.803
 7680TIP3    H222986   5.733   3.886   3.804
 7681TIP3   OH222987   6.499   4.063   3.459
 7681TIP3    H122988   6.563   4.058   3.531
 7681TIP3    H222989   6.546   4.109   3.389
 7682TIP3   OH222990   7.140   4.352   4.018
 7682TIP3    H122991   7.057   4.393   3.997
 7682TIP3    H222992   7.165   4.389   4.103
 7683TIP3   OH222993   5.798   3.963   4.288
 7683TIP3    H122994   5.749   4.002   4.216
 7683TIP3    H222995   5.746   3.983   4.366
 7684TIP3   OH222996   6.105   4.808   3.310
 7684TIP3    H122997   6.121   4.798   3.216
 7684TIP3    H222998   6.068   4.896   3.318
 7685TIP3   OH222999   5.922   4.759   4.103
 7685TIP3    H123000   5.842   4.795   4.141
 7685TIP3    H223001   5.925   4.795   4.015
 7686TIP3   OH223002   6.698   4.088   3.645
 7686TIP3    H123003   6.684   4.037   3.725
 7686TIP3    H223004   6.760   4.157   3.671
 7687TIP3   OH223005   5.665   4.073   4.082
 7687TIP3    H123006   5.700   4.162   4.084
 7687TIP3    H223007   5.700   4.034   4.002
 7688TIP3   OH223008   5.712   4.918   4.193
 7688TIP3    H123009   5.667   5.001   4.182
 7688TIP3    H223010   5.653   4.866   4.248
 7689TIP3   OH223011   5.120   4.629   3.407
 7689TIP3    H123012   5.085   4.655   3.322
 7689TIP3    H223013   5.156   4.710   3.444
 7690TIP3   OH223014   6.574   5.152   3.673
 7690TIP3    H123015   6.485   5.127   3.698
 7690TIP3    H223016   6.562   5.222   3.609
 7691TIP3   OH223017   6.863   4.038   4.011
 7691TIP3    H123018   6.774   4.061   3.982
 7691TIP3    H223019   6.920   4.072   3.942
 7692TIP3   OH223020   6.154   3.683   4.002
 7692TIP3    H123021   6.135   3.590   4.011
 7692TIP3    H223022   6.079   3.727   4.042
 7693TIP3   OH223023   6.273   5.175   3.322
 7693TIP3    H123024   6.323   5.095   3.337
 7693TIP3    H223025   6.336   5.235   3.281
 7694TIP3   OH223026   6.791   5.058   3.992
 7694TIP3    H123027   6.787   4.981   3.935
 7694TIP3    H223028   6.777   5.133   3.934
 7695TIP3   OH223029   6.067   4.426   3.235
 7695TIP3    H123030   6.003   4.497   3.230
 7695TIP3    H223031   6.132   4.448   3.168
 7696TIP3   OH223032   6.041   4.236   2.956
 7696TIP3    H123033   6.096   4.285   3.017
 7696TIP3    H223034   6.101   4.175   2.914
 7697TIP3   OH223035   6.988   4.688   3.835
 7697TIP3    H123036   6.907   4.738   3.842
 7697TIP3    H223037   7.023   4.712   3.749
 7698TIP3   OH223038   6.417   4.511   3.249
 7698TIP3    H123039   6.408   4.604   3.269
 7698TIP3    H223040   6.508   4.490   3.269
 7699TIP3   OH223041   6.675   4.570   4.141
 7699TIP3    H123042   6.675   4.649   4.196
 7699TIP3    H223043   6.588   4.568   4.102
 7700TIP3   OH223044   5.790   4.942   3.780
 7700TIP3    H123045   5.781   4.915   3.688
 7700TIP3    H223046   5.877   4.912   3.805
 7701TIP3   OH223047   6.323   5.129   3.772
 7701TIP3    H123048   6.315   5.213   3.817
 7701TIP3    H223049   6.302   5.064   3.839
 7702TIP3   OH223050   5.931   5.054   4.307
 7702TIP3    H123051   5.876   5.111   4.362
 7702TIP3    H223052   5.870   4.992   4.269
 7703TIP3   OH223053   6.277   4.387   3.048
 7703TIP3    H123054   6.326   4.446   3.105
 7703TIP3    H223055   6.303   4.413   2.959
 7704TIP3   OH223056   6.012   5.074   3.318
 7704TIP3    H123057   6.097   5.116   3.327
 7704TIP3    H223058   5.956   5.141   3.278
 7705TIP3   OH223059   5.731   5.227   4.405
 7705TIP3    H123060   5.699   5.224   4.315
 7705TIP3    H223061   5.656   5.201   4.458
 7706TIP3   OH223062   6.787   3.628   3.096
 7706TIP3    H123063   6.707   3.647   3.146
 7706TIP3    H223064   6.803   3.708   3.046
 7707TIP3   OH223065   5.548   4.367   3.421
 7707TIP3    H123066   5.468   4.402   3.382
 7707TIP3    H223067   5.518   4.294   3.476
 7708TIP3   OH223068   6.590   4.995   2.645
 7708TIP3    H123069   6.596   5.090   2.629
 7708TIP3    H223070   6.679   4.963   2.632
 7709TIP3   OH223071   5.169   4.969   3.948
 7709TIP3    H123072   5.251   4.928   3.978
 7709TIP3    H223073   5.136   5.015   4.026
 7710TIP3   OH223074   7.027   5.399   4.041
 7710TIP3    H123075   7.029   5.304   4.055
 7710TIP3    H223076   6.947   5.427   4.084
 7711TIP3   OH223077   6.128   5.187   4.170
 7711TIP3    H123078   6.129   5.276   4.205
 7711TIP3    H223079   6.060   5.142   4.220
 7712TIP3   OH223080   5.899   5.314   3.124
 7712TIP3    H123081   5.850   5.294   3.044
 7712TIP3    H223082   5.865   5.399   3.152
 7713TIP3   OH223083   5.334   5.160   3.509
 7713TIP3    H123084   5.382   5.159   3.592
 7713TIP3    H223085   5.281   5.080   3.511
 7714TIP3   OH223086   6.100   5.214   2.764
 7714TIP3    H123087   6.155   5.145   2.728
 7714TIP3    H223088   6.132   5.225   2.854
 7715TIP3   OH223089   6.150   5.263   3.036
 7715TIP3    H123090   6.062   5.274   3.072
 7715TIP3    H223091   6.198   5.218   3.105
 7716TIP3   OH223092   6.920   4.523   4.316
 7716TIP3    H123093   6.835   4.541   4.274
 7716TIP3    H223094   6.934   4.430   4.303
 7717TIP3   OH223095   5.913   3.759   4.124
 7717TIP3    H123096   5.827   3.730   4.093
 7717TIP3    H223097   5.895   3.842   4.169
 7718TIP3   OH223098   6.447   3.872   4.318
 7718TIP3    H123099   6.514   3.848   4.382
 7718TIP3    H223100   6.364   3.856   4.363
 7719TIP3   OH223101   6.690   4.309   4.241
 7719TIP3    H123102   6.638   4.301   4.321
 7719TIP3    H223103   6.667   4.395   4.207
 7720TIP3   OH223104   6.345   4.428   2.786
 7720TIP3    H123105   6.316   4.406   2.698
 7720TIP3    H223106   6.426   4.478   2.772
 7721TIP3   OH223107   6.059   3.802   3.092
 7721TIP3    H123108   6.029   3.801   3.183
 7721TIP3    H223109   6.021   3.723   3.053
 7722TIP3   OH223110   5.849   4.296   4.126
 7722TIP3    H123111   5.796   4.300   4.205
 7722TIP3    H223112   5.823   4.374   4.076
 7723TIP3   OH223113   6.217   4.251   3.381
 7723TIP3    H123114   6.165   4.321   3.341
 7723TIP3    H223115   6.286   4.233   3.318
 7724TIP3   OH223116   6.397   4.520   4.465
 7724TIP3    H123117   6.371   4.452   4.528
 7724TIP3    H223118   6.483   4.549   4.495
 7725TIP3   OH223119   5.684   4.284   4.343
 7725TIP3    H123120   5.659   4.368   4.382
 7725TIP3    H223121   5.670   4.220   4.413
 7726TIP3   OH223122   5.714   3.784   3.061
 7726TIP3    H123123   5.708   3.780   3.157
 7726TIP3    H223124   5.640   3.838   3.034
 7727TIP3   OH223125   5.263   3.823   3.935
 7727TIP3    H123126   5.332   3.861   3.991
 7727TIP3    H223127   5.306   3.809   3.851
 7728TIP3   OH223128   5.223   3.806   3.446
 7728TIP3    H123129   5.273   3.839   3.371
 7728TIP3    H223130   5.168   3.880   3.471
 7729TIP3   OH223131   6.423   4.519   4.046
 7729TIP3    H123132   6.443   4.443   3.992
 7729TIP3    H223133   6.377   4.484   4.122
 7730TIP3   OH223134   5.514   4.047   3.714
 7730TIP3    H123135   5.419   4.059   3.713
 7730TIP3    H223136   5.527   3.955   3.689
 7731TIP3   OH223137   5.771   4.017   3.393
 7731TIP3    H123138   5.853   4.055   3.363
 7731TIP3    H223139   5.705   4.050   3.332
 7732TIP3   OH223140   6.555   4.040   3.918
 7732TIP3    H123141   6.527   4.054   4.008
 7732TIP3    H223142   6.484   3.989   3.879
 7733TIP3   OH223143   5.602   4.072   3.188
 7733TIP3    H123144   5.532   4.027   3.140
 7733TIP3    H223145   5.657   4.109   3.119
 7734TIP3   OH223146   6.725   5.751   4.138
 7734TIP3    H123147   6.723   5.773   4.045
 7734TIP3    H223148   6.805   5.792   4.171
 7735TIP3   OH223149   5.707   4.902   4.569
 7735TIP3    H123150   5.771   4.902   4.640
 7735TIP3    H223151   5.628   4.864   4.608
 7736TIP3   OH223152   5.656   3.782   3.684
 7736TIP3    H123153   5.621   3.709   3.735
 7736TIP3    H223154   5.699   3.742   3.609
 7737TIP3   OH223155   6.111   4.206   4.127
 7737TIP3    H123156   6.024   4.243   4.115
 7737TIP3    H223157   6.166   4.279   4.156
 7738TIP3   OH223158   5.848   4.602   3.195
 7738TIP3    H123159   5.783   4.534   3.182
 7738TIP3    H223160   5.833   4.634   3.284
 7739TIP3   OH223161   6.763   4.845   3.818
 7739TIP3    H123162   6.803   4.896   3.747
 7739TIP3    H223163   6.670   4.843   3.798
 7740TIP3   OH223164   6.310   3.912   3.060
 7740TIP3    H123165   6.217   3.893   3.072
 7740TIP3    H223166   6.320   4.003   3.090
 7741TIP3   OH223167   6.260   4.928   4.187
 7741TIP3    H123168   6.274   4.889   4.273
 7741TIP3    H223169   6.209   5.008   4.205
 7742TIP3   OH223170   6.383   4.159   3.164
 7742TIP3    H123171   6.476   4.171   3.182
 7742TIP3    H223172   6.357   4.239   3.118
 7743TIP3   OH223173   5.996   4.749   3.014
 7743TIP3    H123174   5.952   4.834   3.022
 7743TIP3    H223175   5.952   4.693   3.078
 7744TIP3   OH223176   5.363   4.555   4.537
 7744TIP3    H123177   5.445   4.583   4.576
 7744TIP3    H223178   5.380   4.468   4.503
 7745TIP3   OH223179   6.157   4.658   4.507
 7745TIP3    H123180   6.091   4.603   4.465
 7745TIP3    H223181   6.241   4.624   4.476
 7746TIP3   OH223182   6.408   5.184   4.088
 7746TIP3    H123183   6.314   5.175   4.106
 7746TIP3    H223184   6.442   5.232   4.164
 7747TIP3   OH223185   6.820   4.254   2.997
 7747TIP3    H123186   6.762   4.206   2.937
 7747TIP3    H223187   6.819   4.344   2.964
 7748TIP3   OH223188   7.041   5.108   4.079
 7748TIP3    H123189   6.946   5.106   4.076
 7748TIP3    H223190   7.069   5.080   3.992
 7749TIP3   OH223191   6.524   5.064   2.911
 7749TIP3    H123192   6.509   4.992   2.972
 7749TIP3    H223193   6.536   5.023   2.826
 7750TIP3   OH223194   5.648   4.928   3.501
 7750TIP3    H123195   5.651   5.006   3.446
 7750TIP3    H223196   5.554   4.912   3.513
 7751TIP3   OH223197   5.211   4.231   3.206
 7751TIP3    H123198   5.261   4.310   3.227
 7751TIP3    H223199   5.136   4.233   3.265
 7752TIP3   OH223200   5.770   4.684   3.441
 7752TIP3    H123201   5.739   4.774   3.454
 7752TIP3    H223202   5.796   4.655   3.528
 7753TIP3   OH223203   5.917   5.268   3.966
 7753TIP3    H123204   5.961   5.340   3.921
 7753TIP3    H223205   5.986   5.228   4.020
 7754TIP3   OH223206   5.564   5.169   3.350
 7754TIP3    H123207   5.480   5.172   3.397
 7754TIP3    H223208   5.597   5.259   3.353
 7755TIP3   OH223209   6.317   4.866   3.933
 7755TIP3    H123210   6.272   4.882   4.016
 7755TIP3    H223211   6.410   4.871   3.955
 7756TIP3   OH223212   6.277   4.797   2.807
 7756TIP3    H123213   6.337   4.766   2.875
 7756TIP3    H223214   6.190   4.774   2.839
 7757TIP3   OH223215   6.549   5.437   3.975
 7757TIP3    H123216   6.474   5.377   3.971
 7757TIP3    H223217   6.533   5.501   3.906
 7758TIP3   OH223218   6.618   5.273   2.628
 7758TIP3    H123219   6.658   5.343   2.576
 7758TIP3    H223220   6.538   5.311   2.663
 7759TIP3   OH223221   5.636   4.040   4.505
 7759TIP3    H123222   5.541   4.043   4.516
 7759TIP3    H223223   5.667   3.983   4.576
 7760TIP3   OH223224   6.445   4.720   3.006
 7760TIP3    H123225   6.430   4.738   3.099
 7760TIP3    H223226   6.540   4.708   2.999
 7761TIP3   OH223227   5.356   5.129   4.131
 7761TIP3    H123228   5.395   5.048   4.164
 7761TIP3    H223229   5.386   5.197   4.190
 7762TIP3   OH223230   5.642   4.776   2.812
 7762TIP3    H123231   5.658   4.686   2.784
 7762TIP3    H223232   5.623   4.769   2.905
 7763TIP3   OH223233   5.589   4.784   3.083
 7763TIP3    H123234   5.663   4.749   3.133
 7763TIP3    H223235   5.594   4.879   3.094
 7764TIP3   OH223236   5.319   4.474   3.290
 7764TIP3    H123237   5.255   4.518   3.346
 7764TIP3    H223238   5.339   4.538   3.221
 7765TIP3   OH223239   6.491   4.102   4.173
 7765TIP3    H123240   6.554   4.149   4.228
 7765TIP3    H223241   6.465   4.027   4.226
 7766TIP3   OH223242   6.364   3.854   3.344
 7766TIP3    H123243   6.343   3.879   3.254
 7766TIP3    H223244   6.401   3.933   3.383
 7767TIP3   OH223245   5.856   4.982   3.028
 7767TIP3    H123246   5.771   5.000   3.068
 7767TIP3    H223247   5.872   5.057   2.970
 7768TIP3   OH223248   6.062   4.031   3.377
 7768TIP3    H123249   6.118   4.107   3.359
 7768TIP3    H223250   6.059   4.026   3.473
 7769TIP3   OH223251   6.324   4.368   4.245
 7769TIP3    H123252   6.335   4.424   4.322
 7769TIP3    H223253   6.360   4.284   4.271
 7770TIP3   OH223254   6.194   3.776   3.551
 7770TIP3    H123255   6.232   3.824   3.625
 7770TIP3    H223256   6.246   3.805   3.476
 7771TIP3   OH223257   5.602   5.058   3.101
 7771TIP3    H123258   5.572   5.125   3.039
 7771TIP3    H223259   5.586   5.096   3.187
 7772TIP3   OH223260   5.703   3.762   3.336
 7772TIP3    H123261   5.701   3.852   3.369
 7772TIP3    H223262   5.795   3.737   3.342
 7773TIP3   OH223263   6.954   4.255   4.238
 7773TIP3    H123264   6.859   4.257   4.247
 7773TIP3    H223265   6.969   4.221   4.150
 7774TIP3   OH223266   6.598   4.429   3.622
 7774TIP3    H123267   6.572   4.338   3.614
 7774TIP3    H223268   6.682   4.426   3.669
 7775TIP3   OH223269   5.324   4.680   3.087
 7775TIP3    H123270   5.392   4.745   3.102
 7775TIP3    H223271   5.361   4.619   3.024
 7776TIP3   OH223272   5.260   3.959   3.221
 7776TIP3    H123273   5.266   4.055   3.220
 7776TIP3    H223274   5.173   3.941   3.185
 7777TIP3   OH223275   6.580   5.428   3.566
 7777TIP3    H123276   6.530   5.471   3.497
 7777TIP3    H223277   6.671   5.449   3.547
 7778TIP3   OH223278   5.648   3.679   4.094
 7778TIP3    H123279   5.619   3.650   4.008
 7778TIP3    H223280   5.638   3.603   4.151
 7779TIP3   OH223281   5.184   4.894   3.473
 7779TIP3    H123282   5.130   4.925   3.545
 7779TIP3    H223283   5.149   4.938   3.396
 7780TIP3   OH223284   5.350   5.443   4.549
 7780TIP3    H123285   5.435   5.443   4.594
 7780TIP3    H223286   5.325   5.351   4.545
 7781TIP3   OH223287   5.829   5.405   4.588
 7781TIP3    H123288   5.919   5.377   4.602
 7781TIP3    H223289   5.796   5.346   4.520
 7782TIP3   OH223290   5.807   4.975   2.719
 7782TIP3    H123291   5.750   4.910   2.759
 7782TIP3    H223292   5.884   4.926   2.692
 7783TIP3   OH223293   6.474   5.308   4.322
 7783TIP3    H123294   6.459   5.241   4.389
 7783TIP3    H223295   6.545   5.361   4.357
 7784TIP3   OH223296   6.245   5.018   2.636
 7784TIP3    H123297   6.276   4.950   2.696
 7784TIP3    H223298   6.304   5.011   2.561
 7785TIP3   OH223299   5.477   4.848   4.747
 7785TIP3    H123300   5.499   4.754   4.746
 7785TIP3    H223301   5.397   4.854   4.695
 7786TIP3   OH223302   5.459   4.492   2.947
 7786TIP3    H123303   5.511   4.462   3.022
 7786TIP3    H223304   5.522   4.500   2.875
 7787TIP3   OH223305   6.082   4.935   4.522
 7787TIP3    H123306   6.029   4.946   4.443
 7787TIP3    H223307   6.112   4.844   4.518
 7788TIP3   OH223308   5.964   4.693   2.749
 7788TIP3    H123309   5.968   4.709   2.843
 7788TIP3    H223310   5.966   4.598   2.741
 7789TIP3   OH223311   6.569   4.937   4.108
 7789TIP3    H123312   6.644   4.989   4.080
 7789TIP3    H223313   6.500   5.001   4.122
 7790TIP3   OH223314   5.602   4.584   4.727
 7790TIP3    H123315   5.684   4.543   4.700
 7790TIP3    H223316   5.618   4.613   4.817
 7791TIP3   OH223317   5.654   4.404   3.160
 7791TIP3    H123318   5.630   4.377   3.249
 7791TIP3    H223319   5.694   4.326   3.121
 7792TIP3   OH223320   5.935   4.479   4.401
 7792TIP3    H123321   5.856   4.533   4.393
 7792TIP3    H223322   5.985   4.500   4.322
 7793TIP3   OH223323   5.765   4.194   3.003
 7793TIP3    H123324   5.738   4.205   2.912
 7793TIP3    H223325   5.861   4.200   3.000
 7794TIP3   OH223326   6.448   4.865   4.523
 7794TIP3    H123327   6.538   4.845   4.499
 7794TIP3    H223328   6.431   4.811   4.601
 7795TIP3   OH223329   6.582   4.526   2.667
 7795TIP3    H123330   6.562   4.480   2.586
 7795TIP3    H223331   6.551   4.615   2.652
 7796TIP3   OH223332   6.058   4.257   4.512
 7796TIP3    H123333   6.052   4.179   4.457
 7796TIP3    H223334   6.012   4.325   4.462
 7797TIP3   OH223335   6.057   4.035   4.332
 7797TIP3    H123336   6.083   4.085   4.254
 7797TIP3    H223337   5.965   4.014   4.317
 7798TIP3   OH223338   6.087   4.575   4.202
 7798TIP3    H123339   6.158   4.578   4.138
 7798TIP3    H223340   6.024   4.640   4.172
 7799TIP3   OH223341   6.665   4.544   4.576
 7799TIP3    H123342   6.717   4.466   4.597
 7799TIP3    H223343   6.730   4.611   4.555
 7800TIP3   OH223344   6.708   4.797   4.300
 7800TIP3    H123345   6.645   4.846   4.247
 7800TIP3    H223346   6.793   4.822   4.265
 7801TIP3   OH223347   5.934   4.358   4.751
 7801TIP3    H123348   5.864   4.294   4.766
 7801TIP3    H223349   5.964   4.340   4.662
 7802TIP3   OH223350   6.187   3.800   4.395
 7802TIP3    H123351   6.141   3.882   4.374
 7802TIP3    H223352   6.120   3.733   4.385
 7803TIP3   OH223353   6.314   4.302   4.610
 7803TIP3    H123354   6.301   4.295   4.704
 7803TIP3    H223355   6.228   4.282   4.572
 7804TIP3   OH223356   6.550   4.244   4.463
 7804TIP3    H123357   6.474   4.258   4.520
 7804TIP3    H223358   6.621   4.222   4.522
 7805TIP3   OH223359   6.796   4.199   4.612
 7805TIP3    H123360   6.800   4.105   4.629
 7805TIP3    H223361   6.781   4.239   4.698
 7806TIP3   OH223362   5.768   4.140   4.807
 7806TIP3    H123363   5.775   4.052   4.772
 7806TIP3    H223364   5.804   4.134   4.896
 7807TIP3   OH223365   6.283   3.810   4.652
 7807TIP3    H123366   6.347   3.740   4.647
 7807TIP3    H223367   6.240   3.810   4.566
 7808TIP3   OH223368   6.346   4.027   4.813
 7808TIP3    H123369   6.327   3.959   4.749
 7808TIP3    H223370   6.272   4.087   4.807
 7809TIP3   OH223371   5.575   5.263   2.911
 7809TIP3    H123372   5.668   5.248   2.895
 7809TIP3    H223373   5.544   5.311   2.834
 7810TIP3   OH223374   5.053   4.639   3.124
 7810TIP3    H123375   5.145   4.662   3.112
 7810TIP3    H223376   5.044   4.552   3.086
 7811TIP3   OH223377   4.967   5.249   3.543
 7811TIP3    H123378   4.903   5.190   3.503
 7811TIP3    H223379   5.012   5.195   3.608
 7812TIP3   OH223380   5.106   5.101   3.726
 7812TIP3    H123381   5.104   5.030   3.790
 7812TIP3    H223382   5.151   5.173   3.771
 7813TIP3   OH223383   6.829   5.532   3.527
 7813TIP3    H123384   6.858   5.533   3.618
 7813TIP3    H223385   6.911   5.527   3.476
 7814TIP3   OH223386   6.871   5.517   3.802
 7814TIP3    H123387   6.820   5.436   3.806
 7814TIP3    H223388   6.942   5.503   3.865
 7815TIP3   OH223389   6.903   5.200   4.386
 7815TIP3    H123390   6.832   5.207   4.450
 7815TIP3    H223391   6.946   5.285   4.388
 7816TIP3   OH223392   6.728   4.711   2.995
 7816TIP3    H123393   6.795   4.775   2.971
 7816TIP3    H223394   6.754   4.680   3.082
 7817TIP3   OH223395   6.852   4.577   3.204
 7817TIP3    H123396   6.780   4.541   3.256
 7817TIP3    H223397   6.908   4.622   3.268
 7818TIP3   OH223398   6.910   4.976   3.635
 7818TIP3    H123399   6.959   4.908   3.589
 7818TIP3    H223400   6.889   5.040   3.568
 7819TIP3   OH223401   6.737   5.282   3.840
 7819TIP3    H123402   6.669   5.323   3.894
 7819TIP3    H223403   6.688   5.234   3.773
 7820TIP3   OH223404   6.783   4.487   2.851
 7820TIP3    H123405   6.714   4.488   2.785
 7820TIP3    H223406   6.762   4.561   2.908
 7821TIP3   OH223407   6.660   4.155   2.802
 7821TIP3    H123408   6.609   4.198   2.733
 7821TIP3    H223409   6.637   4.063   2.794
 7822TIP3   OH223410   6.669   4.435   3.350
 7822TIP3    H123411   6.668   4.340   3.340
 7822TIP3    H223412   6.646   4.450   3.442
 7823TIP3   OH223413   6.955   4.865   4.205
 7823TIP3    H123414   7.023   4.798   4.196
 7823TIP3    H223415   6.984   4.936   4.148
 7824TIP3   OH223416   7.132   4.659   4.218
 7824TIP3    H123417   7.057   4.616   4.259
 7824TIP3    H223418   7.206   4.600   4.233
 7825TIP3   OH223419   6.601   3.889   2.785
 7825TIP3    H123420   6.670   3.861   2.846
 7825TIP3    H223421   6.525   3.837   2.810
 7826TIP3   OH223422   6.663   4.156   3.247
 7826TIP3    H123423   6.698   4.068   3.262
 7826TIP3    H223424   6.716   4.191   3.175
 7827TIP3   OH223425   6.824   4.332   3.743
 7827TIP3    H123426   6.906   4.352   3.699
 7827TIP3    H223427   6.835   4.366   3.832
 7828TIP3   OH223428   6.890   4.471   3.973
 7828TIP3    H123429   6.818   4.503   4.027
 7828TIP3    H223430   6.924   4.549   3.930
 7829TIP3   OH223431   5.500   4.182   4.758
 7829TIP3    H123432   5.596   4.189   4.765
 7829TIP3    H223433   5.478   4.104   4.808
 7830TIP3   OH223434   7.349   4.057   4.536
 7830TIP3    H123435   7.405   4.000   4.483
 7830TIP3    H223436   7.310   4.118   4.473
 7831TIP3   OH223437   6.769   3.902   3.284
 7831TIP3    H123438   6.815   3.888   3.366
 7831TIP3    H223439   6.705   3.831   3.280
 7832TIP3   OH223440   5.462   3.891   4.119
 7832TIP3    H123441   5.525   3.818   4.119
 7832TIP3    H223442   5.516   3.968   4.105
 7833TIP3   OH223443   7.207   4.193   4.345
 7833TIP3    H123444   7.127   4.240   4.366
 7833TIP3    H223445   7.180   4.124   4.284
 7834TIP3   OH223446   6.846   3.834   2.920
 7834TIP3    H123447   6.884   3.766   2.864
 7834TIP3    H223448   6.909   3.906   2.917
 7835TIP3   OH223449   5.249   3.655   3.671
 7835TIP3    H123450   5.161   3.656   3.708
 7835TIP3    H223451   5.245   3.718   3.600
 7836TIP3   OH223452   6.419   5.365   3.187
 7836TIP3    H123453   6.463   5.353   3.103
 7836TIP3    H223454   6.470   5.433   3.232
 7837TIP3   OH223455   5.470   3.737   4.492
 7837TIP3    H123456   5.426   3.738   4.577
 7837TIP3    H223457   5.407   3.776   4.431
 7838TIP3   OH223458   5.508   5.187   4.567
 7838TIP3    H123459   5.422   5.147   4.549
 7838TIP3    H223460   5.540   5.141   4.644
 7839TIP3   OH223461   5.683   5.211   4.125
 7839TIP3    H123462   5.642   5.287   4.083
 7839TIP3    H223463   5.769   5.205   4.083
 7840TIP3   OH223464   6.136   5.453   4.256
 7840TIP3    H123465   6.174   5.447   4.344
 7840TIP3    H223466   6.200   5.503   4.205
 7841TIP3   OH223467   6.319   5.605   4.115
 7841TIP3    H123468   6.387   5.547   4.081
 7841TIP3    H223469   6.364   5.663   4.176
 7842TIP3   OH223470   7.109   3.960   4.212
 7842TIP3    H123471   7.020   3.958   4.177
 7842TIP3    H223472   7.140   3.870   4.202
 7843TIP3   OH223473   5.366   5.472   4.137
 7843TIP3    H123474   5.278   5.502   4.117
 7843TIP3    H223475   5.378   5.494   4.229
 7844TIP3   OH223476   5.603   5.446   3.999
 7844TIP3    H123477   5.519   5.456   4.045
 7844TIP3    H223478   5.584   5.473   3.909
 7845TIP3   OH223479   6.029   5.471   3.796
 7845TIP3    H123480   5.957   5.485   3.735
 7845TIP3    H223481   6.039   5.555   3.841
 7846TIP3   OH223482   6.295   5.405   3.843
 7846TIP3    H123483   6.200   5.416   3.831
 7846TIP3    H223484   6.333   5.486   3.809
 7847TIP3   OH223485   6.508   5.609   3.756
 7847TIP3    H123486   6.458   5.667   3.699
 7847TIP3    H223487   6.541   5.541   3.698
 7848TIP3   OH223488   5.281   5.258   3.889
 7848TIP3    H123489   5.300   5.225   3.977
 7848TIP3    H223490   5.347   5.217   3.833
 7849TIP3   OH223491   5.477   5.143   3.738
 7849TIP3    H123492   5.484   5.062   3.789
 7849TIP3    H223493   5.566   5.178   3.736
 7850TIP3   OH223494   5.747   5.221   3.751
 7850TIP3    H123495   5.768   5.128   3.741
 7850TIP3    H223496   5.789   5.247   3.833
 7851TIP3   OH223497   6.316   3.868   3.810
 7851TIP3    H123498   6.268   3.818   3.875
 7851TIP3    H223499   6.396   3.818   3.794
 7852TIP3   OH223500   6.836   3.759   3.736
 7852TIP3    H123501   6.872   3.809   3.663
 7852TIP3    H223502   6.742   3.775   3.733
 7853TIP3   OH223503   6.933   3.857   3.500
 7853TIP3    H123504   7.003   3.804   3.463
 7853TIP3    H223505   6.962   3.947   3.488
 7854TIP3   OH223506   5.561   3.579   3.847
 7854TIP3    H123507   5.469   3.552   3.852
 7854TIP3    H223508   5.610   3.497   3.844
 7855TIP3   OH223509   5.351   3.460   3.497
 7855TIP3    H123510   5.379   3.516   3.425
 7855TIP3    H223511   5.321   3.520   3.565
 7856TIP3   OH223512   6.015   3.614   3.729
 7856TIP3    H123513   6.067   3.668   3.669
 7856TIP3    H223514   6.016   3.662   3.812
 7857TIP3   OH223515   6.560   3.762   3.712
 7857TIP3    H123516   6.551   3.730   3.623
 7857TIP3    H223517   6.546   3.684   3.767
 7858TIP3   OH223518   6.582   3.691   3.277
 7858TIP3    H123519   6.501   3.739   3.293
 7858TIP3    H223520   6.568   3.606   3.319
 7859TIP3   OH223521   5.065   5.033   3.272
 7859TIP3    H123522   4.981   4.997   3.241
 7859TIP3    H223523   5.059   5.126   3.254
 7860TIP3   OH223524   5.471   3.616   3.258
 7860TIP3    H123525   5.517   3.554   3.201
 7860TIP3    H223526   5.540   3.670   3.296
 7861TIP3   OH223527   5.980   3.774   3.356
 7861TIP3    H123528   6.038   3.742   3.426
 7861TIP3    H223529   5.994   3.869   3.356
 7862TIP3   OH223530   5.840   5.211   2.854
 7862TIP3    H123531   5.927   5.236   2.823
 7862TIP3    H223532   5.815   5.137   2.799
 7863TIP3   OH223533   6.558   5.333   2.950
 7863TIP3    H123534   6.552   5.238   2.943
 7863TIP3    H223535   6.513   5.366   2.872
 7864TIP3   OH223536   5.770   3.862   4.739
 7864TIP3    H123537   5.732   3.795   4.795
 7864TIP3    H223538   5.862   3.866   4.765
 7865TIP3   OH223539   6.019   3.863   4.859
 7865TIP3    H123540   6.103   3.842   4.819
 7865TIP3    H223541   6.006   3.794   4.924
 7866TIP3   OH223542   5.145   5.052   2.914
 7866TIP3    H123543   5.143   5.068   3.008
 7866TIP3    H223544   5.229   5.010   2.898
 7867TIP3   OH223545   6.848   3.925   4.647
 7867TIP3    H123546   6.862   3.896   4.737
 7867TIP3    H223547   6.934   3.919   4.606
 7868TIP3   OH223548   6.780   5.481   4.135
 7868TIP3    H123549   6.702   5.449   4.090
 7868TIP3    H223550   6.764   5.575   4.146
 7869TIP3   OH223551   8.048   4.856   2.901
 7869TIP3    H123552   8.020   4.946   2.884
 7869TIP3    H223553   7.973   4.802   2.875
 7870TIP3   OH223554   8.049   4.849   3.289
 7870TIP3    H123555   8.078   4.839   3.379
 7870TIP3    H223556   8.007   4.765   3.268
 7871TIP3   OH223557   7.349   4.745   3.653
 7871TIP3    H123558   7.376   4.676   3.714
 7871TIP3    H223559   7.426   4.802   3.646
 7872TIP3   OH223560   8.296   5.150   2.971
 7872TIP3    H123561   8.273   5.088   3.039
 7872TIP3    H223562   8.322   5.229   3.018
 7873TIP3   OH223563   7.319   5.155   3.371
 7873TIP3    H123564   7.310   5.060   3.372
 7873TIP3    H223565   7.413   5.171   3.373
 7874TIP3   OH223566   7.025   4.357   3.157
 7874TIP3    H123567   6.981   4.439   3.179
 7874TIP3    H223568   6.957   4.305   3.113
 7875TIP3   OH223569   7.089   4.648   3.340
 7875TIP3    H123570   7.135   4.570   3.371
 7875TIP3    H223571   7.143   4.682   3.269
 7876TIP3   OH223572   7.944   5.615   2.985
 7876TIP3    H123573   7.988   5.544   2.938
 7876TIP3    H223574   7.935   5.582   3.075
 7877TIP3   OH223575   7.850   5.079   3.333
 7877TIP3    H123576   7.887   5.001   3.291
 7877TIP3    H223577   7.927   5.128   3.363
 7878TIP3   OH223578   8.256   4.596   3.359
 7878TIP3    H123579   8.269   4.507   3.390
 7878TIP3    H223580   8.208   4.587   3.277
 7879TIP3   OH223581   7.597   4.237   3.329
 7879TIP3    H123582   7.584   4.311   3.270
 7879TIP3    H223583   7.552   4.164   3.287
 7880TIP3   OH223584   8.288   4.330   2.965
 7880TIP3    H123585   8.351   4.271   3.008
 7880TIP3    H223586   8.341   4.380   2.903
 7881TIP3   OH223587   7.234   4.436   3.438
 7881TIP3    H123588   7.315   4.422   3.488
 7881TIP3    H223589   7.245   4.385   3.358
 7882TIP3   OH223590   7.674   4.635   3.233
 7882TIP3    H123591   7.766   4.614   3.246
 7882TIP3    H223592   7.635   4.553   3.200
 7883TIP3   OH223593   7.592   4.223   3.767
 7883TIP3    H123594   7.538   4.259   3.696
 7883TIP3    H223595   7.541   4.241   3.847
 7884TIP3   OH223596   7.946   5.082   2.763
 7884TIP3    H123597   7.898   5.057   2.684
 7884TIP3    H223598   7.897   5.157   2.798
 7885TIP3   OH223599   7.701   5.000   3.557
 7885TIP3    H123600   7.642   5.065   3.596
 7885TIP3    H223601   7.746   5.047   3.488
 7886TIP3   OH223602   7.470   4.337   3.549
 7886TIP3    H123603   7.527   4.410   3.574
 7886TIP3    H223604   7.515   4.296   3.474
 7887TIP3   OH223605   7.525   5.194   3.656
 7887TIP3    H123606   7.508   5.282   3.622
 7887TIP3    H223607   7.451   5.175   3.713
 7888TIP3   OH223608   6.929   4.888   2.893
 7888TIP3    H123609   6.882   4.913   2.813
 7888TIP3    H223610   6.961   4.971   2.929
 7889TIP3   OH223611   8.360   5.398   3.130
 7889TIP3    H123612   8.277   5.384   3.176
 7889TIP3    H223613   8.351   5.485   3.090
 7890TIP3   OH223614   7.937   3.931   3.485
 7890TIP3    H123615   7.919   3.838   3.498
 7890TIP3    H223616   7.863   3.976   3.527
 7891TIP3   OH223617   8.067   5.440   2.804
 7891TIP3    H123618   8.114   5.358   2.786
 7891TIP3    H223619   8.123   5.508   2.767
 7892TIP3   OH223620   8.202   5.214   2.717
 7892TIP3    H123621   8.127   5.154   2.715
 7892TIP3    H223622   8.249   5.190   2.797
 7893TIP3   OH223623   0.092   5.309   3.488
 7893TIP3    H123624   0.093   5.232   3.431
 7893TIP3    H223625   0.079   5.382   3.428
 7894TIP3   OH223626   7.878   4.704   2.735
 7894TIP3    H123627   7.798   4.754   2.721
 7894TIP3    H223628   7.920   4.701   2.650
 7895TIP3   OH223629   7.840   4.489   2.449
 7895TIP3    H123630   7.903   4.545   2.495
 7895TIP3    H223631   7.894   4.426   2.401
 7896TIP3   OH223632   8.221   4.783   2.708
 7896TIP3    H123633   8.165   4.813   2.779
 7896TIP3    H223634   8.294   4.740   2.752
 7897TIP3   OH223635   8.449   4.808   3.613
 7897TIP3    H123636   8.472   4.885   3.664
 7897TIP3    H223637   8.359   4.825   3.583
 7898TIP3   OH223638   7.463   4.780   3.123
 7898TIP3    H123639   7.421   4.724   3.058
 7898TIP3    H223640   7.537   4.729   3.155
 7899TIP3   OH223641   7.592   5.197   3.270
 7899TIP3    H123642   7.572   5.158   3.185
 7899TIP3    H223643   7.679   5.163   3.292
 7900TIP3   OH223644   7.596   4.756   3.477
 7900TIP3    H123645   7.629   4.732   3.390
 7900TIP3    H223646   7.638   4.840   3.497
 7901TIP3   OH223647   8.126   5.389   3.258
 7901TIP3    H123648   8.112   5.472   3.305
 7901TIP3    H223649   8.107   5.321   3.323
 7902TIP3   OH223650   7.737   5.318   3.793
 7902TIP3    H123651   7.684   5.375   3.848
 7902TIP3    H223652   7.674   5.259   3.752
 7903TIP3   OH223653   8.067   4.640   2.530
 7903TIP3    H123654   8.120   4.701   2.581
 7903TIP3    H223655   8.091   4.657   2.439
 7904TIP3   OH223656   7.490   4.864   3.912
 7904TIP3    H123657   7.499   4.953   3.947
 7904TIP3    H223658   7.397   4.845   3.921
 7905TIP3   OH223659   7.817   5.320   2.808
 7905TIP3    H123660   7.896   5.372   2.819
 7905TIP3    H223661   7.754   5.381   2.769
 7906TIP3   OH223662   7.526   5.475   3.889
 7906TIP3    H123663   7.493   5.478   3.799
 7906TIP3    H223664   7.449   5.456   3.942
 7907TIP3   OH223665   7.327   4.626   2.924
 7907TIP3    H123666   7.260   4.670   2.872
 7907TIP3    H223667   7.291   4.540   2.942
 7908TIP3   OH223668   8.380   5.256   2.133
 7908TIP3    H123669   8.377   5.349   2.110
 7908TIP3    H223670   8.461   5.224   2.094
 7909TIP3   OH223671   7.106   5.010   3.838
 7909TIP3    H123672   7.044   4.991   3.767
 7909TIP3    H223673   7.145   4.925   3.858
 7910TIP3   OH223674   6.970   5.213   3.463
 7910TIP3    H123675   7.060   5.184   3.446
 7910TIP3    H223676   6.978   5.273   3.537
 7911TIP3   OH223677   7.924   5.447   3.646
 7911TIP3    H123678   7.930   5.534   3.685
 7911TIP3    H223679   7.864   5.399   3.703
 7912TIP3   OH223680   7.692   5.567   2.612
 7912TIP3    H123681   7.649   5.549   2.529
 7912TIP3    H223682   7.660   5.654   2.637
 7913TIP3   OH223683   7.131   5.417   3.000
 7913TIP3    H123684   7.177   5.411   3.083
 7913TIP3    H223685   7.085   5.334   2.992
 7914TIP3   OH223686   7.894   5.471   2.252
 7914TIP3    H123687   7.950   5.404   2.213
 7914TIP3    H223688   7.929   5.483   2.340
 7915TIP3   OH223689   7.944   5.519   2.523
 7915TIP3    H123690   7.858   5.527   2.564
 7915TIP3    H223691   8.000   5.482   2.591
 7916TIP3   OH223692   7.311   5.192   3.822
 7916TIP3    H123693   7.361   5.181   3.903
 7916TIP3    H223694   7.237   5.131   3.831
 7917TIP3   OH223695   7.707   4.016   3.614
 7917TIP3    H123696   7.623   3.985   3.582
 7917TIP3    H223697   7.687   4.098   3.660
 7918TIP3   OH223698   8.211   4.148   3.792
 7918TIP3    H123699   8.275   4.108   3.851
 7918TIP3    H223700   8.126   4.130   3.832
 7919TIP3   OH223701   8.521   4.561   3.731
 7919TIP3    H123702   8.461   4.561   3.805
 7919TIP3    H223703   8.500   4.641   3.683
 7920TIP3   OH223704   8.145   4.687   2.275
 7920TIP3    H123705   8.116   4.661   2.188
 7920TIP3    H223706   8.212   4.754   2.259
 7921TIP3   OH223707   7.866   4.062   2.585
 7921TIP3    H123708   7.831   4.061   2.674
 7921TIP3    H223709   7.828   3.985   2.544
 7922TIP3   OH223710   7.641   4.536   3.627
 7922TIP3    H123711   7.595   4.555   3.709
 7922TIP3    H223712   7.628   4.613   3.573
 7923TIP3   OH223713   7.525   4.416   3.141
 7923TIP3    H123714   7.435   4.393   3.163
 7923TIP3    H223715   7.540   4.377   3.055
 7924TIP3   OH223716   8.019   4.507   2.868
 7924TIP3    H123717   7.965   4.575   2.828
 7924TIP3    H223718   8.075   4.476   2.797
 7925TIP3   OH223719   8.196   4.774   3.948
 7925TIP3    H123720   8.176   4.708   4.014
 7925TIP3    H223721   8.280   4.810   3.975
 7926TIP3   OH223722   8.159   4.535   3.105
 7926TIP3    H123723   8.099   4.555   3.034
 7926TIP3    H223724   8.198   4.451   3.082
 7927TIP3   OH223725   7.461   4.562   3.837
 7927TIP3    H123726   7.495   4.628   3.898
 7927TIP3    H223727   7.452   4.483   3.890
 7928TIP3   OH223728   7.512   4.041   2.548
 7928TIP3    H123729   7.504   4.038   2.644
 7928TIP3    H223730   7.436   4.093   2.520
 7929TIP3   OH223731   7.058   4.078   3.421
 7929TIP3    H123732   7.130   4.114   3.473
 7929TIP3    H223733   7.098   4.056   3.337
 7930TIP3   OH223734   7.021   4.065   2.934
 7930TIP3    H123735   7.068   4.098   2.858
 7930TIP3    H223736   6.959   4.135   2.957
 7931TIP3   OH223737   8.165   4.784   3.532
 7931TIP3    H123738   8.207   4.722   3.473
 7931TIP3    H223739   8.141   4.732   3.609
 7932TIP3   OH223740   7.849   4.259   3.202
 7932TIP3    H123741   7.776   4.247   3.262
 7932TIP3    H223742   7.924   4.220   3.246
 7933TIP3   OH223743   7.287   4.297   3.209
 7933TIP3    H123744   7.196   4.306   3.182
 7933TIP3    H223745   7.311   4.207   3.186
 7934TIP3   OH223746   7.553   4.289   2.901
 7934TIP3    H123747   7.645   4.306   2.883
 7934TIP3    H223748   7.508   4.313   2.819
 7935TIP3   OH223749   8.271   4.331   3.399
 7935TIP3    H123750   8.258   4.343   3.493
 7935TIP3    H223751   8.348   4.274   3.393
 7936TIP3   OH223752   7.404   4.326   2.673
 7936TIP3    H123753   7.333   4.281   2.628
 7936TIP3    H223754   7.456   4.364   2.603
 7937TIP3   OH223755   0.018   6.005   3.627
 7937TIP3    H123756   0.011   6.011   3.532
 7937TIP3    H223757   0.088   6.066   3.651
 7938TIP3   OH223758   7.474   5.114   4.046
 7938TIP3    H123759   7.555   5.143   4.087
 7938TIP3    H223760   7.409   5.115   4.117
 7939TIP3   OH223761   7.940   4.572   3.305
 7939TIP3    H123762   8.002   4.526   3.249
 7939TIP3    H223763   7.941   4.524   3.388
 7940TIP3   OH223764   7.456   4.054   3.182
 7940TIP3    H123765   7.420   3.979   3.230
 7940TIP3    H223766   7.502   4.015   3.108
 7941TIP3   OH223767   7.912   4.468   3.598
 7941TIP3    H123768   7.824   4.506   3.606
 7941TIP3    H223769   7.969   4.531   3.642
 7942TIP3   OH223770   7.648   4.854   2.687
 7942TIP3    H123771   7.579   4.790   2.672
 7942TIP3    H223772   7.630   4.889   2.774
 7943TIP3   OH223773   0.051   5.096   3.301
 7943TIP3    H123774   0.056   5.115   3.208
 7943TIP3    H223775  -0.033   5.052   3.313
 7944TIP3   OH223776   8.119   4.163   2.553
 7944TIP3    H123777   8.028   4.135   2.558
 7944TIP3    H223778   8.116   4.258   2.559
 7945TIP3   OH223779   8.052   5.179   3.690
 7945TIP3    H123780   8.111   5.188   3.765
 7945TIP3    H223781   8.006   5.264   3.686
 7946TIP3   OH223782   8.205   4.429   2.634
 7946TIP3    H123783   8.290   4.473   2.641
 7946TIP3    H223784   8.149   4.493   2.589
 7947TIP3   OH223785   7.345   4.880   3.357
 7947TIP3    H123786   7.382   4.851   3.274
 7947TIP3    H223787   7.387   4.824   3.423
 7948TIP3   OH223788   7.795   5.006   2.510
 7948TIP3    H123789   7.749   5.090   2.510
 7948TIP3    H223790   7.743   4.950   2.568
 7949TIP3   OH223791   7.226   4.798   3.976
 7949TIP3    H123792   7.246   4.788   4.069
 7949TIP3    H223793   7.158   4.733   3.959
 7950TIP3   OH223794   7.957   4.902   3.999
 7950TIP3    H123795   7.895   4.857   3.940
 7950TIP3    H223796   8.043   4.875   3.967
 7951TIP3   OH223797   8.204   5.441   3.564
 7951TIP3    H123798   8.111   5.431   3.585
 7951TIP3    H223799   8.240   5.490   3.638
 7952TIP3   OH223800   8.307   5.334   2.397
 7952TIP3    H123801   8.305   5.276   2.474
 7952TIP3    H223802   8.334   5.278   2.325
 7953TIP3   OH223803   8.310   4.955   3.233
 7953TIP3    H123804   8.217   4.939   3.247
 7953TIP3    H223805   8.344   4.871   3.203
 7954TIP3   OH223806   7.444   5.183   2.981
 7954TIP3    H123807   7.442   5.264   2.930
 7954TIP3    H223808   7.352   5.164   2.999
 7955TIP3   OH223809   7.009   4.488   2.694
 7955TIP3    H123810   7.054   4.570   2.713
 7955TIP3    H223811   6.933   4.488   2.751
 7956TIP3   OH223812   7.577   4.947   2.929
 7956TIP3    H123813   7.544   5.035   2.946
 7956TIP3    H223814   7.545   4.894   3.002
 7957TIP3   OH223815   7.718   5.524   3.454
 7957TIP3    H123816   7.759   5.597   3.408
 7957TIP3    H223817   7.789   5.487   3.508
 7958TIP3   OH223818   7.360   5.427   2.837
 7958TIP3    H123819   7.277   5.432   2.884
 7958TIP3    H223820   7.394   5.517   2.840
 7959TIP3   OH223821   8.096   5.155   3.424
 7959TIP3    H123822   8.078   5.159   3.518
 7959TIP3    H223823   8.183   5.115   3.418
 7960TIP3   OH223824   8.059   5.056   2.312
 7960TIP3    H123825   8.118   5.029   2.382
 7960TIP3    H223826   7.972   5.031   2.343
 7961TIP3   OH223827   8.357   5.685   3.456
 7961TIP3    H123828   8.281   5.628   3.464
 7961TIP3    H223829   8.331   5.751   3.391
 7962TIP3   OH223830   7.431   4.303   3.982
 7962TIP3    H123831   7.335   4.309   3.989
 7962TIP3    H223832   7.457   4.245   4.053
 7963TIP3   OH223833   8.236   4.976   2.510
 7963TIP3    H123834   8.221   4.909   2.577
 7963TIP3    H223835   8.302   5.034   2.548
 7964TIP3   OH223836   7.151   5.386   3.618
 7964TIP3    H123837   7.206   5.315   3.649
 7964TIP3    H223838   7.176   5.461   3.670
 7965TIP3   OH223839   7.439   5.032   2.298
 7965TIP3    H123840   7.454   4.942   2.270
 7965TIP3    H223841   7.420   5.024   2.392
 7966TIP3   OH223842   7.385   5.041   2.570
 7966TIP3    H123843   7.458   5.011   2.626
 7966TIP3    H223844   7.388   5.136   2.576
 7967TIP3   OH223845   7.120   4.732   2.772
 7967TIP3    H123846   7.056   4.774   2.830
 7967TIP3    H223847   7.135   4.797   2.703
 7968TIP3   OH223848   8.277   4.385   3.669
 7968TIP3    H123849   8.356   4.413   3.713
 7968TIP3    H223850   8.251   4.305   3.714
 7969TIP3   OH223851   8.131   4.131   2.840
 7969TIP3    H123852   8.132   4.141   2.745
 7969TIP3    H223853   8.178   4.208   2.873
 7970TIP3   OH223854   7.652   5.235   2.516
 7970TIP3    H123855   7.567   5.258   2.554
 7970TIP3    H223856   7.672   5.308   2.457
 7971TIP3   OH223857   7.836   4.304   2.933
 7971TIP3    H123858   7.901   4.372   2.916
 7971TIP3    H223859   7.839   4.290   3.027
 7972TIP3   OH223860   8.110   4.615   3.737
 7972TIP3    H123861   8.137   4.668   3.812
 7972TIP3    H223862   8.168   4.539   3.740
 7973TIP3   OH223863   7.978   4.012   3.030
 7973TIP3    H123864   8.003   4.061   3.109
 7973TIP3    H223865   8.031   4.052   2.961
 7974TIP3   OH223866   7.398   5.314   2.587
 7974TIP3    H123867   7.369   5.381   2.525
 7974TIP3    H223868   7.383   5.353   2.673
 7975TIP3   OH223869   7.499   4.028   2.824
 7975TIP3    H123870   7.492   4.116   2.861
 7975TIP3    H223871   7.593   4.007   2.829
 7976TIP3   OH223872   8.395   4.693   3.143
 7976TIP3    H123873   8.311   4.659   3.111
 7976TIP3    H223874   8.405   4.656   3.230
 7977TIP3   OH223875   7.119   4.937   2.574
 7977TIP3    H123876   7.187   5.003   2.587
 7977TIP3    H223877   7.156   4.877   2.509
 7978TIP3   OH223878   7.055   4.217   2.710
 7978TIP3    H123879   7.060   4.312   2.711
 7978TIP3    H223880   6.971   4.198   2.669
 7979TIP3   OH223881   8.380   5.673   3.050
 7979TIP3    H123882   8.333   5.716   2.978
 7979TIP3    H223883   8.473   5.686   3.030
 7980TIP3   OH223884   7.446   3.934   3.580
 7980TIP3    H123885   7.416   3.904   3.495
 7980TIP3    H223886   7.435   3.859   3.638
 7981TIP3   OH223887   6.984   5.163   2.960
 7981TIP3    H123888   6.921   5.186   3.028
 7981TIP3    H223889   6.949   5.202   2.880
 7982TIP3   OH223890   7.148   5.702   4.037
 7982TIP3    H123891   7.231   5.710   4.084
 7982TIP3    H223892   7.130   5.608   4.035
 7983TIP3   OH223893   7.618   5.655   4.081
 7983TIP3    H123894   7.712   5.642   4.094
 7983TIP3    H223895   7.596   5.595   4.009
 7984TIP3   OH223896   7.603   5.233   2.206
 7984TIP3    H123897   7.549   5.164   2.244
 7984TIP3    H223898   7.680   5.187   2.173
 7985TIP3   OH223899   8.287   5.592   3.777
 7985TIP3    H123900   8.256   5.515   3.825
 7985TIP3    H223901   8.339   5.641   3.840
 7986TIP3   OH223902   8.033   5.277   2.117
 7986TIP3    H123903   8.075   5.217   2.178
 7986TIP3    H223904   8.087   5.272   2.038
 7987TIP3   OH223905   7.272   5.103   4.236
 7987TIP3    H123906   7.288   5.009   4.243
 7987TIP3    H223907   7.187   5.109   4.192
 7988TIP3   OH223908   7.254   4.751   2.432
 7988TIP3    H123909   7.306   4.720   2.506
 7988TIP3    H223910   7.316   4.756   2.359
 7989TIP3   OH223911   7.854   5.170   4.010
 7989TIP3    H123912   7.852   5.212   3.924
 7989TIP3    H223913   7.909   5.094   3.998
 7990TIP3   OH223914   7.761   4.951   2.241
 7990TIP3    H123915   7.764   4.965   2.335
 7990TIP3    H223916   7.766   4.856   2.231
 7991TIP3   OH223917   8.376   5.187   3.611
 7991TIP3    H123918   8.445   5.239   3.569
 7991TIP3    H223919   8.304   5.248   3.624
 7992TIP3   OH223920   7.393   4.836   4.225
 7992TIP3    H123921   7.473   4.799   4.189
 7992TIP3    H223922   7.419   4.870   4.311
 7993TIP3   OH223923   7.456   4.658   2.650
 7993TIP3    H123924   7.428   4.621   2.734
 7993TIP3    H223925   7.493   4.584   2.602
 7994TIP3   OH223926   7.723   4.717   3.875
 7994TIP3    H123927   7.650   4.779   3.881
 7994TIP3    H223928   7.777   4.750   3.803
 7995TIP3   OH223929   7.562   4.454   2.489
 7995TIP3    H123930   7.534   4.461   2.398
 7995TIP3    H223931   7.657   4.456   2.485
 7996TIP3   OH223932   7.850   4.512   4.002
 7996TIP3    H123933   7.853   4.435   3.945
 7996TIP3    H223934   7.809   4.580   3.948
 7997TIP3   OH223935   7.852   4.297   3.812
 7997TIP3    H123936   7.882   4.343   3.734
 7997TIP3    H223937   7.760   4.277   3.794
 7998TIP3   OH223938   7.876   4.830   3.686
 7998TIP3    H123939   7.964   4.847   3.652
 7998TIP3    H223940   7.821   4.896   3.644
 7999TIP3   OH223941   8.459   4.806   4.066
 7999TIP3    H123942   8.514   4.728   4.057
 7999TIP3    H223943   8.513   4.877   4.031
 8000TIP3   OH223944   0.026   5.057   3.800
 8000TIP3    H123945  -0.039   5.102   3.746
 8000TIP3    H223946   0.101   5.045   3.741
 8001TIP3   OH223947   7.728   4.614   4.238
 8001TIP3    H123948   7.655   4.552   4.242
 8001TIP3    H223949   7.766   4.601   4.151
 8002TIP3   OH223950   7.971   4.059   3.887
 8002TIP3    H123951   7.924   4.139   3.863
 8002TIP3    H223952   7.906   3.989   3.874
 8003TIP3   OH223953   8.114   4.557   4.095
 8003TIP3    H123954   8.104   4.553   4.191
 8003TIP3    H223955   8.026   4.539   4.062
 8004TIP3   OH223956   8.352   4.505   3.945
 8004TIP3    H123957   8.274   4.518   3.999
 8004TIP3    H223958   8.417   4.469   4.006
 8005TIP3   OH223959   0.049   4.417   4.116
 8005TIP3    H123960   0.107   4.346   4.143
 8005TIP3    H223961   0.057   4.483   4.185
 8006TIP3   OH223962   7.561   4.397   4.285
 8006TIP3    H123963   7.569   4.308   4.251
 8006TIP3    H223964   7.616   4.398   4.364
 8007TIP3   OH223965   8.076   4.067   4.140
 8007TIP3    H123966   8.133   3.991   4.138
 8007TIP3    H223967   8.035   4.068   4.053
 8008TIP3   OH223968   8.142   4.284   4.300
 8008TIP3    H123969   8.124   4.216   4.235
 8008TIP3    H223970   8.069   4.345   4.292
 8009TIP3   OH223971   7.370   5.518   2.398
 8009TIP3    H123972   7.464   5.504   2.384
 8009TIP3    H223973   7.341   5.566   2.321
 8010TIP3   OH223974   6.847   4.898   2.607
 8010TIP3    H123975   6.940   4.919   2.598
 8010TIP3    H223976   6.839   4.810   2.570
 8011TIP3   OH223977   6.763   5.504   3.030
 8011TIP3    H123978   6.699   5.445   2.989
 8011TIP3    H223979   6.808   5.450   3.094
 8012TIP3   OH223980   6.897   5.353   3.220
 8012TIP3    H123981   6.884   5.281   3.281
 8012TIP3    H223982   6.949   5.417   3.269
 8013TIP3   OH223983   0.202   5.743   3.297
 8013TIP3    H123984   0.149   5.664   3.286
 8013TIP3    H223985   0.170   5.782   3.378
 8014TIP3   OH223986   8.531   5.524   3.316
 8014TIP3    H123987   8.467   5.571   3.370
 8014TIP3    H223988   8.477   5.476   3.252
 8015TIP3   OH223989   8.436   4.660   2.835
 8015TIP3    H123990   8.523   4.619   2.841
 8015TIP3    H223991   8.426   4.707   2.918
 8016TIP3   OH223992   7.085   4.763   3.588
 8016TIP3    H123993   7.078   4.731   3.498
 8016TIP3    H223994   7.179   4.767   3.605
 8017TIP3   OH223995   7.294   4.443   4.256
 8017TIP3    H123996   7.389   4.444   4.256
 8017TIP3    H223997   7.271   4.360   4.298
 8018TIP3   OH223998   7.265   4.145   3.594
 8018TIP3    H123999   7.325   4.070   3.600
 8018TIP3    H224000   7.323   4.221   3.584
 8019TIP3   OH224001   7.067   4.417   3.663
 8019TIP3    H124002   7.114   4.414   3.579
 8019TIP3    H224003   7.091   4.502   3.701
 8020TIP3   OH224004   7.047   3.919   3.162
 8020TIP3    H124005   6.957   3.915   3.193
 8020TIP3    H224006   7.044   3.978   3.087
 8021TIP3   OH224007   8.206   5.628   2.671
 8021TIP3    H124008   8.253   5.618   2.588
 8021TIP3    H224009   8.257   5.693   2.720
 8022TIP3   OH224010   7.267   4.000   3.978
 8022TIP3    H124011   7.218   3.997   4.060
 8022TIP3    H224012   7.206   4.040   3.916
 8023TIP3   OH224013   7.306   5.429   4.052
 8023TIP3    H124014   7.213   5.406   4.042
 8023TIP3    H224015   7.324   5.417   4.145
 8024TIP3   OH224016   7.489   5.463   3.598
 8024TIP3    H124017   7.442   5.539   3.562
 8024TIP3    H224018   7.577   5.470   3.561
 8025TIP3   OH224019   7.932   5.708   3.744
 8025TIP3    H124020   7.973   5.701   3.830
 8025TIP3    H224021   7.994   5.759   3.692
 8026TIP3   OH224022   8.110   5.862   3.602
 8026TIP3    H124023   8.179   5.803   3.570
 8026TIP3    H224024   8.155   5.920   3.663
 8027TIP3   OH224025   7.172   5.715   3.638
 8027TIP3    H124026   7.092   5.758   3.610
 8027TIP3    H224027   7.198   5.762   3.718
 8028TIP3   OH224028   7.401   5.693   3.483
 8028TIP3    H124029   7.319   5.706   3.530
 8028TIP3    H224030   7.385   5.729   3.395
 8029TIP3   OH224031   7.825   5.728   3.282
 8029TIP3    H124032   7.754   5.747   3.221
 8029TIP3    H224033   7.838   5.810   3.330
 8030TIP3   OH224034   8.092   5.661   3.329
 8030TIP3    H124035   8.000   5.681   3.315
 8030TIP3    H224036   8.138   5.740   3.301
 8031TIP3   OH224037   8.283   5.848   3.245
 8031TIP3    H124038   8.281   5.936   3.208
 8031TIP3    H224039   8.312   5.792   3.173
 8032TIP3   OH224040   7.078   5.509   3.380
 8032TIP3    H124041   7.103   5.481   3.468
 8032TIP3    H224042   7.144   5.469   3.322
 8033TIP3   OH224043   7.270   5.387   3.234
 8033TIP3    H124044   7.281   5.304   3.280
 8033TIP3    H224045   7.359   5.424   3.231
 8034TIP3   OH224046   7.539   5.474   3.240
 8034TIP3    H124047   7.565   5.383   3.228
 8034TIP3    H224048   7.585   5.503   3.319
 8035TIP3   OH224049   8.064   4.099   3.280
 8035TIP3    H124050   8.048   4.048   3.359
 8035TIP3    H224051   8.159   4.096   3.268
 8036TIP3   OH224052   7.357   3.840   3.334
 8036TIP3    H124053   7.265   3.812   3.338
 8036TIP3    H224054   7.407   3.758   3.329
 8037TIP3   OH224055   7.150   3.717   2.986
 8037TIP3    H124056   7.177   3.771   2.912
 8037TIP3    H224057   7.120   3.779   3.052
 8038TIP3   OH224058   7.807   3.873   3.217
 8038TIP3    H124059   7.856   3.918   3.148
 8038TIP3    H224060   7.831   3.918   3.298
 8039TIP3   OH224061   8.317   4.002   3.198
 8039TIP3    H124062   8.338   3.985   3.106
 8039TIP3    H224063   8.313   3.916   3.238
 8040TIP3   OH224064   6.860   5.290   2.757
 8040TIP3    H124065   6.776   5.252   2.728
 8040TIP3    H224066   6.854   5.382   2.734
 8041TIP3   OH224067   7.267   3.871   2.746
 8041TIP3    H124068   7.313   3.809   2.689
 8041TIP3    H224069   7.337   3.926   2.782
 8042TIP3   OH224070   7.776   4.052   2.847
 8042TIP3    H124071   7.835   4.005   2.905
 8042TIP3    H224072   7.791   4.145   2.867
 8043TIP3   OH224073   7.637   5.467   2.344
 8043TIP3    H124074   7.723   5.494   2.312
 8043TIP3    H224075   7.611   5.395   2.287
 8044TIP3   OH224076   8.340   5.598   2.438
 8044TIP3    H124077   8.339   5.502   2.432
 8044TIP3    H224078   8.314   5.628   2.351
 8045TIP3   OH224079   7.566   4.120   4.230
 8045TIP3    H124080   7.527   4.049   4.281
 8045TIP3    H224081   7.658   4.121   4.256
 8046TIP3   OH224082   7.809   4.127   4.356
 8046TIP3    H124083   7.893   4.115   4.311
 8046TIP3    H224084   7.805   4.057   4.420
 8047TIP3   OH224085   6.941   5.308   2.400
 8047TIP3    H124086   6.941   5.325   2.494
 8047TIP3    H224087   7.025   5.266   2.383
 8048TIP3   OH224088   0.067   5.736   3.638
 8048TIP3    H124089  -0.005   5.702   3.585
 8048TIP3    H224090   0.054   5.831   3.637
 8049TIP3   OH224091   0.501   5.642   4.592
 8049TIP3    H124092   0.468   5.732   4.595
 8049TIP3    H224093   0.435   5.594   4.542
 8050TIP3   OH224094   0.524   5.623   4.963
 8050TIP3    H124095   0.543   5.603   5.055
 8050TIP3    H224096   0.468   5.551   4.934
 8051TIP3   OH224097   0.748   5.944   4.661
 8051TIP3    H124098   0.734   5.876   4.727
 8051TIP3    H224099   0.776   6.020   4.711
 8052TIP3   OH224100   0.446   6.427   4.661
 8052TIP3    H124101   0.495   6.348   4.639
 8052TIP3    H224102   0.377   6.398   4.721
 8053TIP3   OH224103   0.329   5.827   5.044
 8053TIP3    H124104   0.356   5.762   4.980
 8053TIP3    H224105   0.408   5.880   5.059
 8054TIP3   OH224106   1.321   5.185   5.021
 8054TIP3    H124107   1.347   5.268   5.060
 8054TIP3    H224108   1.343   5.195   4.928
 8055TIP3   OH224109   0.709   5.361   5.057
 8055TIP3    H124110   0.754   5.279   5.076
 8055TIP3    H224111   0.680   5.352   4.966
 8056TIP3   OH224112   0.750   5.121   4.641
 8056TIP3    H124113   0.817   5.106   4.707
 8056TIP3    H224114   0.798   5.154   4.565
 8057TIP3   OH224115   1.387   5.394   5.205
 8057TIP3    H124116   1.308   5.441   5.179
 8057TIP3    H224117   1.424   5.446   5.276
 8058TIP3   OH224118   0.370   5.871   4.474
 8058TIP3    H124119   0.350   5.829   4.390
 8058TIP3    H224120   0.445   5.928   4.455
 8059TIP3   OH224121   0.953   5.124   4.820
 8059TIP3    H124122   0.942   5.076   4.902
 8059TIP3    H224123   1.005   5.201   4.844
 8060TIP3   OH224124   0.810   6.187   4.820
 8060TIP3    H124125   0.724   6.177   4.861
 8060TIP3    H224126   0.807   6.273   4.780
 8061TIP3   OH224127   1.106   5.084   5.181
 8061TIP3    H124128   1.019   5.110   5.150
 8061TIP3    H224129   1.166   5.117   5.114
 8062TIP3   OH224130   0.407   4.716   5.160
 8062TIP3    H124131   0.399   4.622   5.177
 8062TIP3    H224132   0.364   4.758   5.235
 8063TIP3   OH224133   0.513   6.211   4.480
 8063TIP3    H124134   0.557   6.128   4.462
 8063TIP3    H224135   0.575   6.277   4.449
 8064TIP3   OH224136   0.634   5.978   4.411
 8064TIP3    H124137   0.667   5.917   4.345
 8064TIP3    H224138   0.686   5.961   4.489
 8065TIP3   OH224139   1.038   6.097   5.166
 8065TIP3    H124140   1.027   6.020   5.109
 8065TIP3    H224141   1.021   6.172   5.109
 8066TIP3   OH224142   0.334   5.507   4.428
 8066TIP3    H124143   0.255   5.457   4.447
 8066TIP3    H224144   0.355   5.486   4.337
 8067TIP3   OH224145   0.314   5.280   4.143
 8067TIP3    H124146   0.384   5.335   4.179
 8067TIP3    H224147   0.360   5.214   4.090
 8068TIP3   OH224148   1.234   5.736   5.012
 8068TIP3    H124149   1.152   5.785   5.019
 8068TIP3    H224150   1.268   5.758   4.926
 8069TIP3   OH224151   0.683   5.575   4.398
 8069TIP3    H124152   0.629   5.597   4.474
 8069TIP3    H224153   0.767   5.548   4.436
 8070TIP3   OH224154   0.914   5.614   5.314
 8070TIP3    H124155   0.915   5.694   5.366
 8070TIP3    H224156   0.832   5.618   5.266
 8071TIP3   OH224157   0.572   6.182   4.941
 8071TIP3    H124158   0.552   6.264   4.986
 8071TIP3    H224159   0.557   6.114   5.006
 8072TIP3   OH224160   0.524   5.432   4.224
 8072TIP3    H124161   0.576   5.491   4.278
 8072TIP3    H224162   0.549   5.454   4.134
 8073TIP3   OH224163   1.035   4.673   4.273
 8073TIP3    H124164   0.955   4.695   4.321
 8073TIP3    H224165   1.054   4.752   4.221
 8074TIP3   OH224166   0.841   6.043   3.825
 8074TIP3    H124167   0.846   6.136   3.804
 8074TIP3    H224168   0.930   6.010   3.810
 8075TIP3   OH224169   1.273   6.445   5.213
 8075TIP3    H124170   1.280   6.351   5.229
 8075TIP3    H224171   1.194   6.472   5.260
 8076TIP3   OH224172   0.351   6.263   3.938
 8076TIP3    H124173   0.409   6.193   3.906
 8076TIP3    H224174   0.367   6.266   4.032
 8077TIP3   OH224175   0.395   6.311   4.220
 8077TIP3    H124176   0.330   6.313   4.290
 8077TIP3    H224177   0.477   6.288   4.265
 8078TIP3   OH224178   1.168   5.564   5.490
 8078TIP3    H124179   1.086   5.584   5.444
 8078TIP3    H224180   1.175   5.468   5.487
 8079TIP3   OH224181   0.708   4.919   5.493
 8079TIP3    H124182   0.776   4.891   5.554
 8079TIP3    H224183   0.626   4.902   5.539
 8080TIP3   OH224184   0.942   5.352   5.416
 8080TIP3    H124185   0.890   5.346   5.496
 8080TIP3    H224186   0.916   5.436   5.377
 8081TIP3   OH224187   0.604   5.486   3.975
 8081TIP3    H124188   0.558   5.462   3.894
 8081TIP3    H224189   0.688   5.520   3.946
 8082TIP3   OH224190   0.294   4.856   4.250
 8082TIP3    H124191   0.284   4.858   4.345
 8082TIP3    H224192   0.269   4.767   4.225
 8083TIP3   OH224193   0.474   5.299   4.561
 8083TIP3    H124194   0.423   5.371   4.523
 8083TIP3    H224195   0.524   5.263   4.487
 8084TIP3   OH224196   0.672   5.556   5.634
 8084TIP3    H124197   0.643   5.487   5.694
 8084TIP3    H224198   0.764   5.572   5.658
 8085TIP3   OH224199   0.623   5.317   4.796
 8085TIP3    H124200   0.563   5.350   4.730
 8085TIP3    H224201   0.662   5.239   4.756
 8086TIP3   OH224202   0.633   5.561   5.222
 8086TIP3    H124203   0.669   5.498   5.160
 8086TIP3    H224204   0.605   5.508   5.297
 8087TIP3   OH224205   0.314   5.017   4.884
 8087TIP3    H124206   0.227   5.052   4.902
 8087TIP3    H224207   0.365   5.042   4.962
 8088TIP3   OH224208   0.799   5.102   5.102
 8088TIP3    H124209   0.766   5.119   5.190
 8088TIP3    H224210   0.735   5.041   5.064
 8089TIP3   OH224211   0.975   6.795   5.314
 8089TIP3    H124212   0.973   6.812   5.220
 8089TIP3    H224213   1.057   6.834   5.344
 8090TIP3   OH224214   0.402   5.339   4.988
 8090TIP3    H124215   0.477   5.318   4.933
 8090TIP3    H224216   0.426   5.304   5.074
 8091TIP3   OH224217   0.394   5.241   5.282
 8091TIP3    H124218   0.328   5.310   5.271
 8091TIP3    H224219   0.466   5.283   5.329
 8092TIP3   OH224220   1.001   5.880   4.999
 8092TIP3    H124221   1.027   5.931   4.922
 8092TIP3    H224222   0.920   5.838   4.974
 8093TIP3   OH224223   0.555   4.951   4.250
 8093TIP3    H124224   0.460   4.939   4.246
 8093TIP3    H224225   0.567   5.045   4.268
 8094TIP3   OH224226   0.489   5.966   5.371
 8094TIP3    H124227   0.528   5.966   5.458
 8094TIP3    H224228   0.437   6.046   5.367
 8095TIP3   OH224229   0.630   5.205   4.344
 8095TIP3    H124230   0.724   5.209   4.358
 8095TIP3    H224231   0.611   5.282   4.290
 8096TIP3   OH224232   0.237   5.797   4.219
 8096TIP3    H124233   0.174   5.868   4.206
 8096TIP3    H224234   0.186   5.726   4.259
 8097TIP3   OH224235   0.458   5.681   5.744
 8097TIP3    H124236   0.391   5.634   5.693
 8097TIP3    H224237   0.540   5.660   5.700
 8098TIP3   OH224238   0.663   6.217   5.266
 8098TIP3    H124239   0.568   6.223   5.277
 8098TIP3    H224240   0.699   6.267   5.339
 8099TIP3   OH224241   1.066   5.300   4.174
 8099TIP3    H124242   1.008   5.252   4.116
 8099TIP3    H224243   1.068   5.389   4.139
 8100TIP3   OH224244   1.287   6.152   5.254
 8100TIP3    H124245   1.192   6.149   5.248
 8100TIP3    H224246   1.317   6.124   5.167
 8101TIP3   OH224247   0.776   6.111   4.087
 8101TIP3    H124248   0.744   6.035   4.136
 8101TIP3    H224249   0.788   6.078   3.998
 8102TIP3   OH224250   0.774   5.740   4.914
 8102TIP3    H124251   0.682   5.718   4.930
 8102TIP3    H224252   0.810   5.664   4.870
 8103TIP3   OH224253   0.568   5.945   5.107
 8103TIP3    H124254   0.552   5.955   5.201
 8103TIP3    H224255   0.655   5.905   5.102
 8104TIP3   OH224256   0.535   5.846   3.985
 8104TIP3    H124257   0.576   5.821   4.068
 8104TIP3    H224258   0.448   5.806   3.988
 8105TIP3   OH224259   0.800   6.477   5.148
 8105TIP3    H124260   0.722   6.422   5.146
 8105TIP3    H224261   0.785   6.544   5.082
 8106TIP3   OH224262   0.868   6.318   3.803
 8106TIP3    H124263   0.905   6.388   3.749
 8106TIP3    H224264   0.788   6.356   3.840
 8107TIP3   OH224265   0.698   5.785   4.220
 8107TIP3    H124266   0.681   5.710   4.277
 8107TIP3    H224267   0.789   5.776   4.193
 8108TIP3   OH224268   0.726   5.160   5.362
 8108TIP3    H124269   0.809   5.195   5.395
 8108TIP3    H224270   0.715   5.078   5.410
 8109TIP3   OH224271   0.613   4.901   4.525
 8109TIP3    H124272   0.590   4.919   4.434
 8109TIP3    H224273   0.647   4.984   4.558
 8110TIP3   OH224274   0.294   5.096   4.620
 8110TIP3    H124275   0.357   5.167   4.607
 8110TIP3    H224276   0.295   5.082   4.715
 8111TIP3   OH224277   0.574   5.396   5.428
 8111TIP3    H124278   0.601   5.453   5.500
 8111TIP3    H224279   0.629   5.318   5.436
 8112TIP3   OH224280   0.445   4.809   4.734
 8112TIP3    H124281   0.418   4.888   4.781
 8112TIP3    H224282   0.499   4.842   4.662
 8113TIP3   OH224283   1.202   5.274   5.408
 8113TIP3    H124284   1.108   5.284   5.420
 8113TIP3    H224285   1.216   5.284   5.314
 8114TIP3   OH224286   0.855   5.496   4.798
 8114TIP3    H124287   0.778   5.442   4.809
 8114TIP3    H224288   0.924   5.450   4.845
 8115TIP3   OH224289   0.826   6.455   4.745
 8115TIP3    H124290   0.781   6.501   4.675
 8115TIP3    H224291   0.919   6.472   4.729
 8116TIP3   OH224292   0.733   6.348   5.492
 8116TIP3    H124293   0.709   6.295   5.568
 8116TIP3    H224294   0.796   6.411   5.526
 8117TIP3   OH224295   0.499   6.065   3.814
 8117TIP3    H124296   0.533   5.996   3.870
 8117TIP3    H224297   0.549   6.058   3.733
 8118TIP3   OH224298   0.238   5.747   3.936
 8118TIP3    H124299   0.228   5.752   4.031
 8118TIP3    H224300   0.235   5.653   3.917
 8119TIP3   OH224301   0.822   5.991   5.305
 8119TIP3    H124302   0.901   6.028   5.265
 8119TIP3    H224303   0.755   6.058   5.293
 8120TIP3   OH224304   0.052   5.253   4.236
 8120TIP3    H124305   0.025   5.246   4.144
 8120TIP3    H224306   0.148   5.256   4.232
 8121TIP3   OH224307   0.689   5.913   5.713
 8121TIP3    H124308   0.763   5.888   5.657
 8121TIP3    H224309   0.689   5.849   5.784
 8122TIP3   OH224310   0.831   5.570   3.848
 8122TIP3    H124311   0.814   5.523   3.766
 8122TIP3    H224312   0.801   5.659   3.830
 8123TIP3   OH224313   0.265   5.038   5.422
 8123TIP3    H124314   0.318   5.098   5.369
 8123TIP3    H224315   0.228   5.093   5.491
 8124TIP3   OH224316   0.388   5.685   5.322
 8124TIP3    H124317   0.480   5.666   5.299
 8124TIP3    H224318   0.369   5.768   5.279
 8125TIP3   OH224319   0.920   5.584   5.751
 8125TIP3    H124320   0.972   5.508   5.776
 8125TIP3    H224321   0.984   5.647   5.718
 8126TIP3   OH224322   0.956   5.841   5.487
 8126TIP3    H124323   0.896   5.894   5.434
 8126TIP3    H224324   1.043   5.863   5.453
 8127TIP3   OH224325   0.446   4.850   5.558
 8127TIP3    H124326   0.386   4.920   5.530
 8127TIP3    H224327   0.394   4.770   5.548
 8128TIP3   OH224328   0.575   5.354   5.795
 8128TIP3    H124329   0.607   5.353   5.886
 8128TIP3    H224330   0.488   5.314   5.800
 8129TIP3   OH224331   0.806   5.291   5.643
 8129TIP3    H124332   0.732   5.296   5.703
 8129TIP3    H224333   0.881   5.267   5.698
 8130TIP3   OH224334   1.037   5.241   5.795
 8130TIP3    H124335   1.037   5.148   5.816
 8130TIP3    H224336   1.026   5.285   5.880
 8131TIP3   OH224337   0.540   4.860   5.820
 8131TIP3    H124338   0.601   4.786   5.820
 8131TIP3    H224339   0.499   4.856   5.734
 8132TIP3   OH224340   0.613   5.070   5.975
 8132TIP3    H124341   0.596   4.994   5.919
 8132TIP3    H224342   0.528   5.115   5.981
 8133TIP3   OH224343   1.081   6.544   4.709
 8133TIP3    H124344   1.107   6.572   4.796
 8133TIP3    H224345   1.144   6.586   4.650
 8134TIP3   OH224346   1.113   6.562   4.990
 8134TIP3    H124347   1.059   6.484   4.980
 8134TIP3    H224348   1.181   6.537   5.053
 8135TIP3   OH224349   1.157   6.246   5.559
 8135TIP3    H124350   1.086   6.254   5.623
 8135TIP3    H224351   1.203   6.330   5.564
 8136TIP3   OH224352   0.970   5.757   4.181
 8136TIP3    H124353   1.033   5.821   4.147
 8136TIP3    H224354   1.014   5.718   4.256
 8137TIP3   OH224355   1.097   5.625   4.385
 8137TIP3    H124356   1.032   5.582   4.441
 8137TIP3    H224357   1.162   5.659   4.446
 8138TIP3   OH224358   1.154   6.017   4.813
 8138TIP3    H124359   1.204   5.949   4.768
 8138TIP3    H224360   1.149   6.089   4.750
 8139TIP3   OH224361   0.979   6.318   5.007
 8139TIP3    H124362   0.911   6.361   5.059
 8139TIP3    H224363   0.931   6.272   4.938
 8140TIP3   OH224364   1.032   5.534   4.030
 8140TIP3    H124365   0.965   5.531   3.961
 8140TIP3    H224366   1.006   5.608   4.085
 8141TIP3   OH224367   0.902   5.205   3.982
 8141TIP3    H124368   0.860   5.242   3.904
 8141TIP3    H224369   0.882   5.111   3.976
 8142TIP3   OH224370   0.909   5.481   4.529
 8142TIP3    H124371   0.917   5.387   4.518
 8142TIP3    H224372   0.895   5.493   4.623
 8143TIP3   OH224373   1.201   5.907   5.385
 8143TIP3    H124374   1.271   5.842   5.374
 8143TIP3    H224375   1.225   5.978   5.325
 8144TIP3   OH224376   1.379   5.703   5.394
 8144TIP3    H124377   1.307   5.656   5.436
 8144TIP3    H224378   1.455   5.647   5.410
 8145TIP3   OH224379   0.847   4.940   3.973
 8145TIP3    H124380   0.920   4.906   4.024
 8145TIP3    H224381   0.776   4.878   3.988
 8146TIP3   OH224382   0.910   5.198   4.420
 8146TIP3    H124383   0.947   5.111   4.437
 8146TIP3    H224384   0.963   5.233   4.349
 8147TIP3   OH224385   1.070   5.369   4.922
 8147TIP3    H124386   1.151   5.390   4.877
 8147TIP3    H224387   1.080   5.406   5.009
 8148TIP3   OH224388   1.139   5.516   5.152
 8148TIP3    H124389   1.062   5.549   5.199
 8148TIP3    H224390   1.173   5.593   5.105
 8149TIP3   OH224391   1.592   5.035   5.637
 8149TIP3    H124392   1.665   5.039   5.699
 8149TIP3    H224393   1.563   5.126   5.627
 8150TIP3   OH224394   1.015   4.947   4.464
 8150TIP3    H124395   1.063   4.932   4.544
 8150TIP3    H224396   0.954   4.873   4.458
 8151TIP3   OH224397   1.450   5.245   5.533
 8151TIP3    H124398   1.381   5.295   5.577
 8151TIP3    H224399   1.415   5.227   5.446
 8152TIP3   OH224400   1.095   4.877   4.096
 8152TIP3    H124401   1.132   4.809   4.039
 8152TIP3    H224402   1.159   4.948   4.092
 8153TIP3   OH224403   0.664   6.399   4.361
 8153TIP3    H124404   0.715   6.397   4.280
 8153TIP3    H224405   0.697   6.475   4.409
 8154TIP3   OH224406   0.576   6.650   5.295
 8154TIP3    H124407   0.635   6.581   5.267
 8154TIP3    H224408   0.629   6.706   5.352
 8155TIP3   OH224409   1.346   4.966   5.412
 8155TIP3    H124410   1.278   5.034   5.415
 8155TIP3    H224411   1.309   4.898   5.356
 8156TIP3   OH224412   0.537   6.457   5.033
 8156TIP3    H124413   0.453   6.477   5.073
 8156TIP3    H224414   0.561   6.536   4.986
 8157TIP3   OH224415   0.772   6.651   4.937
 8157TIP3    H124416   0.742   6.728   4.889
 8157TIP3    H224417   0.782   6.584   4.869
 8158TIP3   OH224418   0.582   4.924   5.027
 8158TIP3    H124419   0.525   4.852   5.054
 8158TIP3    H224420   0.643   4.885   4.965
 8159TIP3   OH224421   1.081   4.809   4.916
 8159TIP3    H124422   1.119   4.855   4.841
 8159TIP3    H224423   0.987   4.824   4.908
 8160TIP3   OH224424   1.181   4.901   4.678
 8160TIP3    H124425   1.251   4.847   4.641
 8160TIP3    H224426   1.211   4.991   4.665
 8161TIP3   OH224427   0.279   4.656   4.911
 8161TIP3    H124428   0.318   4.707   4.840
 8161TIP3    H224429   0.317   4.693   4.990
 8162TIP3   OH224430   0.800   4.808   4.888
 8162TIP3    H124431   0.799   4.772   4.799
 8162TIP3    H224432   0.787   4.732   4.945
 8163TIP3   OH224433   0.830   4.736   4.454
 8163TIP3    H124434   0.749   4.785   4.470
 8163TIP3    H224435   0.815   4.651   4.497
 8164TIP3   OH224436   0.270   4.843   4.517
 8164TIP3    H124437   0.290   4.798   4.599
 8164TIP3    H224438   0.261   4.935   4.541
 8165TIP3   OH224439   0.807   6.379   4.128
 8165TIP3    H124440   0.801   6.284   4.118
 8165TIP3    H224441   0.763   6.414   4.050
 8166TIP3   OH224442   1.089   4.968   5.834
 8166TIP3    H124443   1.086   4.937   5.925
 8166TIP3    H224444   1.181   4.966   5.811
 8167TIP3   OH224445   1.028   6.525   5.312
 8167TIP3    H124446   0.952   6.490   5.265
 8167TIP3    H224447   1.008   6.617   5.325
 8168TIP3   OH224448   2.298   5.899   4.077
 8168TIP3    H124449   2.269   5.988   4.058
 8168TIP3    H224450   2.226   5.844   4.046
 8169TIP3   OH224451   2.297   5.897   4.469
 8169TIP3    H124452   2.334   5.874   4.554
 8169TIP3    H224453   2.258   5.816   4.437
 8170TIP3   OH224454   1.596   5.790   4.831
 8170TIP3    H124455   1.623   5.721   4.892
 8170TIP3    H224456   1.674   5.843   4.819
 8171TIP3   OH224457   2.543   6.202   4.148
 8171TIP3    H124458   2.528   6.130   4.209
 8171TIP3    H224459   2.574   6.274   4.202
 8172TIP3   OH224460   1.571   6.200   4.550
 8172TIP3    H124461   1.559   6.105   4.550
 8172TIP3    H224462   1.666   6.213   4.546
 8173TIP3   OH224463   1.271   5.401   4.333
 8173TIP3    H124464   1.228   5.484   4.352
 8173TIP3    H224465   1.205   5.349   4.288
 8174TIP3   OH224466   1.334   5.689   4.514
 8174TIP3    H124467   1.381   5.613   4.547
 8174TIP3    H224468   1.392   5.726   4.448
 8175TIP3   OH224469   2.197   6.660   4.164
 8175TIP3    H124470   2.237   6.592   4.110
 8175TIP3    H224471   2.186   6.619   4.250
 8176TIP3   OH224472   2.099   6.123   4.511
 8176TIP3    H124473   2.135   6.044   4.469
 8176TIP3    H224474   2.177   6.173   4.537
 8177TIP3   OH224475   3.109   5.447   4.504
 8177TIP3    H124476   3.140   5.525   4.549
 8177TIP3    H224477   3.137   5.457   4.413
 8178TIP3   OH224478   2.508   5.621   4.539
 8178TIP3    H124479   2.552   5.540   4.563
 8178TIP3    H224480   2.477   5.606   4.450
 8179TIP3   OH224481   1.848   5.283   4.505
 8179TIP3    H124482   1.832   5.356   4.445
 8179TIP3    H224483   1.803   5.208   4.464
 8180TIP3   OH224484   2.547   5.376   4.127
 8180TIP3    H124485   2.613   5.360   4.195
 8180TIP3    H224486   2.597   5.409   4.052
 8181TIP3   OH224487   1.482   5.481   4.615
 8181TIP3    H124488   1.563   5.466   4.664
 8181TIP3    H224489   1.493   5.429   4.535
 8182TIP3   OH224490   1.921   5.680   4.413
 8182TIP3    H124491   2.014   5.659   4.423
 8182TIP3    H224492   1.882   5.599   4.379
 8183TIP3   OH224493   3.183   5.652   4.677
 8183TIP3    H124494   3.099   5.694   4.658
 8183TIP3    H224495   3.200   5.674   4.769
 8184TIP3   OH224496   1.840   5.267   4.943
 8184TIP3    H124497   1.786   5.302   4.871
 8184TIP3    H224498   1.790   5.287   5.022
 8185TIP3   OH224499   2.185   6.118   3.949
 8185TIP3    H124500   2.146   6.100   3.863
 8185TIP3    H224501   2.142   6.199   3.978
 8186TIP3   OH224502   1.950   6.044   4.732
 8186TIP3    H124503   1.891   6.110   4.770
 8186TIP3    H224504   1.994   6.090   4.661
 8187TIP3   OH224505   2.748   5.382   4.307
 8187TIP3    H124506   2.737   5.333   4.389
 8187TIP3    H224507   2.801   5.458   4.331
 8188TIP3   OH224508   1.718   5.382   4.724
 8188TIP3    H124509   1.776   5.454   4.750
 8188TIP3    H224510   1.763   5.340   4.650
 8189TIP3   OH224511   1.776   6.240   4.835
 8189TIP3    H124512   1.755   6.326   4.798
 8189TIP3    H224513   1.702   6.218   4.891
 8190TIP3   OH224514   1.167   5.929   4.069
 8190TIP3    H124515   1.129   5.952   3.985
 8190TIP3    H224516   1.201   6.012   4.104
 8191TIP3   OH224517   2.608   6.447   4.311
 8191TIP3    H124518   2.521   6.434   4.350
 8191TIP3    H224519   2.601   6.531   4.266
 8192TIP3   OH224520   2.902   5.350   4.670
 8192TIP3    H124521   2.815   5.375   4.637
 8192TIP3    H224522   2.962   5.381   4.602
 8193TIP3   OH224523   2.191   4.980   4.654
 8193TIP3    H124524   2.185   4.887   4.676
 8193TIP3    H224525   2.118   5.020   4.701
 8194TIP3   OH224526   2.311   6.488   3.978
 8194TIP3    H124527   2.356   6.405   3.965
 8194TIP3    H224528   2.370   6.554   3.942
 8195TIP3   OH224529   2.454   6.273   3.897
 8195TIP3    H124530   2.419   6.194   3.856
 8195TIP3    H224531   2.493   6.242   3.979
 8196TIP3   OH224532   2.836   6.354   4.652
 8196TIP3    H124533   2.824   6.276   4.597
 8196TIP3    H224534   2.820   6.428   4.593
 8197TIP3   OH224535   2.129   5.750   3.912
 8197TIP3    H124536   2.050   5.801   3.893
 8197TIP3    H224537   2.175   5.745   3.829
 8198TIP3   OH224538   2.089   5.536   3.624
 8198TIP3    H124539   2.153   5.588   3.673
 8198TIP3    H224540   2.143   5.472   3.577
 8199TIP3   OH224541   3.031   5.997   4.500
 8199TIP3    H124542   2.948   6.044   4.506
 8199TIP3    H224543   3.063   6.016   4.412
 8200TIP3   OH224544   2.479   5.832   3.884
 8200TIP3    H124545   2.423   5.855   3.959
 8200TIP3    H224546   2.562   5.806   3.923
 8201TIP3   OH224547   2.709   5.870   4.801
 8201TIP3    H124548   2.709   5.950   4.852
 8201TIP3    H224549   2.626   5.872   4.754
 8202TIP3   OH224550   1.711   5.826   4.301
 8202TIP3    H124551   1.668   5.770   4.236
 8202TIP3    H224552   1.785   5.774   4.332
 8203TIP3   OH224553   1.841   6.241   4.446
 8203TIP3    H124554   1.820   6.205   4.360
 8203TIP3    H224555   1.927   6.205   4.466
 8204TIP3   OH224556   1.842   5.801   4.654
 8204TIP3    H124557   1.876   5.773   4.569
 8204TIP3    H224558   1.887   5.884   4.672
 8205TIP3   OH224559   2.369   6.438   4.434
 8205TIP3    H124560   2.359   6.515   4.489
 8205TIP3    H224561   2.354   6.364   4.494
 8206TIP3   OH224562   1.981   6.357   4.979
 8206TIP3    H124563   1.925   6.416   5.029
 8206TIP3    H224564   1.920   6.302   4.930
 8207TIP3   OH224565   2.316   5.693   3.709
 8207TIP3    H124566   2.373   5.749   3.761
 8207TIP3    H224567   2.340   5.711   3.618
 8208TIP3   OH224568   1.738   5.912   5.087
 8208TIP3    H124569   1.746   5.999   5.126
 8208TIP3    H224570   1.645   5.889   5.096
 8209TIP3   OH224571   2.063   6.367   3.986
 8209TIP3    H124572   2.144   6.416   3.993
 8209TIP3    H224573   2.002   6.428   3.943
 8210TIP3   OH224574   1.774   6.522   5.068
 8210TIP3    H124575   1.739   6.520   4.979
 8210TIP3    H224576   1.700   6.500   5.124
 8211TIP3   OH224577   2.831   4.930   3.759
 8211TIP3    H124578   2.752   4.949   3.809
 8211TIP3    H224579   2.848   5.010   3.709
 8212TIP3   OH224580   1.573   5.672   4.105
 8212TIP3    H124581   1.507   5.716   4.051
 8212TIP3    H224582   1.542   5.582   4.115
 8213TIP3   OH224583   2.636   6.296   3.308
 8213TIP3    H124584   2.642   6.390   3.292
 8213TIP3    H224585   2.725   6.264   3.296
 8214TIP3   OH224586   1.356   6.055   5.011
 8214TIP3    H124587   1.290   6.033   4.946
 8214TIP3    H224588   1.395   5.971   5.035
 8215TIP3   OH224589   1.211   6.248   4.645
 8215TIP3    H124590   1.307   6.241   4.635
 8215TIP3    H224591   1.198   6.325   4.700
 8216TIP3   OH224592   3.071   6.700   4.702
 8216TIP3    H124593   3.075   6.606   4.715
 8216TIP3    H224594   2.991   6.727   4.747
 8217TIP3   OH224595   2.175   6.488   4.836
 8217TIP3    H124596   2.176   6.578   4.868
 8217TIP3    H224597   2.108   6.444   4.889
 8218TIP3   OH224598   1.944   6.614   3.787
 8218TIP3    H124599   1.897   6.594   3.707
 8218TIP3    H224600   1.910   6.699   3.815
 8219TIP3   OH224601   1.381   6.460   4.177
 8219TIP3    H124602   1.427   6.453   4.260
 8219TIP3    H224603   1.329   6.380   4.170
 8220TIP3   OH224604   2.145   6.515   3.427
 8220TIP3    H124605   2.200   6.446   3.391
 8220TIP3    H224606   2.177   6.527   3.516
 8221TIP3   OH224607   2.195   6.564   3.697
 8221TIP3    H124608   2.107   6.574   3.735
 8221TIP3    H224609   2.246   6.523   3.767
 8222TIP3   OH224610   2.962   5.827   4.976
 8222TIP3    H124611   2.880   5.839   4.928
 8222TIP3    H224612   2.982   5.734   4.968
 8223TIP3   OH224613   1.558   6.239   5.000
 8223TIP3    H124614   1.609   6.224   5.079
 8223TIP3    H224615   1.485   6.178   5.005
 8224TIP3   OH224616   1.956   5.061   4.788
 8224TIP3    H124617   1.871   5.029   4.757
 8224TIP3    H224618   1.935   5.141   4.836
 8225TIP3   OH224619   2.498   5.173   4.981
 8225TIP3    H124620   2.568   5.144   5.039
 8225TIP3    H224621   2.418   5.152   5.029
 8226TIP3   OH224622   2.729   5.606   4.899
 8226TIP3    H124623   2.681   5.602   4.982
 8226TIP3    H224624   2.707   5.692   4.863
 8227TIP3   OH224625   2.393   5.734   3.453
 8227TIP3    H124626   2.357   5.710   3.368
 8227TIP3    H224627   2.478   5.774   3.432
 8228TIP3   OH224628   2.102   5.107   3.760
 8228TIP3    H124629   2.071   5.107   3.850
 8228TIP3    H224630   2.066   5.027   3.721
 8229TIP3   OH224631   1.889   5.580   4.804
 8229TIP3    H124632   1.843   5.600   4.886
 8229TIP3    H224633   1.876   5.658   4.750
 8230TIP3   OH224634   1.773   5.462   4.317
 8230TIP3    H124635   1.683   5.438   4.338
 8230TIP3    H224636   1.789   5.424   4.231
 8231TIP3   OH224637   2.267   5.549   4.047
 8231TIP3    H124638   2.216   5.618   4.005
 8231TIP3    H224639   2.322   5.514   3.977
 8232TIP3   OH224640   2.443   5.822   5.132
 8232TIP3    H124641   2.418   5.752   5.192
 8232TIP3    H224642   2.535   5.839   5.152
 8233TIP3   OH224643   2.421   5.572   4.280
 8233TIP3    H124644   2.358   5.602   4.215
 8233TIP3    H224645   2.460   5.494   4.242
 8234TIP3   OH224646   1.709   5.608   5.015
 8234TIP3    H124647   1.747   5.672   5.075
 8234TIP3    H224648   1.704   5.527   5.066
 8235TIP3   OH224649   1.760   5.085   3.724
 8235TIP3    H124650   1.752   5.082   3.820
 8235TIP3    H224651   1.684   5.136   3.696
 8236TIP3   OH224652   1.305   5.123   4.599
 8236TIP3    H124653   1.379   5.158   4.649
 8236TIP3    H224654   1.343   5.097   4.515
 8237TIP3   OH224655   1.269   5.109   4.112
 8237TIP3    H124656   1.316   5.140   4.035
 8237TIP3    H224657   1.208   5.180   4.133
 8238TIP3   OH224658   2.431   5.818   4.706
 8238TIP3    H124659   2.465   5.752   4.646
 8238TIP3    H224660   2.402   5.768   4.782
 8239TIP3   OH224661   2.108   5.288   4.381
 8239TIP3    H124662   2.029   5.284   4.435
 8239TIP3    H224663   2.180   5.275   4.442
 8240TIP3   OH224664   1.536   5.340   4.386
 8240TIP3    H124665   1.445   5.348   4.358
 8240TIP3    H224666   1.561   5.251   4.363
 8241TIP3   OH224667   1.802   5.337   4.077
 8241TIP3    H124668   1.895   5.350   4.057
 8241TIP3    H224669   1.757   5.358   3.996
 8242TIP3   OH224670   2.594   5.362   4.585
 8242TIP3    H124671   2.564   5.376   4.676
 8242TIP3    H224672   2.530   5.301   4.548
 8243TIP3   OH224673   1.652   5.373   3.851
 8243TIP3    H124674   1.582   5.326   3.806
 8243TIP3    H224675   1.705   5.410   3.780
 8244TIP3   OH224676   2.770   7.052   4.802
 8244TIP3    H124677   2.766   7.072   4.709
 8244TIP3    H224678   2.849   7.095   4.833
 8245TIP3   OH224679   1.715   6.158   5.220
 8245TIP3    H124680   1.801   6.178   5.258
 8245TIP3    H224681   1.654   6.161   5.294
 8246TIP3   OH224682   2.186   5.615   4.478
 8246TIP3    H124683   2.257   5.577   4.427
 8246TIP3    H224684   2.191   5.571   4.562
 8247TIP3   OH224685   1.705   5.099   4.359
 8247TIP3    H124686   1.670   5.023   4.407
 8247TIP3    H224687   1.754   5.060   4.287
 8248TIP3   OH224688   2.162   5.514   4.767
 8248TIP3    H124689   2.074   5.550   4.781
 8248TIP3    H224690   2.219   5.573   4.815
 8249TIP3   OH224691   1.896   5.900   3.862
 8249TIP3    H124692   1.827   5.835   3.848
 8249TIP3    H224693   1.879   5.934   3.950
 8250TIP3   OH224694   2.796   6.138   4.486
 8250TIP3    H124695   2.821   6.187   4.408
 8250TIP3    H224696   2.714   6.094   4.462
 8251TIP3   OH224697   2.355   5.212   3.728
 8251TIP3    H124698   2.262   5.192   3.737
 8251TIP3    H224699   2.362   5.304   3.753
 8252TIP3   OH224700   2.299   6.222   4.861
 8252TIP3    H124701   2.327   6.200   4.950
 8252TIP3    H224702   2.257   6.308   4.870
 8253TIP3   OH224703   2.425   5.463   3.831
 8253TIP3    H124704   2.520   5.466   3.846
 8253TIP3    H224705   2.407   5.541   3.779
 8254TIP3   OH224706   1.593   5.923   4.534
 8254TIP3    H124707   1.629   5.897   4.450
 8254TIP3    H224708   1.639   5.867   4.598
 8255TIP3   OH224709   2.042   6.051   3.685
 8255TIP3    H124710   1.996   6.135   3.687
 8255TIP3    H224711   1.991   5.995   3.743
 8256TIP3   OH224712   1.473   5.844   5.153
 8256TIP3    H124713   1.496   5.832   5.245
 8256TIP3    H224714   1.405   5.779   5.136
 8257TIP3   OH224715   2.204   5.960   5.168
 8257TIP3    H124716   2.141   5.903   5.123
 8257TIP3    H224717   2.290   5.925   5.144
 8258TIP3   OH224718   2.455   6.487   4.754
 8258TIP3    H124719   2.360   6.479   4.767
 8258TIP3    H224720   2.486   6.534   4.831
 8259TIP3   OH224721   2.862   5.556   3.661
 8259TIP3    H124722   2.803   5.508   3.602
 8259TIP3    H224723   2.864   5.645   3.626
 8260TIP3   OH224724   3.086   6.413   4.739
 8260TIP3    H124725   2.990   6.406   4.737
 8260TIP3    H224726   3.115   6.381   4.654
 8261TIP3   OH224727   2.570   6.370   3.573
 8261TIP3    H124728   2.543   6.302   3.635
 8261TIP3    H224729   2.582   6.324   3.490
 8262TIP3   OH224730   2.563   5.998   4.403
 8262TIP3    H124731   2.471   5.977   4.419
 8262TIP3    H224732   2.599   5.920   4.361
 8263TIP3   OH224733   1.693   6.231   4.163
 8263TIP3    H124734   1.691   6.309   4.108
 8263TIP3    H224735   1.600   6.207   4.175
 8264TIP3   OH224736   1.259   5.532   3.873
 8264TIP3    H124737   1.303   5.615   3.890
 8264TIP3    H224738   1.182   5.533   3.929
 8265TIP3   OH224739   1.823   5.992   4.105
 8265TIP3    H124740   1.793   6.081   4.124
 8265TIP3    H224741   1.791   5.940   4.179
 8266TIP3   OH224742   1.966   6.571   4.631
 8266TIP3    H124743   2.008   6.641   4.580
 8266TIP3    H224744   2.038   6.531   4.680
 8267TIP3   OH224745   1.609   6.469   4.014
 8267TIP3    H124746   1.525   6.475   4.061
 8267TIP3    H224747   1.643   6.559   4.015
 8268TIP3   OH224748   2.349   6.205   4.593
 8268TIP3    H124749   2.336   6.205   4.688
 8268TIP3    H224750   2.426   6.150   4.579
 8269TIP3   OH224751   2.328   6.102   3.477
 8269TIP3    H124752   2.382   6.077   3.552
 8269TIP3    H224753   2.240   6.071   3.501
 8270TIP3   OH224754   2.596   6.737   4.641
 8270TIP3    H124755   2.521   6.678   4.640
 8270TIP3    H224756   2.579   6.798   4.569
 8271TIP3   OH224757   2.663   6.574   3.291
 8271TIP3    H124758   2.703   6.645   3.241
 8271TIP3    H224759   2.583   6.612   3.327
 8272TIP3   OH224760   1.681   5.349   5.157
 8272TIP3    H124761   1.586   5.354   5.170
 8272TIP3    H224762   1.712   5.296   5.230
 8273TIP3   OH224763   2.490   6.031   3.690
 8273TIP3    H124764   2.475   5.966   3.759
 8273TIP3    H224765   2.585   6.029   3.675
 8274TIP3   OH224766   1.404   6.431   4.792
 8274TIP3    H124767   1.454   6.353   4.815
 8274TIP3    H224768   1.428   6.496   4.859
 8275TIP3   OH224769   1.689   6.076   3.475
 8275TIP3    H124770   1.702   5.986   3.446
 8275TIP3    H224771   1.668   6.069   3.568
 8276TIP3   OH224772   1.635   6.085   3.746
 8276TIP3    H124773   1.708   6.055   3.800
 8276TIP3    H224774   1.638   6.181   3.754
 8277TIP3   OH224775   1.367   5.779   3.951
 8277TIP3    H124776   1.300   5.820   4.006
 8277TIP3    H224777   1.382   5.843   3.881
 8278TIP3   OH224778   2.522   5.413   4.846
 8278TIP3    H124779   2.604   5.451   4.878
 8278TIP3    H224780   2.510   5.333   4.897
 8279TIP3   OH224781   2.403   5.163   4.010
 8279TIP3    H124782   2.390   5.183   3.917
 8279TIP3    H224783   2.442   5.242   4.046
 8280TIP3   OH224784   1.900   6.282   3.693
 8280TIP3    H124785   1.815   6.302   3.731
 8280TIP3    H224786   1.918   6.355   3.633
 8281TIP3   OH224787   2.086   5.348   4.111
 8281TIP3    H124788   2.149   5.417   4.092
 8281TIP3    H224789   2.092   5.336   4.206
 8282TIP3   OH224790   2.361   5.659   4.915
 8282TIP3    H124791   2.386   5.710   4.992
 8282TIP3    H224792   2.413   5.579   4.922
 8283TIP3   OH224793   2.233   5.067   4.207
 8283TIP3    H124794   2.230   5.139   4.270
 8283TIP3    H224795   2.292   5.096   4.139
 8284TIP3   OH224796   1.648   6.359   3.764
 8284TIP3    H124797   1.617   6.425   3.702
 8284TIP3    H224798   1.632   6.398   3.850
 8285TIP3   OH224799   1.747   5.072   4.000
 8285TIP3    H124800   1.741   5.160   4.038
 8285TIP3    H224801   1.840   5.050   4.005
 8286TIP3   OH224802   2.995   5.562   4.895
 8286TIP3    H124803   2.900   5.563   4.905
 8286TIP3    H224804   3.010   5.509   4.816
 8287TIP3   OH224805   2.649   5.755   4.286
 8287TIP3    H124806   2.574   5.697   4.297
 8287TIP3    H224807   2.721   5.711   4.331
 8288TIP3   OH224808   1.368   5.981   3.751
 8288TIP3    H124809   1.436   6.047   3.764
 8288TIP3    H224810   1.405   5.921   3.687
 8289TIP3   OH224811   1.303   5.261   3.889
 8289TIP3    H124812   1.306   5.356   3.888
 8289TIP3    H224813   1.227   5.238   3.835
 8290TIP3   OH224814   2.620   6.719   4.230
 8290TIP3    H124815   2.575   6.763   4.158
 8290TIP3    H224816   2.713   6.734   4.213
 8291TIP3   OH224817   1.691   4.978   4.760
 8291TIP3    H124818   1.665   4.948   4.673
 8291TIP3    H224819   1.684   4.901   4.816
 8292TIP3   OH224820   1.229   6.201   4.136
 8292TIP3    H124821   1.167   6.229   4.203
 8292TIP3    H224822   1.197   6.242   4.056
 8293TIP3   OH224823   1.397   6.746   5.207
 8293TIP3    H124824   1.479   6.747   5.257
 8293TIP3    H224825   1.370   6.654   5.208
 8294TIP3   OH224826   1.871   6.721   5.235
 8294TIP3    H124827   1.958   6.696   5.267
 8294TIP3    H224828   1.847   6.653   5.173
 8295TIP3   OH224829   1.852   6.277   3.383
 8295TIP3    H124830   1.796   6.210   3.422
 8295TIP3    H224831   1.929   6.229   3.353
 8296TIP3   OH224832   2.512   6.611   4.991
 8296TIP3    H124833   2.502   6.544   5.058
 8296TIP3    H224834   2.587   6.663   5.021
 8297TIP3   OH224835   2.289   6.318   3.300
 8297TIP3    H124836   2.325   6.253   3.360
 8297TIP3    H224837   2.346   6.313   3.223
 8298TIP3   OH224838   1.516   6.137   5.411
 8298TIP3    H124839   1.534   6.043   5.413
 8298TIP3    H224840   1.431   6.144   5.368
 8299TIP3   OH224841   1.504   5.795   3.609
 8299TIP3    H124842   1.556   5.764   3.683
 8299TIP3    H224843   1.566   5.801   3.536
 8300TIP3   OH224844   2.149   6.242   5.178
 8300TIP3    H124845   2.093   6.256   5.102
 8300TIP3    H224846   2.171   6.148   5.174
 8301TIP3   OH224847   2.014   5.996   3.417
 8301TIP3    H124848   2.015   6.010   3.511
 8301TIP3    H224849   2.015   5.901   3.407
 8302TIP3   OH224850   2.621   6.248   4.793
 8302TIP3    H124851   2.697   6.288   4.751
 8302TIP3    H224852   2.550   6.310   4.779
 8303TIP3   OH224853   1.644   5.873   5.400
 8303TIP3    H124854   1.728   5.844   5.364
 8303TIP3    H224855   1.667   5.914   5.484
 8304TIP3   OH224856   1.705   5.703   3.826
 8304TIP3    H124857   1.678   5.664   3.910
 8304TIP3    H224858   1.743   5.630   3.777
 8305TIP3   OH224859   1.971   5.764   5.053
 8305TIP3    H124860   1.899   5.826   5.059
 8305TIP3    H224861   2.026   5.798   4.982
 8306TIP3   OH224862   1.811   5.500   3.666
 8306TIP3    H124863   1.783   5.506   3.574
 8306TIP3    H224864   1.906   5.501   3.662
 8307TIP3   OH224865   2.496   6.168   5.189
 8307TIP3    H124866   2.574   6.138   5.142
 8307TIP3    H224867   2.486   6.107   5.262
 8308TIP3   OH224868   2.624   5.827   3.333
 8308TIP3    H124869   2.608   5.780   3.252
 8308TIP3    H224870   2.593   5.916   3.316
 8309TIP3   OH224871   2.094   5.555   5.180
 8309TIP3    H124872   2.101   5.478   5.124
 8309TIP3    H224873   2.055   5.622   5.125
 8310TIP3   OH224874   2.100   5.345   4.989
 8310TIP3    H124875   2.131   5.384   4.908
 8310TIP3    H224876   2.009   5.321   4.971
 8311TIP3   OH224877   2.124   5.876   4.865
 8311TIP3    H124878   2.211   5.886   4.825
 8311TIP3    H224879   2.069   5.940   4.819
 8312TIP3   OH224880   2.711   5.841   5.242
 8312TIP3    H124881   2.754   5.757   5.252
 8312TIP3    H224882   2.778   5.899   5.206
 8313TIP3   OH224883   2.752   6.100   4.978
 8313TIP3    H124884   2.693   6.152   4.923
 8313TIP3    H224885   2.839   6.118   4.942
 8314TIP3   OH224886   1.975   5.662   5.413
 8314TIP3    H124887   1.907   5.597   5.430
 8314TIP3    H224888   2.011   5.639   5.328
 8315TIP3   OH224889   2.232   5.107   5.060
 8315TIP3    H124890   2.185   5.186   5.037
 8315TIP3    H224891   2.169   5.036   5.048
 8316TIP3   OH224892   2.357   5.606   5.275
 8316TIP3    H124893   2.351   5.595   5.370
 8316TIP3    H224894   2.270   5.582   5.243
 8317TIP3   OH224895   2.599   5.561   5.132
 8317TIP3    H124896   2.525   5.559   5.192
 8317TIP3    H224897   2.673   5.529   5.184
 8318TIP3   OH224898   2.827   5.500   5.280
 8318TIP3    H124899   2.841   5.406   5.291
 8318TIP3    H224900   2.825   5.535   5.369
 8319TIP3   OH224901   1.812   5.443   5.473
 8319TIP3    H124902   1.832   5.358   5.434
 8319TIP3    H224903   1.851   5.439   5.561
 8320TIP3   OH224904   2.320   5.113   5.321
 8320TIP3    H124905   2.391   5.049   5.320
 8320TIP3    H224906   2.285   5.111   5.232
 8321TIP3   OH224907   2.392   5.330   5.475
 8321TIP3    H124908   2.374   5.258   5.414
 8321TIP3    H224909   2.315   5.387   5.468
 8322TIP3   OH224910   1.620   6.563   3.575
 8322TIP3    H124911   1.713   6.550   3.558
 8322TIP3    H224912   1.587   6.611   3.499
 8323TIP3   OH224913   1.098   5.940   3.790
 8323TIP3    H124914   1.190   5.962   3.775
 8323TIP3    H224915   1.087   5.853   3.751
 8324TIP3   OH224916   1.012   6.550   4.206
 8324TIP3    H124917   0.946   6.493   4.166
 8324TIP3    H224918   1.056   6.493   4.270
 8325TIP3   OH224919   1.147   6.398   4.395
 8325TIP3    H124920   1.132   6.327   4.458
 8325TIP3    H224921   1.197   6.463   4.445
 8326TIP3   OH224922   2.874   6.808   4.193
 8326TIP3    H124923   2.901   6.833   4.282
 8326TIP3    H224924   2.943   6.843   4.137
 8327TIP3   OH224925   2.904   6.819   4.476
 8327TIP3    H124926   2.855   6.738   4.470
 8327TIP3    H224927   2.978   6.799   4.534
 8328TIP3   OH224928   2.946   6.502   5.048
 8328TIP3    H124929   2.876   6.509   5.113
 8328TIP3    H224930   2.990   6.587   5.051
 8329TIP3   OH224931   2.768   6.013   3.668
 8329TIP3    H124932   2.832   6.077   3.635
 8329TIP3    H224933   2.809   5.975   3.745
 8330TIP3   OH224934   2.892   5.882   3.873
 8330TIP3    H124935   2.827   5.840   3.929
 8330TIP3    H224936   2.958   5.915   3.934
 8331TIP3   OH224937   2.950   6.275   4.299
 8331TIP3    H124938   3.002   6.206   4.258
 8331TIP3    H224939   2.944   6.343   4.233
 8332TIP3   OH224940   2.774   6.575   4.494
 8332TIP3    H124941   2.705   6.613   4.548
 8332TIP3    H224942   2.728   6.527   4.425
 8333TIP3   OH224943   2.827   5.791   3.515
 8333TIP3    H124944   2.758   5.789   3.448
 8333TIP3    H224945   2.803   5.864   3.572
 8334TIP3   OH224946   2.698   5.460   3.468
 8334TIP3    H124947   2.656   5.495   3.389
 8334TIP3    H224948   2.679   5.366   3.465
 8335TIP3   OH224949   2.704   5.738   4.017
 8335TIP3    H124950   2.713   5.644   4.007
 8335TIP3    H224951   2.690   5.751   4.111
 8336TIP3   OH224952   1.333   5.808   4.764
 8336TIP3    H124953   1.327   5.776   4.674
 8336TIP3    H224954   1.427   5.812   4.782
 8337TIP3   OH224955   2.998   6.163   4.873
 8337TIP3    H124956   3.066   6.095   4.865
 8337TIP3    H224957   3.022   6.229   4.808
 8338TIP3   OH224958   3.179   5.961   4.885
 8338TIP3    H124959   3.104   5.916   4.923
 8338TIP3    H224960   3.253   5.902   4.900
 8339TIP3   OH224961   2.644   5.195   3.454
 8339TIP3    H124962   2.717   5.163   3.507
 8339TIP3    H224963   2.572   5.136   3.475
 8340TIP3   OH224964   2.705   5.453   3.906
 8340TIP3    H124965   2.742   5.366   3.923
 8340TIP3    H224966   2.760   5.489   3.836
 8341TIP3   OH224967   2.864   5.628   4.406
 8341TIP3    H124968   2.946   5.649   4.361
 8341TIP3    H224969   2.875   5.661   4.495
 8342TIP3   OH224970   2.933   5.774   4.635
 8342TIP3    H124971   2.858   5.805   4.685
 8342TIP3    H224972   2.968   5.852   4.591
 8343TIP3   OH224973   1.546   5.486   5.428
 8343TIP3    H124974   1.642   5.493   5.432
 8343TIP3    H224975   1.525   5.412   5.485
 8344TIP3   OH224976   3.385   5.365   5.189
 8344TIP3    H124977   3.444   5.300   5.152
 8344TIP3    H224978   3.356   5.417   5.114
 8345TIP3   OH224979   2.810   5.203   3.949
 8345TIP3    H124980   2.860   5.190   4.030
 8345TIP3    H224981   2.750   5.129   3.946
 8346TIP3   OH224982   1.513   5.190   4.775
 8346TIP3    H124983   1.571   5.114   4.778
 8346TIP3    H224984   1.572   5.264   4.761
 8347TIP3   OH224985   1.315   5.462   4.841
 8347TIP3    H124986   1.361   5.455   4.758
 8347TIP3    H224987   1.338   5.549   4.874
 8348TIP3   OH224988   3.250   5.499   4.992
 8348TIP3    H124989   3.166   5.542   5.010
 8348TIP3    H224990   3.227   5.424   4.938
 8349TIP3   OH224991   2.890   5.136   3.580
 8349TIP3    H124992   2.928   5.066   3.529
 8349TIP3    H224993   2.956   5.205   3.580
 8350TIP3   OH224994   1.296   4.970   4.343
 8350TIP3    H124995   1.205   4.962   4.369
 8350TIP3    H224996   1.294   5.025   4.265
 8351TIP3   OH224997   2.458   6.674   3.847
 8351TIP3    H124998   2.507   6.660   3.766
 8351TIP3    H224999   2.512   6.735   3.897
 8352TIP3   OH225000   1.510   5.038   5.160
 8352TIP3    H125001   1.457   5.055   5.238
 8352TIP3    H225002   1.458   5.072   5.087
 8353TIP3   OH225003   1.556   6.482   5.242
 8353TIP3    H125004   1.466   6.453   5.225
 8353TIP3    H225005   1.572   6.457   5.333
 8354TIP3   OH225006   1.737   6.512   4.778
 8354TIP3    H125007   1.688   6.586   4.741
 8354TIP3    H225008   1.824   6.520   4.738
 8355TIP3   OH225009   2.178   6.755   4.920
 8355TIP3    H125010   2.218   6.747   5.007
 8355TIP3    H225011   2.242   6.804   4.868
 8356TIP3   OH225012   2.359   6.907   4.780
 8356TIP3    H125013   2.424   6.852   4.736
 8356TIP3    H225014   2.409   6.962   4.839
 8357TIP3   OH225015   3.151   5.256   4.878
 8357TIP3    H125016   3.061   5.240   4.850
 8357TIP3    H225017   3.194   5.170   4.872
 8358TIP3   OH225018   1.411   6.780   4.800
 8358TIP3    H125019   1.322   6.807   4.781
 8358TIP3    H225020   1.415   6.777   4.896
 8359TIP3   OH225021   1.648   6.748   4.664
 8359TIP3    H125022   1.563   6.760   4.707
 8359TIP3    H225023   1.632   6.773   4.573
 8360TIP3   OH225024   2.072   6.772   4.462
 8360TIP3    H125025   2.004   6.786   4.396
 8360TIP3    H225026   2.085   6.858   4.502
 8361TIP3   OH225027   2.342   6.712   4.514
 8361TIP3    H125028   2.249   6.726   4.494
 8361TIP3    H225029   2.388   6.782   4.469
 8362TIP3   OH225030   2.548   6.901   4.423
 8362TIP3    H125031   2.535   6.984   4.377
 8362TIP3    H225032   2.576   6.839   4.355
 8363TIP3   OH225033   1.327   6.556   4.552
 8363TIP3    H125034   1.350   6.528   4.641
 8363TIP3    H225035   1.394   6.515   4.496
 8364TIP3   OH225036   1.520   6.429   4.410
 8364TIP3    H125037   1.532   6.346   4.456
 8364TIP3    H225038   1.609   6.465   4.403
 8365TIP3   OH225039   1.789   6.521   4.415
 8365TIP3    H125040   1.814   6.430   4.399
 8365TIP3    H225041   1.835   6.545   4.495
 8366TIP3   OH225042   2.353   5.175   4.491
 8366TIP3    H125043   2.314   5.106   4.545
 8366TIP3    H225044   2.430   5.135   4.452
 8367TIP3   OH225045   2.876   5.063   4.396
 8367TIP3    H125046   2.914   5.112   4.323
 8367TIP3    H225047   2.783   5.082   4.392
 8368TIP3   OH225048   2.977   5.161   4.162
 8368TIP3    H125049   3.048   5.106   4.127
 8368TIP3    H225050   3.009   5.251   4.150
 8369TIP3   OH225051   1.606   4.884   4.513
 8369TIP3    H125052   1.514   4.856   4.514
 8369TIP3    H225053   1.656   4.802   4.509
 8370TIP3   OH225054   1.397   4.761   4.163
 8370TIP3    H125055   1.427   4.812   4.088
 8370TIP3    H225056   1.370   4.826   4.228
 8371TIP3   OH225057   2.053   4.923   4.397
 8371TIP3    H125058   2.107   4.966   4.330
 8371TIP3    H225059   2.088   4.954   4.480
 8372TIP3   OH225060   2.591   5.066   4.377
 8372TIP3    H125061   2.598   5.027   4.290
 8372TIP3    H225062   2.582   4.991   4.436
 8373TIP3   OH225063   2.626   4.991   3.941
 8373TIP3    H125064   2.542   5.035   3.955
 8373TIP3    H225065   2.615   4.906   3.984
 8374TIP3   OH225066   1.108   6.336   3.935
 8374TIP3    H125067   1.026   6.299   3.905
 8374TIP3    H225068   1.103   6.428   3.912
 8375TIP3   OH225069   1.516   4.914   3.924
 8375TIP3    H125070   1.560   4.852   3.866
 8375TIP3    H225071   1.587   4.968   3.958
 8376TIP3   OH225072   2.024   5.097   4.024
 8376TIP3    H125073   2.082   5.046   4.080
 8376TIP3    H225074   2.043   5.188   4.047
 8377TIP3   OH225075   1.886   6.512   3.519
 8377TIP3    H125076   1.972   6.538   3.487
 8377TIP3    H225077   1.859   6.439   3.463
 8378TIP3   OH225078   2.603   6.636   3.614
 8378TIP3    H125079   2.598   6.541   3.607
 8378TIP3    H225080   2.557   6.668   3.537
 8379TIP3   OH225081   1.827   5.161   5.392
 8379TIP3    H125082   1.801   5.109   5.468
 8379TIP3    H225083   1.922   5.170   5.401
 8380TIP3   OH225084   2.071   5.167   5.514
 8380TIP3    H125085   2.156   5.145   5.475
 8380TIP3    H225086   2.061   5.106   5.587
 8381TIP3   OH225087   1.189   6.353   3.577
 8381TIP3    H125088   1.187   6.373   3.670
 8381TIP3    H225089   1.274   6.312   3.563
 8382TIP3   OH225090   2.894   5.230   5.309
 8382TIP3    H125091   2.908   5.198   5.398
 8382TIP3    H225092   2.979   5.224   5.267
 8383TIP3   OH225093   2.825   6.781   4.801
 8383TIP3    H125094   2.749   6.748   4.753
 8383TIP3    H225095   2.807   6.875   4.811
 8384TIP3   OH225096   4.095   6.157   3.562
 8384TIP3    H125097   4.066   6.246   3.543
 8384TIP3    H225098   4.022   6.102   3.535
 8385TIP3   OH225099   4.093   6.152   3.957
 8385TIP3    H125100   4.131   6.129   4.042
 8385TIP3    H225101   4.054   6.071   3.926
 8386TIP3   OH225102   3.392   6.045   4.319
 8386TIP3    H125103   3.417   5.976   4.380
 8386TIP3    H225104   3.472   6.095   4.304
 8387TIP3   OH225105   4.340   6.459   3.634
 8387TIP3    H125106   4.323   6.387   3.694
 8387TIP3    H225107   4.370   6.530   3.690
 8388TIP3   OH225108   3.367   6.457   4.036
 8388TIP3    H125109   3.355   6.362   4.037
 8388TIP3    H225110   3.462   6.469   4.033
 8389TIP3   OH225111   3.069   5.660   3.818
 8389TIP3    H125112   3.024   5.742   3.838
 8389TIP3    H225113   3.002   5.605   3.778
 8390TIP3   OH225114   3.131   5.945   4.001
 8390TIP3    H125115   3.177   5.869   4.035
 8390TIP3    H225116   3.189   5.980   3.933
 8391TIP3   OH225117   3.994   6.917   3.652
 8391TIP3    H125118   4.033   6.849   3.598
 8391TIP3    H225119   3.982   6.876   3.737
 8392TIP3   OH225120   3.895   6.380   3.998
 8392TIP3    H125121   3.929   6.300   3.957
 8392TIP3    H225122   3.974   6.429   4.023
 8393TIP3   OH225123   4.908   5.702   3.994
 8393TIP3    H125124   4.938   5.781   4.038
 8393TIP3    H225125   4.931   5.716   3.902
 8394TIP3   OH225126   4.309   5.880   4.024
 8394TIP3    H125127   4.347   5.797   4.051
 8394TIP3    H225128   4.273   5.863   3.937
 8395TIP3   OH225129   3.642   5.541   3.991
 8395TIP3    H125130   3.627   5.613   3.930
 8395TIP3    H225131   3.597   5.466   3.952
 8396TIP3   OH225132   4.343   5.631   3.613
 8396TIP3    H125133   4.408   5.615   3.682
 8396TIP3    H225134   4.394   5.666   3.540
 8397TIP3   OH225135   3.280   5.739   4.100
 8397TIP3    H125136   3.360   5.722   4.150
 8397TIP3    H225137   3.290   5.686   4.021
 8398TIP3   OH225138   3.717   5.937   3.900
 8398TIP3    H125139   3.809   5.916   3.912
 8398TIP3    H225140   3.678   5.856   3.867
 8399TIP3   OH225141   4.981   5.912   4.162
 8399TIP3    H125142   4.897   5.953   4.141
 8399TIP3    H225143   4.989   5.920   4.257
 8400TIP3   OH225144   3.635   5.525   4.430
 8400TIP3    H125145   3.578   5.559   4.361
 8400TIP3    H225146   3.586   5.540   4.511
 8401TIP3   OH225147   3.983   6.378   3.432
 8401TIP3    H125148   3.942   6.356   3.349
 8401TIP3    H225149   3.938   6.456   3.463
 8402TIP3   OH225150   3.747   6.301   4.218
 8402TIP3    H125151   3.688   6.366   4.257
 8402TIP3    H225152   3.789   6.347   4.146
 8403TIP3   OH225153   4.545   5.638   3.793
 8403TIP3    H125154   4.526   5.590   3.875
 8403TIP3    H225155   4.595   5.714   3.821
 8404TIP3   OH225156   3.514   5.639   4.211
 8404TIP3    H125157   3.573   5.709   4.238
 8404TIP3    H225158   3.559   5.596   4.138
 8405TIP3   OH225159   3.573   6.498   4.323
 8405TIP3    H125160   3.551   6.583   4.285
 8405TIP3    H225161   3.498   6.475   4.377
 8406TIP3   OH225162   2.966   6.186   3.556
 8406TIP3    H125163   2.927   6.210   3.472
 8406TIP3    H225164   3.000   6.268   3.591
 8407TIP3   OH225165   4.405   6.703   3.798
 8407TIP3    H125166   4.318   6.690   3.837
 8407TIP3    H225167   4.398   6.787   3.753
 8408TIP3   OH225168   4.699   5.607   4.161
 8408TIP3    H125169   4.612   5.628   4.127
 8408TIP3    H225170   4.758   5.635   4.091
 8409TIP3   OH225171   3.985   5.247   4.133
 8409TIP3    H125172   4.033   5.188   4.191
 8409TIP3    H225173   3.908   5.273   4.183
 8410TIP3   OH225174   4.108   6.745   3.466
 8410TIP3    H125175   4.153   6.662   3.452
 8410TIP3    H225176   4.167   6.811   3.428
 8411TIP3   OH225177   4.252   6.529   3.383
 8411TIP3    H125178   4.209   6.452   3.347
 8411TIP3    H225179   4.291   6.499   3.465
 8412TIP3   OH225180   4.632   6.611   4.139
 8412TIP3    H125181   4.620   6.533   4.084
 8412TIP3    H225182   4.616   6.684   4.079
 8413TIP3   OH225183   3.925   6.007   3.399
 8413TIP3    H125184   3.845   6.057   3.380
 8413TIP3    H225185   3.970   6.002   3.315
 8414TIP3   OH225186   3.886   5.792   3.111
 8414TIP3    H125187   3.949   5.843   3.161
 8414TIP3    H225188   3.939   5.728   3.064
 8415TIP3   OH225189   4.828   6.255   3.987
 8415TIP3    H125190   4.744   6.301   3.994
 8415TIP3    H225191   4.858   6.273   3.898
 8416TIP3   OH225192   4.275   6.089   3.371
 8416TIP3    H125193   4.219   6.112   3.445
 8416TIP3    H225194   4.358   6.063   3.411
 8417TIP3   OH225195   4.505   6.128   4.285
 8417TIP3    H125196   4.503   6.208   4.337
 8417TIP3    H225197   4.421   6.127   4.240
 8418TIP3   OH225198   3.508   6.083   3.788
 8418TIP3    H125199   3.465   6.027   3.723
 8418TIP3    H225200   3.581   6.031   3.820
 8419TIP3   OH225201   3.638   6.499   3.933
 8419TIP3    H125202   3.614   6.461   3.848
 8419TIP3    H225203   3.724   6.463   3.953
 8420TIP3   OH225204   3.636   6.058   4.142
 8420TIP3    H125205   3.670   6.028   4.057
 8420TIP3    H225206   3.683   6.140   4.159
 8421TIP3   OH225207   4.166   6.695   3.921
 8421TIP3    H125208   4.155   6.772   3.976
 8421TIP3    H225209   4.151   6.620   3.979
 8422TIP3   OH225210   3.777   6.614   4.465
 8422TIP3    H125211   3.720   6.674   4.512
 8422TIP3    H225212   3.717   6.559   4.415
 8423TIP3   OH225213   4.113   5.949   3.196
 8423TIP3    H125214   4.170   6.006   3.247
 8423TIP3    H225215   4.137   5.967   3.105
 8424TIP3   OH225216   3.534   6.172   4.571
 8424TIP3    H125217   3.539   6.257   4.613
 8424TIP3    H225218   3.442   6.146   4.581
 8425TIP3   OH225219   3.860   6.623   3.474
 8425TIP3    H125220   3.940   6.673   3.482
 8425TIP3    H225221   3.799   6.682   3.429
 8426TIP3   OH225222   3.570   6.779   4.554
 8426TIP3    H125223   3.538   6.780   4.464
 8426TIP3    H225224   3.493   6.758   4.607
 8427TIP3   OH225225   4.626   5.186   3.246
 8427TIP3    H125226   4.547   5.203   3.297
 8427TIP3    H225227   4.642   5.267   3.198
 8428TIP3   OH225228   3.370   5.929   3.591
 8428TIP3    H125229   3.302   5.969   3.538
 8428TIP3    H225230   3.340   5.839   3.605
 8429TIP3   OH225231   4.431   6.553   2.793
 8429TIP3    H125232   4.437   6.648   2.780
 8429TIP3    H225233   4.521   6.522   2.781
 8430TIP3   OH225234   3.152   6.311   4.499
 8430TIP3    H125235   3.086   6.289   4.432
 8430TIP3    H225236   3.191   6.227   4.523
 8431TIP3   OH225237   3.009   6.508   4.127
 8431TIP3    H125238   3.103   6.493   4.119
 8431TIP3    H225239   3.001   6.581   4.189
 8432TIP3   OH225240   4.867   6.956   4.190
 8432TIP3    H125241   4.871   6.862   4.203
 8432TIP3    H225242   4.787   6.983   4.234
 8433TIP3   OH225243   3.973   6.744   4.324
 8433TIP3    H125244   3.973   6.834   4.355
 8433TIP3    H225245   3.905   6.701   4.375
 8434TIP3   OH225246   3.740   6.872   3.272
 8434TIP3    H125247   3.691   6.849   3.194
 8434TIP3    H225248   3.704   6.956   3.300
 8435TIP3   OH225249   3.177   6.716   3.664
 8435TIP3    H125250   3.223   6.710   3.747
 8435TIP3    H225251   3.129   6.634   3.657
 8436TIP3   OH225252   3.941   6.772   2.915
 8436TIP3    H125253   3.996   6.703   2.878
 8436TIP3    H225254   3.972   6.782   3.005
 8437TIP3   OH225255   3.991   6.819   3.185
 8437TIP3    H125256   3.903   6.830   3.223
 8437TIP3    H225257   4.042   6.777   3.255
 8438TIP3   OH225258   4.758   6.085   4.461
 8438TIP3    H125259   4.675   6.094   4.415
 8438TIP3    H225260   4.779   5.992   4.455
 8439TIP3   OH225261   3.356   6.494   4.487
 8439TIP3    H125262   3.406   6.479   4.567
 8439TIP3    H225263   3.282   6.433   4.492
 8440TIP3   OH225264   3.749   5.320   4.279
 8440TIP3    H125265   3.666   5.287   4.246
 8440TIP3    H225266   3.725   5.397   4.331
 8441TIP3   OH225267   4.297   5.444   4.475
 8441TIP3    H125268   4.361   5.400   4.531
 8441TIP3    H225269   4.213   5.407   4.500
 8442TIP3   OH225270   4.530   5.867   4.391
 8442TIP3    H125271   4.479   5.860   4.471
 8442TIP3    H225272   4.502   5.949   4.351
 8443TIP3   OH225273   4.191   5.989   2.940
 8443TIP3    H125274   4.153   5.966   2.855
 8443TIP3    H225275   4.274   6.032   2.917
 8444TIP3   OH225276   3.900   5.363   3.246
 8444TIP3    H125277   3.869   5.363   3.337
 8444TIP3    H225278   3.863   5.283   3.209
 8445TIP3   OH225279   3.687   5.836   4.293
 8445TIP3    H125280   3.640   5.853   4.374
 8445TIP3    H225281   3.672   5.914   4.239
 8446TIP3   OH225282   3.568   5.721   3.803
 8446TIP3    H125283   3.480   5.694   3.826
 8446TIP3    H225284   3.584   5.681   3.717
 8447TIP3   OH225285   4.063   5.807   3.534
 8447TIP3    H125286   4.012   5.876   3.492
 8447TIP3    H225287   4.117   5.770   3.464
 8448TIP3   OH225288   4.239   6.082   4.624
 8448TIP3    H125289   4.213   6.009   4.680
 8448TIP3    H225290   4.333   6.093   4.641
 8449TIP3   OH225291   4.220   5.830   3.766
 8449TIP3    H125292   4.155   5.858   3.702
 8449TIP3    H225293   4.258   5.750   3.729
 8450TIP3   OH225294   3.506   5.861   4.502
 8450TIP3    H125295   3.545   5.920   4.567
 8450TIP3    H225296   3.495   5.778   4.549
 8451TIP3   OH225297   3.555   5.342   3.210
 8451TIP3    H125298   3.550   5.338   3.306
 8451TIP3    H225299   3.479   5.394   3.184
 8452TIP3   OH225300   3.102   5.383   4.080
 8452TIP3    H125301   3.174   5.415   4.135
 8452TIP3    H225302   3.146   5.351   4.001
 8453TIP3   OH225303   3.065   5.364   3.598
 8453TIP3    H125304   3.114   5.396   3.522
 8453TIP3    H225305   3.005   5.436   3.619
 8454TIP3   OH225306   4.231   6.075   4.193
 8454TIP3    H125307   4.264   6.008   4.132
 8454TIP3    H225308   4.201   6.025   4.268
 8455TIP3   OH225309   3.903   5.549   3.870
 8455TIP3    H125310   3.825   5.540   3.924
 8455TIP3    H225311   3.976   5.525   3.927
 8456TIP3   OH225312   3.333   5.597   3.872
 8456TIP3    H125313   3.241   5.603   3.844
 8456TIP3    H225314   3.359   5.507   3.851
 8457TIP3   OH225315   3.598   5.593   3.564
 8457TIP3    H125316   3.691   5.606   3.545
 8457TIP3    H225317   3.554   5.614   3.481
 8458TIP3   OH225318   4.387   5.619   4.072
 8458TIP3    H125319   4.359   5.632   4.163
 8458TIP3    H225320   4.326   5.555   4.037
 8459TIP3   OH225321   3.447   5.631   3.337
 8459TIP3    H125322   3.376   5.584   3.293
 8459TIP3    H225323   3.500   5.667   3.266
 8460TIP3   OH225324   4.566   7.308   4.289
 8460TIP3    H125325   4.562   7.329   4.196
 8460TIP3    H225326   4.645   7.352   4.320
 8461TIP3   OH225327   3.518   6.420   4.710
 8461TIP3    H125328   3.599   6.446   4.755
 8461TIP3    H225329   3.453   6.414   4.780
 8462TIP3   OH225330   3.981   5.874   3.968
 8462TIP3    H125331   4.048   5.825   3.921
 8462TIP3    H225332   3.977   5.833   4.054
 8463TIP3   OH225333   3.499   5.354   3.847
 8463TIP3    H125334   3.464   5.281   3.897
 8463TIP3    H225335   3.557   5.313   3.783
 8464TIP3   OH225336   3.959   5.784   4.234
 8464TIP3    H125337   3.870   5.805   4.263
 8464TIP3    H225338   4.015   5.830   4.296
 8465TIP3   OH225339   3.691   6.156   3.349
 8465TIP3    H125340   3.623   6.090   3.335
 8465TIP3    H225341   3.674   6.190   3.437
 8466TIP3   OH225342   4.592   6.395   3.973
 8466TIP3    H125343   4.616   6.444   3.895
 8466TIP3    H225344   4.510   6.350   3.950
 8467TIP3   OH225345   4.149   5.471   3.210
 8467TIP3    H125346   4.057   5.449   3.223
 8467TIP3    H225347   4.156   5.561   3.240
 8468TIP3   OH225348   4.098   6.480   4.344
 8468TIP3    H125349   4.123   6.452   4.432
 8468TIP3    H225350   4.055   6.564   4.357
 8469TIP3   OH225351   4.221   5.718   3.317
 8469TIP3    H125352   4.315   5.723   3.334
 8469TIP3    H225353   4.202   5.798   3.268
 8470TIP3   OH225354   3.391   6.181   4.020
 8470TIP3    H125355   3.426   6.153   3.936
 8470TIP3    H225356   3.433   6.125   4.085
 8471TIP3   OH225357   3.839   6.307   3.175
 8471TIP3    H125358   3.794   6.391   3.178
 8471TIP3    H225359   3.787   6.250   3.232
 8472TIP3   OH225360   3.269   6.101   4.640
 8472TIP3    H125361   3.289   6.087   4.733
 8472TIP3    H225362   3.203   6.035   4.619
 8473TIP3   OH225363   3.998   6.215   4.655
 8473TIP3    H125364   3.936   6.157   4.612
 8473TIP3    H225365   4.084   6.181   4.631
 8474TIP3   OH225366   4.252   6.747   4.240
 8474TIP3    H125367   4.157   6.735   4.253
 8474TIP3    H225368   4.281   6.792   4.319
 8475TIP3   OH225369   4.660   5.811   3.147
 8475TIP3    H125370   4.601   5.764   3.088
 8475TIP3    H225371   4.661   5.901   3.113
 8476TIP3   OH225372   4.882   6.670   4.226
 8476TIP3    H125373   4.787   6.663   4.223
 8476TIP3    H225374   4.911   6.638   4.140
 8477TIP3   OH225375   4.367   6.626   3.061
 8477TIP3    H125376   4.338   6.559   3.123
 8477TIP3    H225377   4.377   6.579   2.978
 8478TIP3   OH225378   4.359   6.255   3.889
 8478TIP3    H125379   4.267   6.232   3.906
 8478TIP3    H225380   4.395   6.177   3.848
 8479TIP3   OH225381   3.489   6.487   3.650
 8479TIP3    H125382   3.486   6.565   3.595
 8479TIP3    H225383   3.397   6.462   3.661
 8480TIP3   OH225384   3.053   5.789   3.357
 8480TIP3    H125385   3.100   5.870   3.376
 8480TIP3    H225386   2.977   5.790   3.415
 8481TIP3   OH225387   3.621   6.249   3.592
 8481TIP3    H125388   3.590   6.337   3.612
 8481TIP3    H225389   3.589   6.195   3.665
 8482TIP3   OH225390   3.762   6.827   4.117
 8482TIP3    H125391   3.803   6.898   4.068
 8482TIP3    H225392   3.834   6.787   4.165
 8483TIP3   OH225393   3.404   6.727   3.500
 8483TIP3    H125394   3.321   6.731   3.547
 8483TIP3    H225395   3.437   6.817   3.502
 8484TIP3   OH225396   4.146   6.462   4.078
 8484TIP3    H125397   4.133   6.462   4.173
 8484TIP3    H225398   4.221   6.404   4.064
 8485TIP3   OH225399   4.123   6.360   2.961
 8485TIP3    H125400   4.176   6.335   3.037
 8485TIP3    H225401   4.035   6.325   2.981
 8486TIP3   OH225402   4.392   6.993   4.128
 8486TIP3    H125403   4.318   6.934   4.128
 8486TIP3    H225404   4.375   7.055   4.057
 8487TIP3   OH225405   4.460   6.832   2.778
 8487TIP3    H125406   4.500   6.904   2.730
 8487TIP3    H225407   4.379   6.868   2.814
 8488TIP3   OH225408   3.476   5.607   4.644
 8488TIP3    H125409   3.381   5.606   4.653
 8488TIP3    H225410   3.508   5.549   4.714
 8489TIP3   OH225411   4.286   6.287   3.174
 8489TIP3    H125412   4.270   6.224   3.245
 8489TIP3    H225413   4.381   6.285   3.162
 8490TIP3   OH225414   3.198   6.687   4.278
 8490TIP3    H125415   3.249   6.612   4.308
 8490TIP3    H225416   3.223   6.759   4.335
 8491TIP3   OH225417   3.486   6.337   2.966
 8491TIP3    H125418   3.496   6.250   2.929
 8491TIP3    H225419   3.463   6.322   3.058
 8492TIP3   OH225420   3.427   6.342   3.239
 8492TIP3    H125421   3.503   6.310   3.288
 8492TIP3    H225422   3.433   6.437   3.243
 8493TIP3   OH225423   3.163   6.033   3.436
 8493TIP3    H125424   3.097   6.075   3.493
 8493TIP3    H225425   3.179   6.098   3.367
 8494TIP3   OH225426   4.317   5.674   4.334
 8494TIP3    H125427   4.401   5.705   4.369
 8494TIP3    H225428   4.299   5.594   4.382
 8495TIP3   OH225429   4.203   5.419   3.494
 8495TIP3    H125430   4.188   5.441   3.403
 8495TIP3    H225431   4.241   5.498   3.533
 8496TIP3   OH225432   3.699   6.538   3.183
 8496TIP3    H125433   3.614   6.563   3.220
 8496TIP3    H225434   3.708   6.593   3.106
 8497TIP3   OH225435   3.883   5.605   3.600
 8497TIP3    H125436   3.946   5.675   3.582
 8497TIP3    H225437   3.888   5.591   3.694
 8498TIP3   OH225438   4.159   5.916   4.401
 8498TIP3    H125439   4.183   5.962   4.481
 8498TIP3    H225440   4.208   5.834   4.404
 8499TIP3   OH225441   4.030   5.324   3.694
 8499TIP3    H125442   4.034   5.390   3.763
 8499TIP3    H225443   4.089   5.356   3.626
 8500TIP3   OH225444   3.446   6.617   3.251
 8500TIP3    H125445   3.415   6.684   3.189
 8500TIP3    H225446   3.428   6.654   3.337
 8501TIP3   OH225447   3.544   5.329   3.485
 8501TIP3    H125448   3.537   5.415   3.526
 8501TIP3    H225449   3.637   5.306   3.492
 8502TIP3   OH225450   4.794   5.818   4.377
 8502TIP3    H125451   4.699   5.824   4.392
 8502TIP3    H225452   4.802   5.757   4.304
 8503TIP3   OH225453   4.446   6.012   3.772
 8503TIP3    H125454   4.369   5.956   3.783
 8503TIP3    H225455   4.516   5.967   3.819
 8504TIP3   OH225456   3.164   6.238   3.237
 8504TIP3    H125457   3.236   6.300   3.251
 8504TIP3    H225458   3.198   6.177   3.172
 8505TIP3   OH225459   3.101   5.519   3.375
 8505TIP3    H125460   3.104   5.614   3.374
 8505TIP3    H225461   3.021   5.496   3.327
 8506TIP3   OH225462   4.416   6.976   3.717
 8506TIP3    H125463   4.371   7.020   3.645
 8506TIP3    H225464   4.509   6.991   3.700
 8507TIP3   OH225465   3.483   5.237   4.247
 8507TIP3    H125466   3.460   5.202   4.161
 8507TIP3    H225467   3.480   5.160   4.305
 8508TIP3   OH225468   3.028   6.462   3.623
 8508TIP3    H125469   2.965   6.486   3.690
 8508TIP3    H225470   2.994   6.501   3.543
 8509TIP3   OH225471   3.191   7.002   4.700
 8509TIP3    H125472   3.276   7.004   4.746
 8509TIP3    H225473   3.168   6.909   4.697
 8510TIP3   OH225474   3.667   6.958   4.741
 8510TIP3    H125475   3.760   6.939   4.751
 8510TIP3    H225476   3.638   6.899   4.672
 8511TIP3   OH225477   3.656   6.532   2.878
 8511TIP3    H125478   3.595   6.466   2.911
 8511TIP3    H225479   3.728   6.481   2.841
 8512TIP3   OH225480   4.306   6.870   4.481
 8512TIP3    H125481   4.298   6.800   4.546
 8512TIP3    H225482   4.383   6.919   4.508
 8513TIP3   OH225483   4.088   6.577   2.788
 8513TIP3    H125484   4.121   6.510   2.848
 8513TIP3    H225485   4.145   6.570   2.711
 8514TIP3   OH225486   3.316   6.405   4.899
 8514TIP3    H125487   3.334   6.311   4.908
 8514TIP3    H225488   3.231   6.408   4.855
 8515TIP3   OH225489   3.297   6.051   3.096
 8515TIP3    H125490   3.350   6.020   3.169
 8515TIP3    H225491   3.359   6.059   3.023
 8516TIP3   OH225492   3.924   6.491   4.673
 8516TIP3    H125493   3.884   6.510   4.588
 8516TIP3    H225494   3.955   6.400   4.665
 8517TIP3   OH225495   3.817   6.255   2.905
 8517TIP3    H125496   3.814   6.267   3.000
 8517TIP3    H225497   3.813   6.160   2.892
 8518TIP3   OH225498   4.418   6.505   4.281
 8518TIP3    H125499   4.493   6.545   4.238
 8518TIP3    H225500   4.346   6.566   4.265
 8519TIP3   OH225501   3.440   6.144   4.883
 8519TIP3    H125502   3.513   6.089   4.854
 8519TIP3    H225503   3.466   6.174   4.970
 8520TIP3   OH225504   3.501   5.959   3.314
 8520TIP3    H125505   3.475   5.919   3.397
 8520TIP3    H225506   3.539   5.886   3.264
 8521TIP3   OH225507   3.769   6.025   4.543
 8521TIP3    H125508   3.693   6.083   4.544
 8521TIP3    H225509   3.822   6.057   4.470
 8522TIP3   OH225510   3.606   5.757   3.152
 8522TIP3    H125511   3.579   5.764   3.060
 8522TIP3    H225512   3.702   5.758   3.148
 8523TIP3   OH225513   4.293   6.425   4.677
 8523TIP3    H125514   4.367   6.392   4.626
 8523TIP3    H225515   4.282   6.362   4.748
 8524TIP3   OH225516   4.421   6.084   2.819
 8524TIP3    H125517   4.404   6.037   2.738
 8524TIP3    H225518   4.390   6.173   2.802
 8525TIP3   OH225519   3.892   5.814   4.668
 8525TIP3    H125520   3.896   5.735   4.613
 8525TIP3    H225521   3.849   5.879   4.612
 8526TIP3   OH225522   3.891   5.613   4.475
 8526TIP3    H125523   3.926   5.633   4.388
 8526TIP3    H225524   3.802   5.582   4.458
 8527TIP3   OH225525   3.921   6.136   4.354
 8527TIP3    H125526   4.006   6.137   4.309
 8527TIP3    H225527   3.867   6.198   4.305
 8528TIP3   OH225528   4.506   6.098   4.730
 8528TIP3    H125529   4.544   6.011   4.741
 8528TIP3    H225530   4.577   6.150   4.692
 8529TIP3   OH225531   4.547   6.359   4.467
 8529TIP3    H125532   4.489   6.410   4.411
 8529TIP3    H225533   4.635   6.374   4.431
 8530TIP3   OH225534   3.771   5.918   4.901
 8530TIP3    H125535   3.706   5.851   4.918
 8530TIP3    H225536   3.808   5.896   4.815
 8531TIP3   OH225537   4.039   5.366   4.553
 8531TIP3    H125538   3.974   5.430   4.523
 8531TIP3    H225539   4.013   5.284   4.512
 8532TIP3   OH225540   4.150   5.865   4.762
 8532TIP3    H125541   4.141   5.848   4.856
 8532TIP3    H225542   4.065   5.841   4.725
 8533TIP3   OH225543   4.398   5.823   4.621
 8533TIP3    H125544   4.322   5.814   4.679
 8533TIP3    H225545   4.470   5.786   4.671
 8534TIP3   OH225546   4.628   5.758   4.767
 8534TIP3    H125547   4.640   5.663   4.778
 8534TIP3    H225548   4.623   5.792   4.856
 8535TIP3   OH225549   3.614   5.698   4.959
 8535TIP3    H125550   3.616   5.610   4.922
 8535TIP3    H225551   3.653   5.688   5.046
 8536TIP3   OH225552   4.119   5.368   4.813
 8536TIP3    H125553   4.186   5.300   4.807
 8536TIP3    H225554   4.083   5.374   4.724
 8537TIP3   OH225555   4.191   5.587   4.961
 8537TIP3    H125556   4.174   5.514   4.902
 8537TIP3    H225557   4.114   5.643   4.953
 8538TIP3   OH225558   3.415   6.827   3.066
 8538TIP3    H125559   3.507   6.815   3.041
 8538TIP3    H225560   3.373   6.858   2.985
 8539TIP3   OH225561   2.894   6.197   3.276
 8539TIP3    H125562   2.985   6.220   3.262
 8539TIP3    H225563   2.884   6.110   3.237
 8540TIP3   OH225564   2.807   6.807   3.694
 8540TIP3    H125565   2.742   6.749   3.655
 8540TIP3    H225566   2.852   6.752   3.759
 8541TIP3   OH225567   2.941   6.657   3.884
 8541TIP3    H125568   2.929   6.584   3.945
 8541TIP3    H225569   2.994   6.720   3.932
 8542TIP3   OH225570   4.670   7.065   3.680
 8542TIP3    H125571   4.696   7.090   3.769
 8542TIP3    H225572   4.739   7.100   3.624
 8543TIP3   OH225573   4.700   7.076   3.963
 8543TIP3    H125574   4.651   6.994   3.957
 8543TIP3    H225575   4.774   7.056   4.020
 8544TIP3   OH225576   4.743   6.760   4.535
 8544TIP3    H125577   4.673   6.766   4.600
 8544TIP3    H225578   4.787   6.845   4.538
 8545TIP3   OH225579   4.565   6.269   3.154
 8545TIP3    H125580   4.629   6.333   3.124
 8545TIP3    H225581   4.604   6.231   3.232
 8546TIP3   OH225582   4.689   6.137   3.360
 8546TIP3    H125583   4.623   6.095   3.416
 8546TIP3    H225584   4.753   6.172   3.422
 8547TIP3   OH225585   4.747   6.532   3.787
 8547TIP3    H125586   4.798   6.463   3.745
 8547TIP3    H225587   4.739   6.600   3.720
 8548TIP3   OH225588   4.570   6.832   3.981
 8548TIP3    H125589   4.501   6.870   4.035
 8548TIP3    H225590   4.524   6.784   3.912
 8549TIP3   OH225591   4.624   6.048   3.002
 8549TIP3    H125592   4.555   6.046   2.935
 8549TIP3    H225593   4.598   6.119   3.060
 8550TIP3   OH225594   4.497   5.715   2.952
 8550TIP3    H125595   4.448   5.751   2.877
 8550TIP3    H225596   4.478   5.621   2.949
 8551TIP3   OH225597   4.501   5.994   3.503
 8551TIP3    H125598   4.508   5.899   3.495
 8551TIP3    H225599   4.486   6.008   3.597
 8552TIP3   OH225600   3.128   6.069   4.249
 8552TIP3    H125601   3.123   6.034   4.160
 8552TIP3    H225602   3.222   6.070   4.269
 8553TIP3   OH225603   4.795   6.419   4.360
 8553TIP3    H125604   4.862   6.352   4.352
 8553TIP3    H225605   4.819   6.485   4.295
 8554TIP3   OH225606   4.976   6.218   4.371
 8554TIP3    H125607   4.900   6.172   4.407
 8554TIP3    H225608   5.050   6.159   4.387
 8555TIP3   OH225609   4.441   5.450   2.938
 8555TIP3    H125610   4.512   5.419   2.994
 8555TIP3    H225611   4.367   5.394   2.960
 8556TIP3   OH225612   4.501   5.709   3.393
 8556TIP3    H125613   4.538   5.622   3.411
 8556TIP3    H225614   4.557   5.744   3.323
 8557TIP3   OH225615   4.660   5.883   3.892
 8557TIP3    H125616   4.743   5.905   3.849
 8557TIP3    H225617   4.670   5.916   3.981
 8558TIP3   OH225618   4.729   6.030   4.120
 8558TIP3    H125619   4.654   6.060   4.172
 8558TIP3    H225620   4.763   6.110   4.079
 8559TIP3   OH225621   3.349   5.753   4.930
 8559TIP3    H125622   3.445   5.749   4.929
 8559TIP3    H225623   3.321   5.668   4.964
 8560TIP3   OH225624   5.181   5.622   4.675
 8560TIP3    H125625   5.240   5.557   4.640
 8560TIP3    H225626   5.153   5.673   4.599
 8561TIP3   OH225627   4.606   5.459   3.434
 8561TIP3    H125628   4.655   5.447   3.515
 8561TIP3    H225629   4.545   5.386   3.432
 8562TIP3   OH225630   3.307   5.448   4.258
 8562TIP3    H125631   3.362   5.371   4.265
 8562TIP3    H225632   3.369   5.521   4.247
 8563TIP3   OH225633   3.107   5.721   4.323
 8563TIP3    H125634   3.156   5.713   4.241
 8563TIP3    H225635   3.142   5.799   4.365
 8564TIP3   OH225636   5.048   5.756   4.475
 8564TIP3    H125637   4.965   5.798   4.498
 8564TIP3    H225638   5.023   5.680   4.424
 8565TIP3   OH225639   4.685   5.393   3.067
 8565TIP3    H125640   4.723   5.322   3.015
 8565TIP3    H225641   4.752   5.462   3.066
 8566TIP3   OH225642   3.092   5.222   3.827
 8566TIP3    H125643   3.002   5.217   3.857
 8566TIP3    H225644   3.089   5.280   3.751
 8567TIP3   OH225645   4.253   6.933   3.332
 8567TIP3    H125646   4.303   6.918   3.252
 8567TIP3    H225647   4.307   6.991   3.385
 8568TIP3   OH225648   3.304   5.316   4.648
 8568TIP3    H125649   3.253   5.301   4.727
 8568TIP3    H225650   3.239   5.346   4.584
 8569TIP3   OH225651   3.350   6.736   4.719
 8569TIP3    H125652   3.261   6.709   4.701
 8569TIP3    H225653   3.366   6.710   4.810
 8570TIP3   OH225654   3.534   6.770   4.266
 8570TIP3    H125655   3.484   6.843   4.229
 8570TIP3    H225656   3.620   6.777   4.224
 8571TIP3   OH225657   3.976   7.010   4.406
 8571TIP3    H125658   4.015   7.006   4.493
 8571TIP3    H225659   4.039   7.059   4.354
 8572TIP3   OH225660   4.155   7.163   4.266
 8572TIP3    H125661   4.221   7.108   4.223
 8572TIP3    H225662   4.206   7.218   4.326
 8573TIP3   OH225663   4.951   5.512   4.363
 8573TIP3    H125664   4.861   5.498   4.335
 8573TIP3    H225665   4.992   5.426   4.358
 8574TIP3   OH225666   3.205   7.025   4.290
 8574TIP3    H125667   3.117   7.055   4.268
 8574TIP3    H225668   3.221   7.060   4.377
 8575TIP3   OH225669   3.443   7.003   4.150
 8575TIP3    H125670   3.358   7.013   4.194
 8575TIP3    H225671   3.426   7.031   4.060
 8576TIP3   OH225672   3.869   7.029   3.948
 8576TIP3    H125673   3.799   7.044   3.884
 8576TIP3    H225674   3.881   7.113   3.991
 8577TIP3   OH225675   4.138   6.968   4.000
 8577TIP3    H125676   4.045   6.982   3.980
 8577TIP3    H225677   4.184   7.040   3.956
 8578TIP3   OH225678   4.345   7.158   3.910
 8578TIP3    H125679   4.332   7.240   3.864
 8578TIP3    H225680   4.372   7.096   3.842
 8579TIP3   OH225681   3.122   6.812   4.038
 8579TIP3    H125682   3.144   6.786   4.127
 8579TIP3    H225683   3.190   6.771   3.984
 8580TIP3   OH225684   3.317   6.686   3.897
 8580TIP3    H125685   3.327   6.603   3.943
 8580TIP3    H225686   3.406   6.721   3.891
 8581TIP3   OH225687   3.586   6.777   3.901
 8581TIP3    H125688   3.611   6.686   3.886
 8581TIP3    H225689   3.631   6.802   3.982
 8582TIP3   OH225690   4.142   5.426   3.974
 8582TIP3    H125691   4.102   5.365   4.036
 8582TIP3    H225692   4.222   5.383   3.946
 8583TIP3   OH225693   4.673   5.317   3.879
 8583TIP3    H125694   4.709   5.370   3.808
 8583TIP3    H225695   4.579   5.336   3.878
 8584TIP3   OH225696   4.774   5.419   3.646
 8584TIP3    H125697   4.846   5.364   3.613
 8584TIP3    H225698   4.806   5.509   3.635
 8585TIP3   OH225699   3.402   5.140   3.997
 8585TIP3    H125700   3.311   5.110   4.002
 8585TIP3    H225701   3.454   5.059   3.995
 8586TIP3   OH225702   3.187   5.018   3.649
 8586TIP3    H125703   3.220   5.071   3.576
 8586TIP3    H225704   3.164   5.081   3.717
 8587TIP3   OH225705   3.851   5.181   3.890
 8587TIP3    H125706   3.905   5.228   3.827
 8587TIP3    H225707   3.892   5.200   3.975
 8588TIP3   OH225708   4.393   5.324   3.864
 8588TIP3    H125709   4.387   5.282   3.778
 8588TIP3    H225710   4.382   5.251   3.926
 8589TIP3   OH225711   4.422   5.247   3.429
 8589TIP3    H125712   4.339   5.292   3.445
 8589TIP3    H225713   4.411   5.162   3.472
 8590TIP3   OH225714   2.905   6.591   3.421
 8590TIP3    H125715   2.822   6.553   3.392
 8590TIP3    H225716   2.898   6.684   3.400
 8591TIP3   OH225717   3.313   5.175   3.408
 8591TIP3    H125718   3.357   5.110   3.352
 8591TIP3    H225719   3.384   5.227   3.444
 8592TIP3   OH225720   3.821   5.355   3.510
 8592TIP3    H125721   3.876   5.303   3.569
 8592TIP3    H225722   3.839   5.446   3.534
 8593TIP3   OH225723   3.678   6.775   2.998
 8593TIP3    H125724   3.768   6.797   2.972
 8593TIP3    H225725   3.656   6.697   2.946
 8594TIP3   OH225726   4.400   6.892   3.101
 8594TIP3    H125727   4.394   6.797   3.095
 8594TIP3    H225728   4.355   6.924   3.023
 8595TIP3   OH225729   3.612   5.426   4.895
 8595TIP3    H125730   3.576   5.355   4.948
 8595TIP3    H225731   3.705   5.426   4.916
 8596TIP3   OH225732   3.864   5.423   5.008
 8596TIP3    H125733   3.945   5.400   4.960
 8596TIP3    H225734   3.854   5.353   5.072
 8597TIP3   OH225735   2.990   6.617   3.062
 8597TIP3    H125736   2.985   6.622   3.158
 8597TIP3    H225737   3.073   6.573   3.044
 8598TIP3   OH225738   4.690   5.489   4.798
 8598TIP3    H125739   4.704   5.456   4.887
 8598TIP3    H225740   4.776   5.481   4.756
 8599TIP3   OH225741   4.620   7.038   4.288
 8599TIP3    H125742   4.545   7.005   4.239
 8599TIP3    H225743   4.603   7.132   4.298
 8600TIP3   OH225744   5.892   6.411   3.051
 8600TIP3    H125745   5.864   6.501   3.035
 8600TIP3    H225746   5.818   6.358   3.023
 8601TIP3   OH225747   5.889   6.407   3.442
 8601TIP3    H125748   5.927   6.389   3.528
 8601TIP3    H225749   5.848   6.325   3.416
 8602TIP3   OH225750   5.189   6.301   3.803
 8602TIP3    H125751   5.213   6.231   3.864
 8602TIP3    H225752   5.267   6.356   3.798
 8603TIP3   OH225753   6.134   6.718   3.121
 8603TIP3    H125754   6.121   6.647   3.184
 8603TIP3    H225755   6.167   6.791   3.174
 8604TIP3   OH225756   5.163   6.713   3.522
 8604TIP3    H125757   5.151   6.618   3.523
 8604TIP3    H225758   5.258   6.726   3.522
 8605TIP3   OH225759   4.867   5.918   3.304
 8605TIP3    H125760   4.821   6.000   3.326
 8605TIP3    H225761   4.799   5.862   3.267
 8606TIP3   OH225762   4.927   6.202   3.487
 8606TIP3    H125763   4.973   6.126   3.522
 8606TIP3    H225764   4.985   6.237   3.420
 8607TIP3   OH225765   5.787   7.172   3.137
 8607TIP3    H125766   5.829   7.103   3.086
 8607TIP3    H225767   5.780   7.135   3.225
 8608TIP3   OH225768   5.692   6.637   3.484
 8608TIP3    H125769   5.727   6.557   3.443
 8608TIP3    H225770   5.770   6.686   3.511
 8609TIP3   OH225771   6.108   6.135   3.510
 8609TIP3    H125772   6.142   6.050   3.537
 8609TIP3    H225773   6.070   6.119   3.424
 8610TIP3   OH225774   5.442   5.797   3.476
 8610TIP3    H125775   5.422   5.869   3.417
 8610TIP3    H225776   5.395   5.722   3.439
 8611TIP3   OH225777   6.141   5.888   3.100
 8611TIP3    H125778   6.207   5.871   3.167
 8611TIP3    H225779   6.191   5.923   3.026
 8612TIP3   OH225780   5.076   5.996   3.587
 8612TIP3    H125781   5.155   5.979   3.638
 8612TIP3    H225782   5.086   5.942   3.509
 8613TIP3   OH225783   5.514   6.194   3.384
 8613TIP3    H125784   5.606   6.172   3.397
 8613TIP3    H225785   5.474   6.112   3.352
 8614TIP3   OH225786   5.435   5.781   3.917
 8614TIP3    H125787   5.376   5.816   3.849
 8614TIP3    H225788   5.387   5.792   3.998
 8615TIP3   OH225789   5.780   6.634   2.922
 8615TIP3    H125790   5.736   6.611   2.840
 8615TIP3    H225791   5.737   6.714   2.951
 8616TIP3   OH225792   5.543   6.558   3.707
 8616TIP3    H125793   5.484   6.623   3.745
 8616TIP3    H225794   5.586   6.604   3.635
 8617TIP3   OH225795   6.339   5.893   3.286
 8617TIP3    H125796   6.308   5.853   3.367
 8617TIP3    H225797   6.387   5.971   3.315
 8618TIP3   OH225798   5.311   5.896   3.697
 8618TIP3    H125799   5.370   5.966   3.725
 8618TIP3    H225800   5.357   5.853   3.624
 8619TIP3   OH225801   5.369   6.755   3.809
 8619TIP3    H125802   5.348   6.841   3.773
 8619TIP3    H225803   5.294   6.732   3.863
 8620TIP3   OH225804   4.764   6.443   3.042
 8620TIP3    H125805   4.720   6.470   2.961
 8620TIP3    H225806   4.796   6.525   3.080
 8621TIP3   OH225807   6.198   6.958   3.281
 8621TIP3    H125808   6.112   6.948   3.322
 8621TIP3    H225809   6.195   7.044   3.239
 8622TIP3   OH225810   5.786   5.493   3.634
 8622TIP3    H125811   5.775   5.400   3.653
 8622TIP3    H225812   5.712   5.535   3.678
 8623TIP3   OH225813   5.904   7.000   2.951
 8623TIP3    H125814   5.951   6.918   2.938
 8623TIP3    H225815   5.963   7.067   2.916
 8624TIP3   OH225816   6.050   6.784   2.868
 8624TIP3    H125817   6.007   6.706   2.835
 8624TIP3    H225818   6.088   6.757   2.951
 8625TIP3   OH225819   6.427   6.867   3.627
 8625TIP3    H125820   6.419   6.790   3.570
 8625TIP3    H225821   6.413   6.941   3.568
 8626TIP3   OH225822   5.721   6.262   2.886
 8626TIP3    H125823   5.643   6.312   2.866
 8626TIP3    H225824   5.769   6.258   2.803
 8627TIP3   OH225825   5.681   6.051   2.595
 8627TIP3    H125826   5.744   6.102   2.647
 8627TIP3    H225827   5.734   5.987   2.549
 8628TIP3   OH225828   6.618   6.486   3.462
 8628TIP3    H125829   6.541   6.541   3.479
 8628TIP3    H225830   6.658   6.525   3.384
 8629TIP3   OH225831   6.071   6.347   2.856
 8629TIP3    H125832   6.015   6.369   2.931
 8629TIP3    H225833   6.154   6.322   2.895
 8630TIP3   OH225834   6.301   6.384   3.774
 8630TIP3    H125835   6.304   6.464   3.826
 8630TIP3    H225836   6.217   6.388   3.728
 8631TIP3   OH225837   5.305   6.339   3.273
 8631TIP3    H125838   5.263   6.283   3.208
 8631TIP3    H225839   5.378   6.288   3.306
 8632TIP3   OH225840   5.436   6.756   3.419
 8632TIP3    H125841   5.413   6.714   3.336
 8632TIP3    H225842   5.522   6.721   3.440
 8633TIP3   OH225843   5.436   6.314   3.628
 8633TIP3    H125844   5.470   6.287   3.542
 8633TIP3    H225845   5.480   6.397   3.647
 8634TIP3   OH225846   5.960   6.951   3.406
 8634TIP3    H125847   5.950   7.030   3.460
 8634TIP3    H225848   5.946   6.879   3.467
 8635TIP3   OH225849   5.574   6.870   3.952
 8635TIP3    H125850   5.517   6.930   4.000
 8635TIP3    H225851   5.514   6.815   3.902
 8636TIP3   OH225852   5.908   6.207   2.682
 8636TIP3    H125853   5.966   6.262   2.735
 8636TIP3    H225854   5.932   6.227   2.592
 8637TIP3   OH225855   5.329   6.427   4.056
 8637TIP3    H125856   5.336   6.513   4.099
 8637TIP3    H225857   5.238   6.402   4.070
 8638TIP3   OH225858   5.656   6.879   2.952
 8638TIP3    H125859   5.738   6.927   2.965
 8638TIP3    H225860   5.593   6.946   2.925
 8639TIP3   OH225861   5.367   7.035   4.041
 8639TIP3    H125862   5.334   7.037   3.951
 8639TIP3    H225863   5.290   7.014   4.094
 8640TIP3   OH225864   6.424   5.443   2.733
 8640TIP3    H125865   6.344   5.461   2.782
 8640TIP3    H225866   6.439   5.523   2.682
 8641TIP3   OH225867   5.169   6.185   3.073
 8641TIP3    H125868   5.099   6.225   3.023
 8641TIP3    H225869   5.137   6.097   3.094
 8642TIP3   OH225870   6.224   6.816   2.260
 8642TIP3    H125871   6.239   6.910   2.263
 8642TIP3    H225872   6.312   6.777   2.259
 8643TIP3   OH225873   4.949   6.567   3.986
 8643TIP3    H125874   4.882   6.546   3.921
 8643TIP3    H225875   4.986   6.482   4.010
 8644TIP3   OH225876   4.805   6.765   3.612
 8644TIP3    H125877   4.900   6.751   3.607
 8644TIP3    H225878   4.796   6.837   3.675
 8645TIP3   OH225879   6.661   7.217   3.677
 8645TIP3    H125880   6.667   7.122   3.690
 8645TIP3    H225881   6.581   7.242   3.723
 8646TIP3   OH225882   5.770   7.001   3.811
 8646TIP3    H125883   5.769   7.091   3.842
 8646TIP3    H225884   5.702   6.957   3.862
 8647TIP3   OH225885   5.535   7.129   2.760
 8647TIP3    H125886   5.483   7.115   2.680
 8647TIP3    H225887   5.505   7.213   2.793
 8648TIP3   OH225888   4.973   6.972   3.150
 8648TIP3    H125889   5.019   6.967   3.234
 8648TIP3    H225890   4.924   6.891   3.145
 8649TIP3   OH225891   5.739   7.022   2.404
 8649TIP3    H125892   5.811   6.963   2.381
 8649TIP3    H225893   5.757   7.047   2.495
 8650TIP3   OH225894   5.784   7.076   2.670
 8650TIP3    H125895   5.699   7.087   2.712
 8650TIP3    H225896   5.841   7.041   2.739
 8651TIP3   OH225897   6.553   6.339   3.955
 8651TIP3    H125898   6.471   6.351   3.907
 8651TIP3    H225899   6.572   6.246   3.949
 8652TIP3   OH225900   5.152   6.751   3.973
 8652TIP3    H125901   5.202   6.736   4.053
 8652TIP3    H225902   5.079   6.689   3.978
 8653TIP3   OH225903   5.549   5.577   3.760
 8653TIP3    H125904   5.464   5.543   3.730
 8653TIP3    H225905   5.527   5.654   3.812
 8654TIP3   OH225906   6.088   5.688   3.957
 8654TIP3    H125907   6.156   5.661   4.019
 8654TIP3    H225908   6.006   5.669   4.003
 8655TIP3   OH225909   6.323   6.122   3.877
 8655TIP3    H125910   6.275   6.116   3.960
 8655TIP3    H225911   6.299   6.208   3.842
 8656TIP3   OH225912   5.983   6.254   2.427
 8656TIP3    H125913   5.953   6.221   2.342
 8656TIP3    H225914   6.070   6.290   2.409
 8657TIP3   OH225915   5.695   5.621   2.732
 8657TIP3    H125916   5.664   5.621   2.823
 8657TIP3    H225917   5.659   5.541   2.695
 8658TIP3   OH225918   5.484   6.093   3.780
 8658TIP3    H125919   5.436   6.109   3.861
 8658TIP3    H225920   5.469   6.171   3.727
 8659TIP3   OH225921   5.365   5.976   3.290
 8659TIP3    H125922   5.276   5.950   3.313
 8659TIP3    H225923   5.380   5.936   3.204
 8660TIP3   OH225924   5.860   6.062   3.021
 8660TIP3    H125925   5.809   6.131   2.979
 8660TIP3    H225926   5.915   6.027   2.950
 8661TIP3   OH225927   6.035   6.337   4.107
 8661TIP3    H125928   6.010   6.265   4.166
 8661TIP3    H225929   6.127   6.353   4.127
 8662TIP3   OH225930   6.016   6.087   3.253
 8662TIP3    H125931   5.951   6.117   3.189
 8662TIP3    H225932   6.053   6.008   3.215
 8663TIP3   OH225933   5.303   6.116   3.988
 8663TIP3    H125934   5.335   6.177   4.054
 8663TIP3    H225935   5.291   6.033   4.035
 8664TIP3   OH225936   5.351   5.599   2.697
 8664TIP3    H125937   5.346   5.594   2.793
 8664TIP3    H225938   5.275   5.650   2.671
 8665TIP3   OH225939   4.899   5.642   3.564
 8665TIP3    H125940   4.971   5.672   3.620
 8665TIP3    H225941   4.943   5.605   3.487
 8666TIP3   OH225942   4.863   5.623   3.084
 8666TIP3    H125943   4.911   5.656   3.008
 8666TIP3    H225944   4.802   5.693   3.106
 8667TIP3   OH225945   6.023   6.330   3.677
 8667TIP3    H125946   6.060   6.264   3.619
 8667TIP3    H225947   5.995   6.281   3.754
 8668TIP3   OH225948   5.700   5.799   3.355
 8668TIP3    H125949   5.618   5.797   3.405
 8668TIP3    H225950   5.769   5.790   3.420
 8669TIP3   OH225951   5.130   5.854   3.358
 8669TIP3    H125952   5.038   5.862   3.332
 8669TIP3    H225953   5.153   5.763   3.339
 8670TIP3   OH225954   5.395   5.849   3.051
 8670TIP3    H125955   5.488   5.863   3.031
 8670TIP3    H225956   5.349   5.870   2.969
 8671TIP3   OH225957   6.168   5.870   3.545
 8671TIP3    H125958   6.155   5.884   3.639
 8671TIP3    H225959   6.098   5.810   3.520
 8672TIP3   OH225960   5.244   5.887   2.825
 8672TIP3    H125961   5.171   5.841   2.783
 8672TIP3    H225962   5.295   5.922   2.753
 8673TIP3   OH225963   6.363   7.565   3.775
 8673TIP3    H125964   6.360   7.586   3.682
 8673TIP3    H225965   6.442   7.607   3.808
 8674TIP3   OH225966   5.315   6.676   4.196
 8674TIP3    H125967   5.396   6.703   4.242
 8674TIP3    H225968   5.250   6.670   4.266
 8675TIP3   OH225969   5.778   6.129   3.454
 8675TIP3    H125970   5.849   6.085   3.406
 8675TIP3    H225971   5.777   6.087   3.540
 8676TIP3   OH225972   5.297   5.610   3.335
 8676TIP3    H125973   5.259   5.538   3.386
 8676TIP3    H225974   5.347   5.567   3.267
 8677TIP3   OH225975   5.754   6.034   3.732
 8677TIP3    H125976   5.665   6.062   3.753
 8677TIP3    H225977   5.810   6.088   3.787
 8678TIP3   OH225978   5.490   6.414   2.833
 8678TIP3    H125979   5.422   6.348   2.820
 8678TIP3    H225980   5.473   6.448   2.921
 8679TIP3   OH225981   6.393   6.649   3.460
 8679TIP3    H125982   6.419   6.700   3.383
 8679TIP3    H225983   6.309   6.610   3.435
 8680TIP3   OH225984   5.946   5.726   2.699
 8680TIP3    H125985   5.853   5.706   2.710
 8680TIP3    H225986   5.954   5.818   2.727
 8681TIP3   OH225987   5.887   6.732   3.833
 8681TIP3    H125988   5.923   6.712   3.919
 8681TIP3    H225989   5.852   6.821   3.842
 8682TIP3   OH225990   6.018   5.976   2.804
 8682TIP3    H125991   6.113   5.979   2.819
 8682TIP3    H225992   6.001   6.054   2.751
 8683TIP3   OH225993   5.187   6.438   3.508
 8683TIP3    H125994   5.224   6.409   3.424
 8683TIP3    H225995   5.226   6.381   3.573
 8684TIP3   OH225996   5.627   6.563   2.644
 8684TIP3    H125997   5.584   6.648   2.654
 8684TIP3    H225998   5.583   6.506   2.707
 8685TIP3   OH225999   5.066   6.355   4.126
 8685TIP3    H126000   5.084   6.342   4.219
 8685TIP3    H226001   4.998   6.291   4.105
 8686TIP3   OH226002   5.794   6.472   4.142
 8686TIP3    H126003   5.730   6.412   4.102
 8686TIP3    H226004   5.879   6.437   4.116
 8687TIP3   OH226005   6.047   6.996   3.730
 8687TIP3    H126006   5.952   6.991   3.742
 8687TIP3    H226007   6.078   7.045   3.807
 8688TIP3   OH226008   6.456   6.063   2.640
 8688TIP3    H126009   6.394   6.016   2.583
 8688TIP3    H226010   6.457   6.152   2.604
 8689TIP3   OH226011   6.676   6.924   3.717
 8689TIP3    H126012   6.580   6.919   3.713
 8689TIP3    H226013   6.706   6.895   3.631
 8690TIP3   OH226014   6.141   6.880   2.537
 8690TIP3    H126015   6.135   6.826   2.616
 8690TIP3    H226016   6.183   6.823   2.472
 8691TIP3   OH226017   6.155   6.512   3.375
 8691TIP3    H126018   6.063   6.490   3.391
 8691TIP3    H226019   6.191   6.433   3.335
 8692TIP3   OH226020   5.284   6.742   3.132
 8692TIP3    H126021   5.280   6.823   3.080
 8692TIP3    H226022   5.193   6.722   3.153
 8693TIP3   OH226023   4.848   6.046   2.844
 8693TIP3    H126024   4.894   6.127   2.864
 8693TIP3    H226025   4.772   6.046   2.902
 8694TIP3   OH226026   5.417   6.505   3.077
 8694TIP3    H126027   5.384   6.593   3.096
 8694TIP3    H226028   5.387   6.451   3.150
 8695TIP3   OH226029   5.558   7.084   3.604
 8695TIP3    H126030   5.600   7.155   3.554
 8695TIP3    H226031   5.630   7.044   3.653
 8696TIP3   OH226032   5.200   6.984   2.987
 8696TIP3    H126033   5.117   6.988   3.035
 8696TIP3    H226034   5.234   7.073   2.990
 8697TIP3   OH226035   5.941   6.718   3.566
 8697TIP3    H126036   5.927   6.718   3.661
 8697TIP3    H226037   6.021   6.667   3.554
 8698TIP3   OH226038   5.912   6.627   2.444
 8698TIP3    H126039   5.974   6.605   2.514
 8698TIP3    H226040   5.829   6.588   2.472
 8699TIP3   OH226041   6.187   7.250   3.613
 8699TIP3    H126042   6.111   7.193   3.610
 8699TIP3    H226043   6.173   7.313   3.543
 8700TIP3   OH226044   6.251   7.089   2.266
 8700TIP3    H126045   6.298   7.154   2.212
 8700TIP3    H226046   6.177   7.137   2.302
 8701TIP3   OH226047   5.273   5.862   4.130
 8701TIP3    H126048   5.177   5.864   4.140
 8701TIP3    H226049   5.303   5.804   4.200
 8702TIP3   OH226050   6.080   6.542   2.653
 8702TIP3    H126051   6.063   6.481   2.724
 8702TIP3    H226052   6.175   6.541   2.643
 8703TIP3   OH226053   4.993   6.944   3.764
 8703TIP3    H126054   5.045   6.870   3.797
 8703TIP3    H226055   5.018   7.017   3.821
 8704TIP3   OH226056   5.277   6.589   2.448
 8704TIP3    H126057   5.291   6.498   2.422
 8704TIP3    H226058   5.260   6.584   2.543
 8705TIP3   OH226059   5.228   6.599   2.718
 8705TIP3    H126060   5.296   6.566   2.776
 8705TIP3    H226061   5.231   6.694   2.730
 8706TIP3   OH226062   4.958   6.291   2.923
 8706TIP3    H126063   4.894   6.330   2.981
 8706TIP3    H226064   4.973   6.356   2.855
 8707TIP3   OH226065   6.122   5.919   3.812
 8707TIP3    H126066   6.195   5.963   3.855
 8707TIP3    H226067   6.104   5.843   3.866
 8708TIP3   OH226068   5.997   5.676   2.983
 8708TIP3    H126069   5.983   5.696   2.890
 8708TIP3    H226070   6.036   5.756   3.019
 8709TIP3   OH226071   5.492   6.797   2.662
 8709TIP3    H126072   5.406   6.811   2.702
 8709TIP3    H226073   5.515   6.881   2.622
 8710TIP3   OH226074   5.680   5.861   3.085
 8710TIP3    H126075   5.742   5.931   3.067
 8710TIP3    H226076   5.684   5.849   3.180
 8711TIP3   OH226077   5.955   6.174   3.890
 8711TIP3    H126078   5.975   6.228   3.966
 8711TIP3    H226079   6.004   6.093   3.903
 8712TIP3   OH226080   5.825   5.582   3.183
 8712TIP3    H126081   5.817   5.656   3.243
 8712TIP3    H226082   5.885   5.611   3.115
 8713TIP3   OH226083   5.240   6.872   2.738
 8713TIP3    H126084   5.210   6.939   2.677
 8713TIP3    H226085   5.223   6.910   2.825
 8714TIP3   OH226086   5.341   5.586   2.972
 8714TIP3    H126087   5.334   5.672   3.013
 8714TIP3    H226088   5.434   5.563   2.979
 8715TIP3   OH226089   6.589   6.085   3.845
 8715TIP3    H126090   6.500   6.064   3.871
 8715TIP3    H226091   6.579   6.129   3.760
 8716TIP3   OH226092   6.246   6.261   3.261
 8716TIP3    H126093   6.165   6.211   3.272
 8716TIP3    H226094   6.311   6.213   3.313
 8717TIP3   OH226095   4.961   6.494   2.724
 8717TIP3    H126096   5.028   6.561   2.738
 8717TIP3    H226097   4.999   6.434   2.660
 8718TIP3   OH226098   4.898   5.775   2.859
 8718TIP3    H126099   4.899   5.871   2.858
 8718TIP3    H226100   4.814   5.751   2.820
 8719TIP3   OH226101   6.213   7.230   3.202
 8719TIP3    H126102   6.169   7.274   3.130
 8719TIP3    H226103   6.306   7.248   3.188
 8720TIP3   OH226104   5.287   5.493   3.732
 8720TIP3    H126105   5.257   5.458   3.648
 8720TIP3    H226106   5.279   5.420   3.793
 8721TIP3   OH226107   4.823   6.716   3.110
 8721TIP3    H126108   4.761   6.742   3.179
 8721TIP3    H226109   4.788   6.756   3.031
 8722TIP3   OH226110   4.988   7.258   4.187
 8722TIP3    H126111   5.072   7.261   4.233
 8722TIP3    H226112   4.965   7.165   4.184
 8723TIP3   OH226113   5.462   7.214   4.229
 8723TIP3    H126114   5.556   7.198   4.239
 8723TIP3    H226115   5.435   7.155   4.159
 8724TIP3   OH226116   5.444   6.782   2.360
 8724TIP3    H126117   5.377   6.726   2.400
 8724TIP3    H226118   5.522   6.727   2.358
 8725TIP3   OH226119   6.102   7.126   3.967
 8725TIP3    H126120   6.094   7.057   4.033
 8725TIP3    H226121   6.179   7.176   3.994
 8726TIP3   OH226122   5.927   6.848   2.241
 8726TIP3    H126123   5.905   6.781   2.306
 8726TIP3    H226124   6.021   6.862   2.252
 8727TIP3   OH226125   5.113   6.662   4.385
 8727TIP3    H126126   5.131   6.569   4.395
 8727TIP3    H226127   5.028   6.665   4.341
 8728TIP3   OH226128   5.097   6.308   2.582
 8728TIP3    H126129   5.146   6.276   2.658
 8728TIP3    H226130   5.162   6.315   2.512
 8729TIP3   OH226131   5.719   6.747   4.160
 8729TIP3    H126132   5.680   6.767   4.075
 8729TIP3    H226133   5.751   6.658   4.151
 8730TIP3   OH226134   5.606   6.522   2.373
 8730TIP3    H126135   5.607   6.535   2.467
 8730TIP3    H226136   5.607   6.427   2.361
 8731TIP3   OH226137   6.212   6.762   3.765
 8731TIP3    H126138   6.291   6.800   3.724
 8731TIP3    H226139   6.144   6.828   3.751
 8732TIP3   OH226140   5.237   6.402   4.369
 8732TIP3    H126141   5.307   6.342   4.344
 8732TIP3    H226142   5.262   6.432   4.457
 8733TIP3   OH226143   5.296   6.217   2.800
 8733TIP3    H126144   5.269   6.182   2.885
 8733TIP3    H226145   5.334   6.142   2.754
 8734TIP3   OH226146   5.568   6.283   4.029
 8734TIP3    H126147   5.490   6.339   4.031
 8734TIP3    H226148   5.619   6.314   3.955
 8735TIP3   OH226149   5.403   6.013   2.639
 8735TIP3    H126150   5.376   6.018   2.547
 8735TIP3    H226151   5.498   6.014   2.636
 8736TIP3   OH226152   6.087   6.681   4.163
 8736TIP3    H126153   6.166   6.653   4.117
 8736TIP3    H226154   6.079   6.619   4.236
 8737TIP3   OH226155   6.213   6.346   2.302
 8737TIP3    H126156   6.200   6.294   2.223
 8737TIP3    H226157   6.182   6.433   2.279
 8738TIP3   OH226158   5.692   6.071   4.153
 8738TIP3    H126159   5.692   5.992   4.100
 8738TIP3    H226160   5.648   6.136   4.099
 8739TIP3   OH226161   5.694   5.859   3.962
 8739TIP3    H126162   5.723   5.895   3.879
 8739TIP3    H226163   5.603   5.834   3.947
 8740TIP3   OH226164   5.718   6.390   3.835
 8740TIP3    H126165   5.804   6.401   3.795
 8740TIP3    H226166   5.662   6.454   3.791
 8741TIP3   OH226167   6.302   6.355   4.215
 8741TIP3    H126168   6.346   6.273   4.235
 8741TIP3    H226169   6.370   6.412   4.180
 8742TIP3   OH226170   6.344   6.613   3.949
 8742TIP3    H126171   6.285   6.665   3.894
 8742TIP3    H226172   6.432   6.631   3.914
 8743TIP3   OH226173   5.569   6.175   4.387
 8743TIP3    H126174   5.503   6.108   4.406
 8743TIP3    H226175   5.604   6.151   4.302
 8744TIP3   OH226176   5.825   5.617   4.029
 8744TIP3    H126177   5.776   5.698   4.010
 8744TIP3    H226178   5.759   5.548   4.022
 8745TIP3   OH226179   5.949   6.120   4.249
 8745TIP3    H126180   5.941   6.105   4.344
 8745TIP3    H226181   5.863   6.098   4.214
 8746TIP3   OH226182   6.188   6.069   4.104
 8746TIP3    H126183   6.114   6.071   4.165
 8746TIP3    H226184   6.262   6.039   4.156
 8747TIP3   OH226185   6.416   6.012   4.251
 8747TIP3    H126186   6.432   5.918   4.266
 8747TIP3    H226187   6.414   6.050   4.339
 8748TIP3   OH226188   5.412   5.954   4.445
 8748TIP3    H126189   5.411   5.865   4.410
 8748TIP3    H226190   5.450   5.946   4.532
 8749TIP3   OH226191   5.923   5.630   4.286
 8749TIP3    H126192   5.986   5.558   4.287
 8749TIP3    H226193   5.880   5.623   4.201
 8750TIP3   OH226194   5.987   5.845   4.445
 8750TIP3    H126195   5.969   5.773   4.385
 8750TIP3    H226196   5.909   5.900   4.441
 8751TIP3   OH226197   5.211   7.074   2.547
 8751TIP3    H126198   5.304   7.064   2.530
 8751TIP3    H226199   5.178   7.126   2.473
 8752TIP3   OH226200   4.689   6.455   2.758
 8752TIP3    H126201   4.782   6.476   2.748
 8752TIP3    H226202   4.680   6.367   2.721
 8753TIP3   OH226203   4.604   7.062   3.182
 8753TIP3    H126204   4.538   7.005   3.143
 8753TIP3    H226205   4.649   7.007   3.246
 8754TIP3   OH226206   4.739   6.911   3.370
 8754TIP3    H126207   4.726   6.840   3.433
 8754TIP3    H226208   4.790   6.976   3.418
 8755TIP3   OH226209   6.465   7.326   3.167
 8755TIP3    H126210   6.494   7.349   3.255
 8755TIP3    H226211   6.537   7.352   3.110
 8756TIP3   OH226212   6.495   7.334   3.450
 8756TIP3    H126213   6.449   7.250   3.446
 8756TIP3    H226214   6.574   7.316   3.501
 8757TIP3   OH226215   6.538   7.016   4.022
 8757TIP3    H126216   6.469   7.023   4.088
 8757TIP3    H226217   6.583   7.100   4.024
 8758TIP3   OH226218   6.356   6.528   2.639
 8758TIP3    H126219   6.420   6.592   2.607
 8758TIP3    H226220   6.399   6.488   2.714
 8759TIP3   OH226221   6.483   6.393   2.842
 8759TIP3    H126222   6.418   6.352   2.899
 8759TIP3    H226223   6.548   6.429   2.902
 8760TIP3   OH226224   6.538   6.786   3.268
 8760TIP3    H126225   6.593   6.720   3.226
 8760TIP3    H226226   6.538   6.860   3.208
 8761TIP3   OH226227   6.366   7.087   3.468
 8761TIP3    H126228   6.297   7.126   3.521
 8761TIP3    H226229   6.320   7.040   3.398
 8762TIP3   OH226230   6.407   6.290   2.501
 8762TIP3    H126231   6.349   6.298   2.426
 8762TIP3    H226232   6.395   6.372   2.549
 8763TIP3   OH226233   6.283   5.970   2.452
 8763TIP3    H126234   6.260   6.009   2.368
 8763TIP3    H226235   6.264   5.876   2.441
 8764TIP3   OH226236   6.296   6.252   2.990
 8764TIP3    H126237   6.303   6.157   2.978
 8764TIP3    H226238   6.282   6.263   3.085
 8765TIP3   OH226239   4.924   6.327   3.735
 8765TIP3    H126240   4.919   6.291   3.646
 8765TIP3    H226241   5.018   6.327   3.755
 8766TIP3   OH226242   6.592   6.676   3.845
 8766TIP3    H126243   6.660   6.609   3.838
 8766TIP3    H226244   6.620   6.745   3.786
 8767TIP3   OH226245   6.771   6.471   3.861
 8767TIP3    H126246   6.699   6.422   3.900
 8767TIP3    H226247   6.846   6.412   3.867
 8768TIP3   OH226248   6.238   5.704   2.424
 8768TIP3    H126249   6.310   5.675   2.480
 8768TIP3    H226250   6.165   5.647   2.447
 8769TIP3   OH226251   6.299   5.967   2.879
 8769TIP3    H126252   6.336   5.880   2.895
 8769TIP3    H226253   6.353   6.003   2.808
 8770TIP3   OH226254   6.467   6.125   3.382
 8770TIP3    H126255   6.540   6.169   3.338
 8770TIP3    H226256   6.466   6.163   3.470
 8771TIP3   OH226257   6.514   6.272   3.610
 8771TIP3    H126258   6.441   6.310   3.660
 8771TIP3    H226259   6.560   6.348   3.575
 8772TIP3   OH226260   5.147   6.012   4.420
 8772TIP3    H126261   5.243   6.006   4.418
 8772TIP3    H226262   5.118   5.926   4.451
 8773TIP3   OH226263   6.972   5.875   4.163
 8773TIP3    H126264   7.034   5.811   4.127
 8773TIP3    H226265   6.945   5.927   4.087
 8774TIP3   OH226266   6.403   5.716   2.924
 8774TIP3    H126267   6.450   5.700   3.006
 8774TIP3    H226268   6.341   5.643   2.918
 8775TIP3   OH226269   5.105   5.703   3.739
 8775TIP3    H126270   5.162   5.626   3.750
 8775TIP3    H226271   5.166   5.777   3.733
 8776TIP3   OH226272   4.904   5.977   3.810
 8776TIP3    H126273   4.953   5.972   3.728
 8776TIP3    H226274   4.938   6.055   3.854
 8777TIP3   OH226275   6.844   6.014   3.963
 8777TIP3    H126276   6.767   6.061   3.995
 8777TIP3    H226277   6.810   5.946   3.906
 8778TIP3   OH226278   6.484   5.650   2.556
 8778TIP3    H126279   6.520   5.580   2.501
 8778TIP3    H226280   6.548   5.721   2.550
 8779TIP3   OH226281   4.889   5.478   3.313
 8779TIP3    H126282   4.799   5.472   3.345
 8779TIP3    H226283   4.884   5.536   3.238
 8780TIP3   OH226284   6.046   7.188   2.817
 8780TIP3    H126285   6.101   7.177   2.740
 8780TIP3    H226286   6.095   7.247   2.874
 8781TIP3   OH226287   5.110   5.568   4.132
 8781TIP3    H126288   5.060   5.552   4.213
 8781TIP3    H226289   5.044   5.597   4.069
 8782TIP3   OH226290   5.147   6.992   4.205
 8782TIP3    H126291   5.057   6.964   4.188
 8782TIP3    H226292   5.163   6.966   4.296
 8783TIP3   OH226293   5.330   7.026   3.750
 8783TIP3    H126294   5.281   7.100   3.715
 8783TIP3    H226295   5.417   7.034   3.710
 8784TIP3   OH226296   5.772   7.267   3.892
 8784TIP3    H126297   5.811   7.263   3.980
 8784TIP3    H226298   5.835   7.317   3.840
 8785TIP3   OH226299   5.953   7.420   3.753
 8785TIP3    H126300   6.020   7.366   3.711
 8785TIP3    H226301   6.002   7.476   3.813
 8786TIP3   OH226302   6.746   5.766   3.854
 8786TIP3    H126303   6.659   5.742   3.823
 8786TIP3    H226304   6.802   5.692   3.831
 8787TIP3   OH226305   5.001   7.280   3.778
 8787TIP3    H126306   4.913   7.311   3.756
 8787TIP3    H226307   5.019   7.319   3.864
 8788TIP3   OH226308   5.238   7.258   3.637
 8788TIP3    H126309   5.154   7.269   3.681
 8788TIP3    H226310   5.222   7.288   3.547
 8789TIP3   OH226311   5.665   7.286   3.434
 8789TIP3    H126312   5.596   7.302   3.370
 8789TIP3    H226313   5.678   7.370   3.478
 8790TIP3   OH226314   5.935   7.222   3.485
 8790TIP3    H126315   5.843   7.240   3.466
 8790TIP3    H226316   5.982   7.295   3.444
 8791TIP3   OH226317   6.137   7.413   3.396
 8791TIP3    H126318   6.126   7.496   3.351
 8791TIP3    H226319   6.168   7.352   3.328
 8792TIP3   OH226320   4.919   7.068   3.524
 8792TIP3    H126321   4.940   7.042   3.613
 8792TIP3    H226322   4.986   7.027   3.470
 8793TIP3   OH226323   5.113   6.942   3.383
 8793TIP3    H126324   5.124   6.860   3.430
 8793TIP3    H226325   5.202   6.978   3.379
 8794TIP3   OH226326   5.382   7.032   3.389
 8794TIP3    H126327   5.407   6.941   3.377
 8794TIP3    H226328   5.427   7.060   3.469
 8795TIP3   OH226329   5.950   5.687   3.471
 8795TIP3    H126330   5.907   5.620   3.524
 8795TIP3    H226331   6.023   5.642   3.429
 8796TIP3   OH226332   6.466   5.588   3.378
 8796TIP3    H126333   6.503   5.631   3.301
 8796TIP3    H226334   6.372   5.599   3.369
 8797TIP3   OH226335   6.569   5.669   3.136
 8797TIP3    H126336   6.639   5.614   3.101
 8797TIP3    H226337   6.602   5.759   3.126
 8798TIP3   OH226338   5.197   5.397   3.484
 8798TIP3    H126339   5.106   5.367   3.490
 8798TIP3    H226340   5.249   5.316   3.480
 8799TIP3   OH226341   4.984   5.275   3.135
 8799TIP3    H126342   5.015   5.329   3.063
 8799TIP3    H226343   4.959   5.337   3.204
 8800TIP3   OH226344   5.645   5.435   3.367
 8800TIP3    H126345   5.703   5.481   3.306
 8800TIP3    H226346   5.670   5.468   3.454
 8801TIP3   OH226347   6.188   5.576   3.346
 8801TIP3    H126348   6.188   5.536   3.260
 8801TIP3    H226349   6.179   5.502   3.407
 8802TIP3   OH226350   6.218   5.504   2.915
 8802TIP3    H126351   6.135   5.548   2.930
 8802TIP3    H226352   6.208   5.419   2.958
 8803TIP3   OH226353   4.702   6.847   2.907
 8803TIP3    H126354   4.618   6.810   2.877
 8803TIP3    H226355   4.695   6.941   2.889
 8804TIP3   OH226356   5.109   5.432   2.893
 8804TIP3    H126357   5.153   5.366   2.839
 8804TIP3    H226358   5.180   5.484   2.931
 8805TIP3   OH226359   5.617   5.610   2.997
 8805TIP3    H126360   5.672   5.557   3.055
 8805TIP3    H226361   5.637   5.701   3.021
 8806TIP3   OH226362   5.476   7.025   2.490
 8806TIP3    H126363   5.564   7.046   2.458
 8806TIP3    H226364   5.451   6.948   2.439
 8807TIP3   OH226365   6.192   7.147   2.586
 8807TIP3    H126366   6.182   7.052   2.577
 8807TIP3    H226367   6.150   7.183   2.508
 8808TIP3   OH226368   5.408   5.684   4.383
 8808TIP3    H126369   5.370   5.613   4.433
 8808TIP3    H226370   5.501   5.683   4.407
 8809TIP3   OH226371   5.660   5.678   4.498
 8809TIP3    H126372   5.743   5.650   4.459
 8809TIP3    H226373   5.642   5.614   4.566
 8810TIP3   OH226374   4.781   6.868   2.552
 8810TIP3    H126375   4.778   6.884   2.646
 8810TIP3    H226376   4.866   6.825   2.538
 8811TIP3   OH226377   6.486   5.743   4.284
 8811TIP3    H126378   6.500   5.712   4.374
 8811TIP3    H226379   6.573   5.738   4.243
 8812TIP3   OH226380   6.414   7.294   3.777
 8812TIP3    H126381   6.339   7.263   3.726
 8812TIP3    H226382   6.399   7.389   3.784
 8813TIP3   OH226383   7.677   6.659   2.548
 8813TIP3    H126384   7.652   6.751   2.536
 8813TIP3    H226385   7.603   6.609   2.514
 8814TIP3   OH226386   7.673   6.660   2.931
 8814TIP3    H126387   7.712   6.644   3.017
 8814TIP3    H226388   7.636   6.576   2.906
 8815TIP3   OH226389   6.986   6.556   3.293
 8815TIP3    H126390   7.004   6.489   3.359
 8815TIP3    H226391   7.056   6.621   3.305
 8816TIP3   OH226392   7.904   6.962   2.609
 8816TIP3    H126393   7.938   6.885   2.654
 8816TIP3    H226394   7.933   7.036   2.662
 8817TIP3   OH226395   6.952   6.966   3.006
 8817TIP3    H126396   6.946   6.871   3.011
 8817TIP3    H226397   7.046   6.984   3.014
 8818TIP3   OH226398   6.661   6.167   2.799
 8818TIP3    H126399   6.622   6.253   2.813
 8818TIP3    H226400   6.596   6.118   2.750
 8819TIP3   OH226401   6.717   6.458   2.975
 8819TIP3    H126402   6.768   6.384   3.006
 8819TIP3    H226403   6.777   6.506   2.917
 8820TIP3   OH226404   7.598   7.398   2.625
 8820TIP3    H126405   7.667   7.332   2.624
 8820TIP3    H226406   7.558   7.389   2.712
 8821TIP3   OH226407   7.489   6.892   2.970
 8821TIP3    H126408   7.529   6.812   2.935
 8821TIP3    H226409   7.563   6.948   2.992
 8822TIP3   OH226410   8.493   6.222   2.970
 8822TIP3    H126411   8.510   6.303   3.018
 8822TIP3    H226412   8.495   6.248   2.878
 8823TIP3   OH226413   7.891   6.390   3.007
 8823TIP3    H126414   7.938   6.310   3.031
 8823TIP3    H226415   7.858   6.372   2.919
 8824TIP3   OH226416   7.224   6.057   2.968
 8824TIP3    H126417   7.206   6.132   2.911
 8824TIP3    H226418   7.189   5.982   2.920
 8825TIP3   OH226419   7.937   6.144   2.596
 8825TIP3    H126420   8.007   6.127   2.659
 8825TIP3    H226421   7.982   6.179   2.519
 8826TIP3   OH226422   6.863   6.244   3.077
 8826TIP3    H126423   6.948   6.242   3.121
 8826TIP3    H226424   6.877   6.198   2.994
 8827TIP3   OH226425   7.314   6.447   2.859
 8827TIP3    H126426   7.406   6.430   2.878
 8827TIP3    H226427   7.280   6.364   2.825
 8828TIP3   OH226428   7.213   6.032   3.411
 8828TIP3    H126429   7.168   6.082   3.343
 8828TIP3    H226430   7.164   6.051   3.491
 8829TIP3   OH226431   7.552   6.876   2.409
 8829TIP3    H126432   7.529   6.878   2.316
 8829TIP3    H226433   7.527   6.962   2.442
 8830TIP3   OH226434   7.336   6.811   3.195
 8830TIP3    H126435   7.284   6.879   3.239
 8830TIP3    H226436   7.382   6.858   3.125
 8831TIP3   OH226437   8.147   6.147   2.776
 8831TIP3    H126438   8.107   6.119   2.858
 8831TIP3    H226439   8.190   6.230   2.798
 8832TIP3   OH226440   7.098   6.152   3.191
 8832TIP3    H126441   7.151   6.227   3.218
 8832TIP3    H226442   7.148   6.112   3.119
 8833TIP3   OH226443   7.177   7.014   3.306
 8833TIP3    H126444   7.156   7.097   3.264
 8833TIP3    H226445   7.099   6.992   3.356
 8834TIP3   OH226446   6.546   6.703   2.534
 8834TIP3    H126447   6.527   6.726   2.443
 8834TIP3    H226448   6.594   6.778   2.568
 8835TIP3   OH226449   8.298   6.103   3.134
 8835TIP3    H126450   8.211   6.138   3.114
 8835TIP3    H226451   8.354   6.138   3.065
 8836TIP3   OH226452   7.578   5.749   3.114
 8836TIP3    H126453   7.572   5.656   3.138
 8836TIP3    H226454   7.508   5.791   3.163
 8837TIP3   OH226455   7.805   7.022   2.363
 8837TIP3    H126456   7.766   6.939   2.335
 8837TIP3    H226457   7.830   7.006   2.454
 8838TIP3   OH226458   7.513   6.511   2.372
 8838TIP3    H126459   7.439   6.568   2.350
 8838TIP3    H226460   7.565   6.506   2.292
 8839TIP3   OH226461   7.483   6.305   2.082
 8839TIP3    H126462   7.545   6.361   2.128
 8839TIP3    H226463   7.537   6.241   2.035
 8840TIP3   OH226464   8.452   6.739   2.989
 8840TIP3    H126465   8.401   6.809   3.029
 8840TIP3    H226466   8.427   6.741   2.897
 8841TIP3   OH226467   7.856   6.582   2.358
 8841TIP3    H126468   7.806   6.605   2.436
 8841TIP3    H226469   7.943   6.559   2.391
 8842TIP3   OH226470   8.098   6.641   3.261
 8842TIP3    H126471   8.099   6.720   3.315
 8842TIP3    H226472   8.022   6.652   3.204
 8843TIP3   OH226473   7.108   6.606   2.773
 8843TIP3    H126474   7.056   6.544   2.721
 8843TIP3    H226475   7.183   6.554   2.803
 8844TIP3   OH226476   7.231   7.011   2.906
 8844TIP3    H126477   7.212   6.971   2.821
 8844TIP3    H226478   7.317   6.978   2.930
 8845TIP3   OH226479   7.231   6.573   3.104
 8845TIP3    H126480   7.277   6.554   3.023
 8845TIP3    H226481   7.274   6.652   3.139
 8846TIP3   OH226482   7.715   7.198   2.864
 8846TIP3    H126483   7.750   7.273   2.910
 8846TIP3    H226484   7.730   7.124   2.923
 8847TIP3   OH226485   7.370   7.158   3.486
 8847TIP3    H126486   7.309   7.231   3.499
 8847TIP3    H226487   7.318   7.090   3.444
 8848TIP3   OH226488   7.698   6.462   2.169
 8848TIP3    H126489   7.758   6.511   2.226
 8848TIP3    H226490   7.729   6.480   2.081
 8849TIP3   OH226491   7.108   6.701   3.534
 8849TIP3    H126492   7.118   6.784   3.581
 8849TIP3    H226493   7.022   6.669   3.560
 8850TIP3   OH226494   7.457   7.147   2.442
 8850TIP3    H126495   7.489   7.216   2.500
 8850TIP3    H226496   7.386   7.188   2.393
 8851TIP3   OH226497   8.211   5.704   2.213
 8851TIP3    H126498   8.134   5.709   2.271
 8851TIP3    H226499   8.240   5.794   2.203
 8852TIP3   OH226500   6.738   6.825   3.476
 8852TIP3    H126501   6.678   6.799   3.406
 8852TIP3    H226502   6.778   6.742   3.504
 8853TIP3   OH226503   6.606   7.020   3.106
 8853TIP3    H126504   6.699   7.005   3.091
 8853TIP3    H226505   6.603   7.093   3.168
 8854TIP3   OH226506   7.572   7.246   3.320
 8854TIP3    H126507   7.581   7.341   3.324
 8854TIP3    H226508   7.484   7.229   3.354
 8855TIP3   OH226509   7.278   7.416   2.254
 8855TIP3    H126510   7.272   7.368   2.172
 8855TIP3    H226511   7.364   7.458   2.251
 8856TIP3   OH226512   6.767   7.230   2.639
 8856TIP3    H126513   6.818   7.227   2.720
 8856TIP3    H226514   6.722   7.146   2.636
 8857TIP3   OH226515   8.362   6.600   3.454
 8857TIP3    H126516   8.297   6.629   3.389
 8857TIP3    H226517   8.391   6.514   3.421
 8858TIP3   OH226518   6.946   7.004   3.452
 8858TIP3    H126519   6.991   7.007   3.536
 8858TIP3    H226520   6.874   6.942   3.465
 8859TIP3   OH226521   7.343   5.828   3.249
 8859TIP3    H126522   7.253   5.808   3.223
 8859TIP3    H226523   7.336   5.910   3.298
 8860TIP3   OH226524   7.885   5.941   3.443
 8860TIP3    H126525   7.955   5.918   3.504
 8860TIP3    H226526   7.804   5.924   3.492
 8861TIP3   OH226527   8.119   6.375   3.354
 8861TIP3    H126528   8.075   6.369   3.439
 8861TIP3    H226529   8.103   6.465   3.326
 8862TIP3   OH226530   7.782   6.505   1.917
 8862TIP3    H126531   7.742   6.480   1.834
 8862TIP3    H226532   7.858   6.558   1.892
 8863TIP3   OH226533   7.490   5.877   2.222
 8863TIP3    H126534   7.456   5.878   2.312
 8863TIP3    H226535   7.455   5.797   2.183
 8864TIP3   OH226536   7.269   6.354   3.258
 8864TIP3    H126537   7.288   6.397   3.341
 8864TIP3    H226538   7.250   6.425   3.198
 8865TIP3   OH226539   7.160   6.225   2.762
 8865TIP3    H126540   7.068   6.201   2.777
 8865TIP3    H226541   7.194   6.155   2.706
 8866TIP3   OH226542   7.652   6.310   2.504
 8866TIP3    H126543   7.603   6.381   2.463
 8866TIP3    H226544   7.710   6.278   2.435
 8867TIP3   OH226545   7.799   6.333   2.750
 8867TIP3    H126546   7.741   6.370   2.684
 8867TIP3    H226547   7.837   6.255   2.708
 8868TIP3   OH226548   7.071   6.380   3.491
 8868TIP3    H126549   7.148   6.437   3.495
 8868TIP3    H226550   7.096   6.302   3.541
 8869TIP3   OH226551   7.158   5.857   2.183
 8869TIP3    H126552   7.141   5.842   2.276
 8869TIP3    H226553   7.081   5.906   2.153
 8870TIP3   OH226554   6.704   5.893   3.066
 8870TIP3    H126555   6.789   5.931   3.087
 8870TIP3    H226556   6.714   5.861   2.976
 8871TIP3   OH226557   6.658   5.881   2.571
 8871TIP3    H126558   6.700   5.917   2.493
 8871TIP3    H226559   6.594   5.948   2.598
 8872TIP3   OH226560   7.813   6.593   3.170
 8872TIP3    H126561   7.843   6.519   3.116
 8872TIP3    H226562   7.804   6.556   3.258
 8873TIP3   OH226563   7.488   6.060   2.846
 8873TIP3    H126564   7.417   6.055   2.910
 8873TIP3    H226565   7.568   6.047   2.898
 8874TIP3   OH226566   6.923   6.108   2.843
 8874TIP3    H126567   6.832   6.122   2.818
 8874TIP3    H226568   6.940   6.017   2.822
 8875TIP3   OH226569   7.987   6.129   3.029
 8875TIP3    H126570   7.969   6.141   3.122
 8875TIP3    H226571   7.918   6.071   2.998
 8876TIP3   OH226572   7.104   6.936   3.688
 8876TIP3    H126573   7.182   6.973   3.729
 8876TIP3    H226574   7.037   6.939   3.756
 8877TIP3   OH226575   7.571   6.383   2.935
 8877TIP3    H126576   7.646   6.347   2.888
 8877TIP3    H226577   7.577   6.345   3.022
 8878TIP3   OH226578   7.102   5.862   2.811
 8878TIP3    H126579   7.058   5.797   2.866
 8878TIP3    H226580   7.163   5.811   2.758
 8879TIP3   OH226581   7.543   6.289   3.228
 8879TIP3    H126582   7.454   6.324   3.235
 8879TIP3    H226583   7.595   6.341   3.289
 8880TIP3   OH226584   7.284   6.668   2.319
 8880TIP3    H126585   7.193   6.670   2.288
 8880TIP3    H226586   7.280   6.701   2.409
 8881TIP3   OH226587   8.171   6.840   2.990
 8881TIP3    H126588   8.206   6.818   2.904
 8881TIP3    H226589   8.078   6.819   2.984
 8882TIP3   OH226590   7.745   5.978   2.192
 8882TIP3    H126591   7.651   5.962   2.198
 8882TIP3    H226592   7.754   6.071   2.211
 8883TIP3   OH226593   7.680   6.975   3.312
 8883TIP3    H126594   7.706   6.945   3.400
 8883TIP3    H226595   7.643   7.062   3.326
 8884TIP3   OH226596   7.813   6.231   2.290
 8884TIP3    H126597   7.907   6.234   2.308
 8884TIP3    H226598   7.798   6.307   2.234
 8885TIP3   OH226599   6.975   6.684   3.003
 8885TIP3    H126600   7.022   6.668   2.921
 8885TIP3    H226601   7.028   6.641   3.070
 8886TIP3   OH226602   7.433   6.820   2.136
 8886TIP3    H126603   7.386   6.903   2.142
 8886TIP3    H226604   7.389   6.763   2.199
 8887TIP3   OH226605   6.853   6.619   3.621
 8887TIP3    H126606   6.890   6.609   3.709
 8887TIP3    H226607   6.802   6.539   3.608
 8888TIP3   OH226608   7.840   7.235   3.251
 8888TIP3    H126609   7.746   7.231   3.235
 8888TIP3    H226610   7.848   7.280   3.335
 8889TIP3   OH226611   7.932   6.758   2.881
 8889TIP3    H126612   7.839   6.734   2.880
 8889TIP3    H226613   7.974   6.694   2.824
 8890TIP3   OH226614   7.084   6.998   2.613
 8890TIP3    H126615   7.079   7.081   2.565
 8890TIP3    H226616   6.994   6.979   2.639
 8891TIP3   OH226617   7.207   6.758   2.559
 8891TIP3    H126618   7.179   6.849   2.575
 8891TIP3    H226619   7.182   6.712   2.639
 8892TIP3   OH226620   7.352   7.336   3.089
 8892TIP3    H126621   7.384   7.400   3.025
 8892TIP3    H226622   7.430   7.312   3.139
 8893TIP3   OH226623   6.998   7.235   2.476
 8893TIP3    H126624   6.914   7.241   2.522
 8893TIP3    H226625   7.034   7.323   2.481
 8894TIP3   OH226626   7.744   6.972   3.043
 8894TIP3    H126627   7.731   6.967   3.138
 8894TIP3    H226628   7.813   6.908   3.025
 8895TIP3   OH226629   7.628   6.855   1.921
 8895TIP3    H126630   7.716   6.856   1.958
 8895TIP3    H226631   7.571   6.832   1.994
 8896TIP3   OH226632   7.060   6.096   3.645
 8896TIP3    H126633   7.015   6.159   3.702
 8896TIP3    H226634   7.111   6.041   3.705
 8897TIP3   OH226635   7.895   6.776   2.172
 8897TIP3    H126636   7.854   6.721   2.239
 8897TIP3    H226637   7.981   6.736   2.158
 8898TIP3   OH226638   6.791   7.202   3.255
 8898TIP3    H126639   6.846   7.130   3.284
 8898TIP3    H226640   6.824   7.278   3.302
 8899TIP3   OH226641   7.066   6.847   1.937
 8899TIP3    H126642   7.093   6.761   1.906
 8899TIP3    H226643   7.053   6.835   2.032
 8900TIP3   OH226644   7.030   6.859   2.217
 8900TIP3    H126645   7.086   6.855   2.294
 8900TIP3    H226646   7.016   6.952   2.202
 8901TIP3   OH226647   6.812   6.599   2.459
 8901TIP3    H126648   6.722   6.600   2.493
 8901TIP3    H226649   6.802   6.585   2.365
 8902TIP3   OH226650   7.918   6.167   3.285
 8902TIP3    H126651   7.965   6.231   3.338
 8902TIP3    H226652   7.899   6.095   3.345
 8903TIP3   OH226653   7.791   5.934   2.470
 8903TIP3    H126654   7.779   5.953   2.377
 8903TIP3    H226655   7.831   6.014   2.506
 8904TIP3   OH226656   7.286   7.047   2.164
 8904TIP3    H126657   7.198   7.065   2.196
 8904TIP3    H226658   7.305   7.119   2.104
 8905TIP3   OH226659   7.461   6.122   2.579
 8905TIP3    H126660   7.526   6.187   2.554
 8905TIP3    H226661   7.475   6.109   2.673
 8906TIP3   OH226662   7.622   5.836   2.666
 8906TIP3    H126663   7.632   5.900   2.737
 8906TIP3    H226664   7.680   5.868   2.597
 8907TIP3   OH226665   7.029   7.128   2.224
 8907TIP3    H126666   7.002   7.197   2.162
 8907TIP3    H226667   7.019   7.168   2.310
 8908TIP3   OH226668   7.133   5.827   2.455
 8908TIP3    H126669   7.121   5.911   2.499
 8908TIP3    H226670   7.227   5.810   2.460
 8909TIP3   OH226671   8.389   6.347   3.347
 8909TIP3    H126672   8.294   6.347   3.359
 8909TIP3    H226673   8.403   6.300   3.265
 8910TIP3   OH226674   8.027   6.517   2.745
 8910TIP3    H126675   7.953   6.458   2.758
 8910TIP3    H226676   8.099   6.477   2.794
 8911TIP3   OH226677   6.744   6.763   2.198
 8911TIP3    H126678   6.814   6.821   2.226
 8911TIP3    H226679   6.787   6.699   2.141
 8912TIP3   OH226680   6.705   6.040   2.347
 8912TIP3    H126681   6.763   6.112   2.323
 8912TIP3    H226682   6.629   6.049   2.290
 8913TIP3   OH226683   7.067   5.751   3.223
 8913TIP3    H126684   7.049   5.717   3.135
 8913TIP3    H226685   7.070   5.673   3.279
 8914TIP3   OH226686   6.623   6.973   2.598
 8914TIP3    H126687   6.558   7.000   2.664
 8914TIP3    H226688   6.591   7.012   2.516
 8915TIP3   OH226689   6.781   7.514   3.674
 8915TIP3    H126690   6.864   7.519   3.722
 8915TIP3    H226691   6.762   7.420   3.669
 8916TIP3   OH226692   7.239   7.042   1.844
 8916TIP3    H126693   7.183   6.974   1.881
 8916TIP3    H226694   7.313   6.994   1.807
 8917TIP3   OH226695   7.905   7.366   3.489
 8917TIP3    H126696   7.952   7.317   3.556
 8917TIP3    H226697   7.962   7.441   3.470
 8918TIP3   OH226698   6.904   6.916   3.880
 8918TIP3    H126699   6.925   6.823   3.881
 8918TIP3    H226700   6.822   6.921   3.831
 8919TIP3   OH226701   6.871   6.571   2.056
 8919TIP3    H126702   6.876   6.491   2.108
 8919TIP3    H226703   6.952   6.572   2.005
 8920TIP3   OH226704   7.355   6.750   1.876
 8920TIP3    H126705   7.378   6.772   1.966
 8920TIP3    H226706   7.382   6.658   1.866
 8921TIP3   OH226707   8.003   7.011   3.257
 8921TIP3    H126708   8.063   7.041   3.188
 8921TIP3    H226709   7.933   7.076   3.259
 8922TIP3   OH226710   7.034   6.650   3.855
 8922TIP3    H126711   7.112   6.605   3.824
 8922TIP3    H226712   7.059   6.684   3.941
 8923TIP3   OH226713   7.314   6.511   3.470
 8923TIP3    H126714   7.276   6.593   3.501
 8923TIP3    H226715   7.409   6.523   3.480
 8924TIP3   OH226716   7.212   6.282   2.163
 8924TIP3    H126717   7.164   6.265   2.082
 8924TIP3    H226718   7.304   6.280   2.137
 8925TIP3   OH226719   7.861   6.939   3.642
 8925TIP3    H126720   7.945   6.921   3.600
 8925TIP3    H226721   7.859   6.881   3.718
 8926TIP3   OH226722   7.491   6.066   3.403
 8926TIP3    H126723   7.518   6.140   3.350
 8926TIP3    H226724   7.398   6.081   3.421
 8927TIP3   OH226725   7.523   6.620   3.281
 8927TIP3    H126726   7.607   6.665   3.267
 8927TIP3    H226727   7.457   6.688   3.270
 8928TIP3   OH226728   8.134   6.621   3.735
 8928TIP3    H126729   8.139   6.529   3.708
 8928TIP3    H226730   8.174   6.670   3.663
 8929TIP3   OH226731   8.117   6.871   3.458
 8929TIP3    H126732   8.059   6.921   3.400
 8929TIP3    H226733   8.203   6.878   3.417
 8930TIP3   OH226734   7.347   6.464   3.862
 8930TIP3    H126735   7.324   6.371   3.861
 8930TIP3    H226736   7.418   6.472   3.798
 8931TIP3   OH226737   7.626   5.862   3.521
 8931TIP3    H126738   7.582   5.939   3.484
 8931TIP3    H226739   7.561   5.792   3.513
 8932TIP3   OH226740   7.991   6.338   3.587
 8932TIP3    H126741   7.907   6.352   3.631
 8932TIP3    H226742   8.046   6.297   3.654
 8933TIP3   OH226743   8.242   6.276   3.744
 8933TIP3    H126744   8.239   6.181   3.755
 8933TIP3    H226745   8.223   6.311   3.832
 8934TIP3   OH226746   7.211   6.208   3.927
 8934TIP3    H126747   7.233   6.118   3.902
 8934TIP3    H226748   7.251   6.218   4.014
 8935TIP3   OH226749   7.714   5.881   3.780
 8935TIP3    H126750   7.781   5.812   3.778
 8935TIP3    H226751   7.675   5.878   3.693
 8936TIP3   OH226752   7.782   6.103   3.929
 8936TIP3    H126753   7.763   6.030   3.870
 8936TIP3    H226754   7.702   6.156   3.928
 8937TIP3   OH226755   6.999   7.331   2.041
 8937TIP3    H126756   7.093   7.314   2.034
 8937TIP3    H226757   6.977   7.377   1.960
 8938TIP3   OH226758   6.480   6.710   2.246
 8938TIP3    H126759   6.571   6.739   2.233
 8938TIP3    H226760   6.478   6.621   2.211
 8939TIP3   OH226761   6.398   7.319   2.670
 8939TIP3    H126762   6.336   7.259   2.629
 8939TIP3    H226763   6.445   7.265   2.734
 8940TIP3   OH226764   6.534   7.169   2.858
 8940TIP3    H126765   6.525   7.097   2.921
 8940TIP3    H226766   6.589   7.233   2.903
 8941TIP3   OH226767   8.057   6.238   1.940
 8941TIP3    H126768   8.045   6.269   1.850
 8941TIP3    H226769   8.046   6.143   1.934
 8942TIP3   OH226770   8.088   6.505   2.472
 8942TIP3    H126771   8.104   6.411   2.476
 8942TIP3    H226772   8.086   6.533   2.564
 8943TIP3   OH226773   6.723   6.580   3.224
 8943TIP3    H126774   6.718   6.551   3.133
 8943TIP3    H226775   6.817   6.583   3.243
 8944TIP3   OH226776   8.344   6.908   3.317
 8944TIP3    H126777   8.433   6.879   3.339
 8944TIP3    H226778   8.357   6.972   3.247
 8945TIP3   OH226779   8.024   5.966   1.931
 8945TIP3    H126780   8.081   5.913   1.988
 8945TIP3    H226781   7.946   5.913   1.920
 8946TIP3   OH226782   8.085   6.217   2.375
 8946TIP3    H126783   8.122   6.130   2.386
 8946TIP3    H226784   8.136   6.256   2.304
 8947TIP3   OH226785   8.257   6.401   2.850
 8947TIP3    H126786   8.300   6.470   2.799
 8947TIP3    H226787   8.267   6.429   2.941
 8948TIP3   OH226788   8.300   6.529   3.084
 8948TIP3    H126789   8.233   6.568   3.140
 8948TIP3    H226790   8.359   6.602   3.063
 8949TIP3   OH226791   6.951   6.261   3.879
 8949TIP3    H126792   7.044   6.260   3.901
 8949TIP3    H226793   6.916   6.180   3.917
 8950TIP3   OH226794   8.183   5.968   2.420
 8950TIP3    H126795   8.244   5.947   2.491
 8950TIP3    H226796   8.125   5.892   2.415
 8951TIP3   OH226797   6.914   5.966   3.282
 8951TIP3    H126798   6.958   5.882   3.273
 8951TIP3    H226799   6.976   6.029   3.244
 8952TIP3   OH226800   6.728   6.216   3.318
 8952TIP3    H126801   6.760   6.234   3.229
 8952TIP3    H226802   6.723   6.303   3.359
 8953TIP3   OH226803   6.684   5.753   2.813
 8953TIP3    H126804   6.593   5.730   2.831
 8953TIP3    H226805   6.680   5.800   2.730
 8954TIP3   OH226806   6.937   7.210   3.718
 8954TIP3    H126807   6.846   7.206   3.691
 8954TIP3    H226808   6.933   7.225   3.813
 8955TIP3   OH226809   7.120   7.263   3.209
 8955TIP3    H126810   7.077   7.348   3.204
 8955TIP3    H226811   7.207   7.278   3.171
 8956TIP3   OH226812   7.620   7.513   3.352
 8956TIP3    H126813   7.575   7.535   3.433
 8956TIP3    H226814   7.671   7.591   3.330
 8957TIP3   OH226815   0.027   6.010   3.355
 8957TIP3    H126816  -0.048   6.051   3.311
 8957TIP3    H226817   0.070   5.960   3.286
 8958TIP3   OH226818   6.790   7.534   3.263
 8958TIP3    H126819   6.703   7.570   3.248
 8958TIP3    H226820   6.820   7.574   3.344
 8959TIP3   OH226821   7.026   7.511   3.126
 8959TIP3    H126822   6.939   7.517   3.165
 8959TIP3    H226823   7.014   7.540   3.035
 8960TIP3   OH226824   7.448   7.521   2.921
 8960TIP3    H126825   7.432   7.577   2.845
 8960TIP3    H226826   7.480   7.581   2.989
 8961TIP3   OH226827   6.714   7.322   3.012
 8961TIP3    H126828   6.738   7.301   3.102
 8961TIP3    H226829   6.783   7.284   2.958
 8962TIP3   OH226830   6.910   7.200   2.870
 8962TIP3    H126831   6.920   7.117   2.916
 8962TIP3    H226832   6.998   7.237   2.867
 8963TIP3   OH226833   7.173   7.288   2.879
 8963TIP3    H126834   7.202   7.198   2.868
 8963TIP3    H226835   7.216   7.318   2.958
 8964TIP3   OH226836   7.735   5.939   2.939
 8964TIP3    H126837   7.700   5.877   3.003
 8964TIP3    H226838   7.818   5.900   2.911
 8965TIP3   OH226839   8.271   5.828   2.855
 8965TIP3    H126840   8.305   5.881   2.783
 8965TIP3    H226841   8.178   5.849   2.860
 8966TIP3   OH226842   8.377   5.925   2.618
 8966TIP3    H126843   8.448   5.871   2.582
 8966TIP3    H226844   8.413   6.014   2.618
 8967TIP3   OH226845   6.994   5.656   2.969
 8967TIP3    H126846   6.903   5.627   2.973
 8967TIP3    H226847   7.045   5.575   2.966
 8968TIP3   OH226848   6.784   5.531   2.622
 8968TIP3    H126849   6.814   5.582   2.546
 8968TIP3    H226850   6.760   5.596   2.687
 8969TIP3   OH226851   7.439   5.696   2.857
 8969TIP3    H126852   7.493   5.739   2.791
 8969TIP3    H226853   7.476   5.724   2.941
 8970TIP3   OH226854   7.984   5.835   2.839
 8970TIP3    H126855   7.989   5.798   2.751
 8970TIP3    H226856   7.972   5.760   2.896
 8971TIP3   OH226857   8.010   5.756   2.402
 8971TIP3    H126858   7.926   5.801   2.415
 8971TIP3    H226859   7.999   5.671   2.445
 8972TIP3   OH226860   6.494   7.104   2.400
 8972TIP3    H126861   6.411   7.072   2.365
 8972TIP3    H226862   6.495   7.198   2.378
 8973TIP3   OH226863   6.901   5.679   2.383
 8973TIP3    H126864   6.942   5.616   2.324
 8973TIP3    H226865   6.974   5.730   2.418
 8974TIP3   OH226866   7.405   5.873   2.489
 8974TIP3    H126867   7.469   5.826   2.543
 8974TIP3    H226868   7.420   5.965   2.509
 8975TIP3   OH226869   7.266   7.272   2.001
 8975TIP3    H126870   7.330   7.331   1.961
 8975TIP3    H226871   7.253   7.203   1.936
 8976TIP3   OH226872   7.205   5.922   3.849
 8976TIP3    H126873   7.163   5.866   3.914
 8976TIP3    H226874   7.296   5.928   3.877
 8977TIP3   OH226875   7.446   5.930   3.976
 8977TIP3    H126876   7.535   5.923   3.941
 8977TIP3    H226877   7.442   5.863   4.044
 8978TIP3   OH226878   6.576   7.121   2.039
 8978TIP3    H126879   6.586   7.143   2.132
 8978TIP3    H226880   6.658   7.078   2.016
 8979TIP3   OH226881   8.278   5.999   3.772
 8979TIP3    H126882   8.291   5.971   3.862
 8979TIP3    H226883   8.364   5.992   3.732
 8980TIP3   OH226884   0.958   7.001   4.658
 8980TIP3    H126885   0.981   7.085   4.696
 8980TIP3    H226886   0.974   7.012   4.564
 8981TIP3   OH226887   0.386   6.893   4.269
 8981TIP3    H126888   0.445   6.908   4.343
 8981TIP3    H226889   0.418   6.951   4.200
 8982TIP3   OH226890   1.025   7.219   4.830
 8982TIP3    H126891   0.941   7.258   4.806
 8982TIP3    H226892   1.034   7.238   4.923
 8983TIP3   OH226893   0.578   6.951   4.454
 8983TIP3    H126894   0.598   6.868   4.499
 8983TIP3    H226895   0.642   7.013   4.489
 8984TIP3   OH226896   0.753   6.917   4.829
 8984TIP3    H126897   0.669   6.945   4.794
 8984TIP3    H226898   0.816   6.935   4.759
 8985TIP3   OH226899   0.670   7.925   4.806
 8985TIP3    H126900   0.648   7.838   4.772
 8985TIP3    H226901   0.690   7.978   4.729
 8986TIP3   OH226902   0.878   7.558   4.653
 8986TIP3    H126903   0.793   7.602   4.662
 8986TIP3    H226904   0.906   7.578   4.564
 8987TIP3   OH226905   0.679   6.487   3.908
 8987TIP3    H126906   0.599   6.504   3.958
 8987TIP3    H226907   0.693   6.567   3.858
 8988TIP3   OH226908   0.825   7.387   5.123
 8988TIP3    H126909   0.742   7.422   5.090
 8988TIP3    H226910   0.819   7.293   5.110
 8989TIP3   OH226911   0.642   7.698   4.646
 8989TIP3    H126912   0.679   7.749   4.574
 8989TIP3    H226913   0.550   7.687   4.623
 8990TIP3   OH226914   0.712   7.112   3.804
 8990TIP3    H126915   0.648   7.067   3.748
 8990TIP3    H226916   0.710   7.203   3.774
 8991TIP3   OH226917   0.917   7.948   4.899
 8991TIP3    H126918   0.823   7.957   4.884
 8991TIP3    H226919   0.955   7.937   4.812
 8992TIP3   OH226920   0.818   7.117   5.048
 8992TIP3    H126921   0.733   7.083   5.075
 8992TIP3    H226922   0.833   7.079   4.961
 8993TIP3   OH226923   0.486   7.293   4.435
 8993TIP3    H126924   0.422   7.221   4.445
 8993TIP3    H226925   0.566   7.259   4.475
 8994TIP3   OH226926   0.485   7.382   3.472
 8994TIP3    H126927   0.435   7.337   3.405
 8994TIP3    H226928   0.462   7.474   3.461
 8995TIP3   OH226929   0.596   7.026   5.505
 8995TIP3    H126930   0.644   6.946   5.486
 8995TIP3    H226931   0.662   7.087   5.537
 8996TIP3   OH226932   0.612   7.558   3.815
 8996TIP3    H126933   0.681   7.620   3.789
 8996TIP3    H226934   0.645   7.519   3.896
 8997TIP3   OH226935   0.740   7.435   4.021
 8997TIP3    H126936   0.677   7.388   4.076
 8997TIP3    H226937   0.802   7.472   4.084
 8998TIP3   OH226938   0.786   7.833   4.461
 8998TIP3    H126939   0.838   7.774   4.406
 8998TIP3    H226940   0.766   7.907   4.404
 8999TIP3   OH226941   0.672   7.343   3.663
 8999TIP3    H126942   0.605   7.341   3.594
 8999TIP3    H226943   0.646   7.415   3.720
 9000TIP3   OH226944   0.541   7.019   3.613
 9000TIP3    H126945   0.489   7.059   3.543
 9000TIP3    H226946   0.527   6.925   3.602
 9001TIP3   OH226947   0.575   7.287   4.173
 9001TIP3    H126948   0.555   7.197   4.147
 9001TIP3    H226949   0.539   7.294   4.261
 9002TIP3   OH226950   0.829   7.708   5.023
 9002TIP3    H126951   0.906   7.653   5.012
 9002TIP3    H226952   0.845   7.784   4.966
 9003TIP3   OH226953   1.036   7.523   5.029
 9003TIP3    H126954   0.958   7.487   5.071
 9003TIP3    H226955   1.106   7.460   5.049
 9004TIP3   OH226956   0.503   6.749   3.600
 9004TIP3    H126957   0.577   6.729   3.657
 9004TIP3    H226958   0.432   6.694   3.631
 9005TIP3   OH226959   0.555   7.018   4.078
 9005TIP3    H126960   0.590   6.929   4.090
 9005TIP3    H226961   0.587   7.045   3.992
 9006TIP3   OH226962   0.712   7.185   4.563
 9006TIP3    H126963   0.792   7.207   4.516
 9006TIP3    H226964   0.720   7.228   4.647
 9007TIP3   OH226965   0.768   7.335   4.788
 9007TIP3    H126966   0.686   7.357   4.831
 9007TIP3    H226967   0.799   7.417   4.750
 9008TIP3   OH226968   1.221   6.920   5.333
 9008TIP3    H126969   1.284   6.857   5.300
 9008TIP3    H226970   1.198   6.974   5.257
 9009TIP3   OH226971   0.661   6.757   4.095
 9009TIP3    H126972   0.703   6.749   4.181
 9009TIP3    H226973   0.595   6.689   4.093
 9010TIP3   OH226974   1.088   7.063   5.133
 9010TIP3    H126975   1.007   7.103   5.163
 9010TIP3    H226976   1.061   6.985   5.085
 9011TIP3   OH226977   0.739   6.694   3.733
 9011TIP3    H126978   0.774   6.626   3.677
 9011TIP3    H226979   0.804   6.764   3.730
 9012TIP3   OH226980   0.996   6.815   5.027
 9012TIP3    H126981   0.906   6.802   4.997
 9012TIP3    H226982   1.036   6.728   5.022
 9013TIP3   OH226983   0.742   6.618   4.551
 9013TIP3    H126984   0.779   6.662   4.475
 9013TIP3    H226985   0.648   6.635   4.545
 9014TIP3   OH226986   0.822   6.718   4.314
 9014TIP3    H126987   0.890   6.664   4.275
 9014TIP3    H226988   0.851   6.808   4.299
 9015TIP3   OH226989   0.481   6.658   4.517
 9015TIP3    H126990   0.407   6.668   4.457
 9015TIP3    H226991   0.460   6.579   4.568
 9016TIP3   OH226992   0.475   6.542   4.087
 9016TIP3    H126993   0.388   6.572   4.059
 9016TIP3    H226994   0.458   6.461   4.135
 9017TIP3   OH226995   0.741   6.797   5.463
 9017TIP3    H126996   0.754   6.763   5.551
 9017TIP3    H226997   0.826   6.786   5.420
 9018TIP3   OH226998   1.936   7.695   3.724
 9018TIP3    H126999   1.907   7.781   3.695
 9018TIP3    H227000   1.868   7.635   3.695
 9019TIP3   OH227001   1.942   7.709   4.101
 9019TIP3    H127002   1.973   7.685   4.188
 9019TIP3    H227003   1.898   7.630   4.069
 9020TIP3   OH227004   1.236   7.606   4.465
 9020TIP3    H127005   1.272   7.537   4.521
 9020TIP3    H227006   1.309   7.665   4.448
 9021TIP3   OH227007   2.158   8.009   3.790
 9021TIP3    H127008   2.153   7.938   3.854
 9021TIP3    H227009   2.208   8.077   3.834
 9022TIP3   OH227010   1.280   7.939   4.290
 9022TIP3    H127011   1.234   7.866   4.248
 9022TIP3    H227012   1.349   7.963   4.228
 9023TIP3   OH227013   0.912   7.218   3.971
 9023TIP3    H127014   0.868   7.300   3.990
 9023TIP3    H227015   0.844   7.162   3.933
 9024TIP3   OH227016   0.969   7.506   4.156
 9024TIP3    H127017   1.017   7.427   4.183
 9024TIP3    H227018   1.031   7.554   4.102
 9025TIP3   OH227019   1.754   7.924   4.145
 9025TIP3    H127020   1.798   7.847   4.108
 9025TIP3    H227021   1.826   7.981   4.172
 9026TIP3   OH227022   2.749   7.259   4.145
 9026TIP3    H127023   2.779   7.338   4.189
 9026TIP3    H227024   2.772   7.272   4.053
 9027TIP3   OH227025   2.146   7.435   4.177
 9027TIP3    H127026   2.189   7.353   4.200
 9027TIP3    H227027   2.114   7.421   4.088
 9028TIP3   OH227028   1.485   7.097   4.141
 9028TIP3    H127029   1.467   7.170   4.081
 9028TIP3    H227030   1.441   7.022   4.101
 9029TIP3   OH227031   2.184   7.190   3.764
 9029TIP3    H127032   2.250   7.175   3.832
 9029TIP3    H227033   2.234   7.224   3.689
 9030TIP3   OH227034   1.120   7.295   4.253
 9030TIP3    H127035   1.202   7.278   4.299
 9030TIP3    H227036   1.127   7.244   4.172
 9031TIP3   OH227037   1.557   7.493   4.052
 9031TIP3    H127038   1.649   7.472   4.061
 9031TIP3    H227039   1.517   7.413   4.017
 9032TIP3   OH227040   2.821   7.468   4.316
 9032TIP3    H127041   2.737   7.509   4.296
 9032TIP3    H227042   2.838   7.491   4.407
 9033TIP3   OH227043   1.475   7.086   4.582
 9033TIP3    H127044   1.425   7.119   4.507
 9033TIP3    H227045   1.411   7.081   4.653
 9034TIP3   OH227046   1.826   7.895   3.577
 9034TIP3    H127047   1.766   7.891   3.503
 9034TIP3    H227048   1.835   7.989   3.596
 9035TIP3   OH227049   1.588   7.866   4.372
 9035TIP3    H127050   1.513   7.922   4.393
 9035TIP3    H227051   1.623   7.903   4.290
 9036TIP3   OH227052   2.386   7.197   3.943
 9036TIP3    H127053   2.375   7.145   4.023
 9036TIP3    H227054   2.437   7.273   3.970
 9037TIP3   OH227055   1.359   7.195   4.361
 9037TIP3    H127056   1.416   7.269   4.383
 9037TIP3    H227057   1.400   7.153   4.286
 9038TIP3   OH227058   4.239   0.069   4.484
 9038TIP3    H127059   4.216   0.062   4.391
 9038TIP3    H227060   4.157   0.056   4.530
 9039TIP3   OH227061   0.817   7.713   3.719
 9039TIP3    H127062   0.775   7.723   3.633
 9039TIP3    H227063   0.831   7.802   3.749
 9040TIP3   OH227064   2.541   7.158   4.311
 9040TIP3    H127065   2.454   7.183   4.278
 9040TIP3    H227066   2.601   7.189   4.243
 9041TIP3   OH227067   1.832   6.795   4.297
 9041TIP3    H127068   1.821   6.701   4.313
 9041TIP3    H227069   1.757   6.835   4.341
 9042TIP3   OH227070   2.187   8.023   3.508
 9042TIP3    H127071   2.151   7.945   3.465
 9042TIP3    H227072   2.194   7.998   3.600
 9043TIP3   OH227073   5.301   0.152   4.292
 9043TIP3    H127074   5.287   0.074   4.238
 9043TIP3    H227075   5.328   0.220   4.230
 9044TIP3   OH227076   1.768   7.557   3.555
 9044TIP3    H127077   1.688   7.608   3.542
 9044TIP3    H227078   1.810   7.556   3.469
 9045TIP3   OH227079   1.727   7.348   3.263
 9045TIP3    H127080   1.790   7.401   3.313
 9045TIP3    H227081   1.782   7.285   3.216
 9046TIP3   OH227082   2.671   7.810   4.136
 9046TIP3    H127083   2.587   7.856   4.145
 9046TIP3    H227084   2.701   7.832   4.048
 9047TIP3   OH227085   2.116   7.637   3.529
 9047TIP3    H127086   2.060   7.658   3.603
 9047TIP3    H227087   2.200   7.613   3.569
 9048TIP3   OH227088   2.347   7.684   4.437
 9048TIP3    H127089   2.348   7.765   4.488
 9048TIP3    H227090   2.262   7.686   4.392
 9049TIP3   OH227091   1.353   7.639   3.929
 9049TIP3    H127092   1.310   7.583   3.864
 9049TIP3    H227093   1.426   7.587   3.962
 9050TIP3   OH227094   1.485   8.006   4.136
 9050TIP3    H127095   1.442   8.010   4.050
 9050TIP3    H227096   1.579   8.005   4.115
 9051TIP3   OH227097   1.481   7.619   4.291
 9051TIP3    H127098   1.511   7.591   4.204
 9051TIP3    H227099   1.524   7.703   4.306
 9052TIP3   OH227100   4.491   0.080   4.613
 9052TIP3    H127101   4.443   0.158   4.639
 9052TIP3    H227102   4.436   0.039   4.546
 9053TIP3   OH227103   1.954   7.502   3.348
 9053TIP3    H127104   2.009   7.561   3.398
 9053TIP3    H227105   1.980   7.516   3.257
 9054TIP3   OH227106   1.369   7.721   4.718
 9054TIP3    H127107   1.383   7.801   4.769
 9054TIP3    H227108   1.277   7.699   4.735
 9055TIP3   OH227109   2.468   6.744   3.397
 9055TIP3    H127110   2.388   6.762   3.446
 9055TIP3    H227111   2.484   6.824   3.347
 9056TIP3   OH227112   1.214   7.483   3.739
 9056TIP3    H127113   1.150   7.529   3.684
 9056TIP3    H227114   1.172   7.399   3.760
 9057TIP3   OH227115   1.013   7.874   4.654
 9057TIP3    H127116   0.940   7.871   4.592
 9057TIP3    H227117   1.039   7.783   4.665
 9058TIP3   OH227118   2.601   7.642   4.613
 9058TIP3    H127119   2.518   7.654   4.566
 9058TIP3    H227120   2.620   7.548   4.605
 9059TIP3   OH227121   4.035   0.062   4.674
 9059TIP3    H127122   4.070  -0.003   4.735
 9059TIP3    H227123   3.952   0.024   4.644
 9060TIP3   OH227124   1.595   6.876   4.423
 9060TIP3    H127125   1.511   6.841   4.393
 9060TIP3    H227126   1.572   6.957   4.468
 9061TIP3   OH227127   2.134   6.990   4.621
 9061TIP3    H127128   2.204   6.961   4.679
 9061TIP3    H227129   2.053   6.968   4.667
 9062TIP3   OH227130   2.368   7.420   4.532
 9062TIP3    H127131   2.321   7.416   4.616
 9062TIP3    H227132   2.346   7.507   4.498
 9063TIP3   OH227133   2.031   7.529   3.090
 9063TIP3    H127134   1.998   7.508   3.003
 9063TIP3    H227135   2.084   7.608   3.077
 9064TIP3   OH227136   1.741   6.920   3.396
 9064TIP3    H127137   1.709   6.921   3.486
 9064TIP3    H227138   1.704   6.841   3.357
 9065TIP3   OH227139   1.528   7.396   4.439
 9065TIP3    H127140   1.484   7.415   4.522
 9065TIP3    H227141   1.516   7.476   4.387
 9066TIP3   OH227142   1.410   7.276   3.954
 9066TIP3    H127143   1.320   7.253   3.975
 9066TIP3    H227144   1.425   7.238   3.868
 9067TIP3   OH227145   1.907   7.361   3.686
 9067TIP3    H127146   1.854   7.428   3.643
 9067TIP3    H227147   1.961   7.325   3.615
 9068TIP3   OH227148   2.090   7.640   4.759
 9068TIP3    H127149   2.067   7.574   4.824
 9068TIP3    H227150   2.181   7.663   4.780
 9069TIP3   OH227151   2.059   7.388   3.918
 9069TIP3    H127152   1.997   7.419   3.852
 9069TIP3    H227153   2.098   7.309   3.880
 9070TIP3   OH227154   1.361   7.420   4.661
 9070TIP3    H127155   1.343   7.499   4.711
 9070TIP3    H227156   1.302   7.354   4.699
 9071TIP3   OH227157   1.398   6.900   3.361
 9071TIP3    H127158   1.389   6.896   3.457
 9071TIP3    H227159   1.322   6.951   3.333
 9072TIP3   OH227160   0.945   6.938   4.235
 9072TIP3    H127161   1.021   6.971   4.283
 9072TIP3    H227162   0.980   6.913   4.150
 9073TIP3   OH227163   0.910   6.924   3.747
 9073TIP3    H127164   0.956   6.958   3.671
 9073TIP3    H227165   0.847   6.992   3.771
 9074TIP3   OH227166   2.070   7.631   4.344
 9074TIP3    H127167   2.104   7.565   4.285
 9074TIP3    H227168   2.039   7.582   4.420
 9075TIP3   OH227169   1.746   7.100   4.018
 9075TIP3    H127170   1.664   7.098   4.068
 9075TIP3    H227171   1.814   7.091   4.084
 9076TIP3   OH227172   1.173   7.156   4.023
 9076TIP3    H127173   1.082   7.168   3.996
 9076TIP3    H227174   1.194   7.066   3.999
 9077TIP3   OH227175   1.440   7.151   3.714
 9077TIP3    H127176   1.532   7.165   3.691
 9077TIP3    H227177   1.392   7.172   3.634
 9078TIP3   OH227178   2.229   7.176   4.224
 9078TIP3    H127179   2.198   7.190   4.313
 9078TIP3    H227180   2.166   7.114   4.186
 9079TIP3   OH227181   1.290   7.184   3.490
 9079TIP3    H127182   1.216   7.141   3.447
 9079TIP3    H227183   1.342   7.220   3.418
 9080TIP3   OH227184   1.373   8.020   4.884
 9080TIP3    H127185   1.451   8.008   4.939
 9080TIP3    H227186   1.301   7.986   4.937
 9081TIP3   OH227187   1.824   7.428   4.116
 9081TIP3    H127188   1.894   7.390   4.063
 9081TIP3    H227189   1.830   7.383   4.200
 9082TIP3   OH227190   1.346   6.910   3.998
 9082TIP3    H127191   1.307   6.837   4.047
 9082TIP3    H227192   1.386   6.870   3.922
 9083TIP3   OH227193   1.798   7.322   4.415
 9083TIP3    H127194   1.710   7.359   4.421
 9083TIP3    H227195   1.854   7.386   4.458
 9084TIP3   OH227196   1.538   7.699   3.510
 9084TIP3    H127197   1.463   7.642   3.494
 9084TIP3    H227198   1.515   7.745   3.591
 9085TIP3   OH227199   2.434   7.946   4.127
 9085TIP3    H127200   2.463   7.995   4.050
 9085TIP3    H227201   2.352   7.905   4.101
 9086TIP3   OH227202   1.992   7.026   3.363
 9086TIP3    H127203   1.899   7.005   3.374
 9086TIP3    H227204   1.998   7.118   3.391
 9087TIP3   OH227205   4.780   0.043   4.495
 9087TIP3    H127206   4.814  -0.007   4.569
 9087TIP3    H227207   4.696   0.077   4.526
 9088TIP3   OH227208   2.063   7.276   3.469
 9088TIP3    H127209   2.157   7.281   3.483
 9088TIP3    H227210   2.042   7.354   3.418
 9089TIP3   OH227211   1.214   7.698   4.161
 9089TIP3    H127212   1.258   7.689   4.077
 9089TIP3    H227213   1.269   7.650   4.223
 9090TIP3   OH227214   1.641   7.883   3.337
 9090TIP3    H127215   1.610   7.957   3.389
 9090TIP3    H227216   1.608   7.806   3.383
 9091TIP3   OH227217   1.115   7.634   4.786
 9091TIP3    H127218   1.110   7.622   4.881
 9091TIP3    H227219   1.036   7.591   4.752
 9092TIP3   OH227220   1.846   7.759   4.806
 9092TIP3    H127221   1.780   7.709   4.759
 9092TIP3    H227222   1.929   7.728   4.773
 9093TIP3   OH227223   2.502   7.370   3.296
 9093TIP3    H127224   2.443   7.322   3.238
 9093TIP3    H227225   2.500   7.460   3.263
 9094TIP3   OH227226   5.556   0.191   4.381
 9094TIP3    H127227   5.461   0.203   4.375
 9094TIP3    H227228   5.584   0.177   4.290
 9095TIP3   OH227229   2.199   7.816   4.032
 9095TIP3    H127230   2.108   7.794   4.053
 9095TIP3    H227231   2.235   7.736   3.994
 9096TIP3   OH227232   0.897   7.346   3.508
 9096TIP3    H127233   0.941   7.429   3.525
 9096TIP3    H227234   0.820   7.347   3.564
 9097TIP3   OH227235   1.462   7.820   3.747
 9097TIP3    H127236   1.416   7.900   3.772
 9097TIP3    H227237   1.439   7.757   3.815
 9098TIP3   OH227238   1.993   8.018   4.226
 9098TIP3    H127239   1.981   8.030   4.320
 9098TIP3    H227240   2.076   7.970   4.218
 9099TIP3   OH227241   1.994   7.845   3.081
 9099TIP3    H127242   2.026   7.836   3.171
 9099TIP3    H227243   1.915   7.898   3.090
 9100TIP3   OH227244   1.336   7.160   4.827
 9100TIP3    H127245   1.243   7.178   4.814
 9100TIP3    H227246   1.338   7.075   4.871
 9101TIP3   OH227247   2.123   7.818   3.326
 9101TIP3    H127248   2.115   7.751   3.394
 9101TIP3    H227249   2.217   7.824   3.309
 9102TIP3   OH227250   1.322   7.844   3.152
 9102TIP3    H127251   1.354   7.755   3.138
 9102TIP3    H227252   1.327   7.856   3.247
 9103TIP3   OH227253   1.015   7.590   3.582
 9103TIP3    H127254   0.950   7.621   3.645
 9103TIP3    H227255   1.020   7.660   3.516
 9104TIP3   OH227256   2.158   7.230   4.484
 9104TIP3    H127257   2.241   7.266   4.514
 9104TIP3    H227258   2.147   7.150   4.535
 9105TIP3   OH227259   2.041   6.977   3.646
 9105TIP3    H127260   2.027   6.996   3.554
 9105TIP3    H227261   2.080   7.057   3.682
 9106TIP3   OH227262   1.727   7.161   3.748
 9106TIP3    H127263   1.789   7.232   3.730
 9106TIP3    H227264   1.730   7.150   3.843
 9107TIP3   OH227265   1.999   7.473   4.551
 9107TIP3    H127266   2.029   7.524   4.626
 9107TIP3    H227267   2.051   7.393   4.555
 9108TIP3   OH227268   1.869   6.882   3.846
 9108TIP3    H127269   1.859   6.958   3.903
 9108TIP3    H227270   1.930   6.912   3.778
 9109TIP3   OH227271   1.385   6.887   3.638
 9109TIP3    H127272   1.378   6.975   3.674
 9109TIP3    H227273   1.479   6.866   3.643
 9110TIP3   OH227274   2.633   7.376   4.531
 9110TIP3    H127275   2.537   7.378   4.541
 9110TIP3    H227276   2.648   7.326   4.451
 9111TIP3   OH227277   2.286   7.569   3.924
 9111TIP3    H127278   2.210   7.513   3.935
 9111TIP3    H227279   2.357   7.524   3.970
 9112TIP3   OH227280   1.006   7.802   3.395
 9112TIP3    H127281   1.031   7.894   3.387
 9112TIP3    H227282   1.059   7.757   3.330
 9113TIP3   OH227283   0.943   7.076   3.522
 9113TIP3    H127284   0.946   7.172   3.524
 9113TIP3    H227285   0.855   7.056   3.489
 9114TIP3   OH227286   1.332   6.793   4.395
 9114TIP3    H127287   1.302   6.762   4.310
 9114TIP3    H227288   1.322   6.718   4.453
 9115TIP3   OH227289   1.160   7.941   5.025
 9115TIP3    H127290   1.180   7.851   5.049
 9115TIP3    H227291   1.067   7.939   5.003
 9116TIP3   OH227292   1.136   7.605   3.248
 9116TIP3    H127293   1.178   7.570   3.327
 9116TIP3    H227294   1.205   7.605   3.182
 9117TIP3   OH227295   1.780   8.019   4.846
 9117TIP3    H127296   1.750   8.040   4.758
 9117TIP3    H227297   1.815   7.930   4.839
 9118TIP3   OH227298   1.599   7.784   3.056
 9118TIP3    H127299   1.613   7.803   3.149
 9118TIP3    H227300   1.623   7.692   3.046
 9119TIP3   OH227301   5.089   0.038   4.428
 9119TIP3    H127302   5.159   0.090   4.388
 9119TIP3    H227303   5.011   0.094   4.423
 9120TIP3   OH227304   1.300   7.701   5.036
 9120TIP3    H127305   1.327   7.609   5.041
 9120TIP3    H227306   1.317   7.736   5.123
 9121TIP3   OH227307   1.336   7.514   3.463
 9121TIP3    H127308   1.306   7.476   3.546
 9121TIP3    H227309   1.375   7.441   3.415
 9122TIP3   OH227310   1.616   7.585   4.710
 9122TIP3    H127311   1.535   7.636   4.704
 9122TIP3    H227312   1.666   7.609   4.632
 9123TIP3   OH227313   1.448   7.312   3.305
 9123TIP3    H127314   1.420   7.314   3.213
 9123TIP3    H227315   1.544   7.315   3.300
 9124TIP3   OH227316   2.136   7.977   4.826
 9124TIP3    H127317   2.216   7.954   4.779
 9124TIP3    H227318   2.132   7.915   4.899
 9125TIP3   OH227319   2.270   7.650   2.962
 9125TIP3    H127320   2.242   7.596   2.889
 9125TIP3    H227321   2.247   7.740   2.937
 9126TIP3   OH227322   1.727   7.161   4.645
 9126TIP3    H127323   1.770   7.207   4.572
 9126TIP3    H227324   1.642   7.135   4.610
 9127TIP3   OH227325   1.757   7.697   4.508
 9127TIP3    H127326   1.840   7.699   4.460
 9127TIP3    H227327   1.702   7.761   4.463
 9128TIP3   OH227328   2.348   7.659   4.878
 9128TIP3    H127329   2.394   7.577   4.891
 9128TIP3    H227330   2.415   7.720   4.847
 9129TIP3   OH227331   2.388   7.911   4.615
 9129TIP3    H127332   2.330   7.963   4.559
 9129TIP3    H227333   2.476   7.929   4.582
 9130TIP3   OH227334   1.869   6.920   4.696
 9130TIP3    H127335   1.819   6.999   4.676
 9130TIP3    H227336   1.806   6.848   4.685
 9131TIP3   OH227337   2.023   7.432   4.922
 9131TIP3    H127338   2.049   7.418   5.013
 9131TIP3    H227339   1.941   7.383   4.913
 9132TIP3   OH227340   2.244   7.373   4.765
 9132TIP3    H127341   2.172   7.381   4.828
 9132TIP3    H227342   2.319   7.343   4.817
 9133TIP3   OH227343   2.464   7.313   4.918
 9133TIP3    H127344   2.479   7.219   4.932
 9133TIP3    H227345   2.460   7.350   5.006
 9134TIP3   OH227346   1.513   7.244   5.061
 9134TIP3    H127347   1.486   7.153   5.076
 9134TIP3    H227348   1.546   7.273   5.145
 9135TIP3   OH227349   1.969   6.932   4.952
 9135TIP3    H127350   2.033   6.861   4.953
 9135TIP3    H227351   1.928   6.925   4.866
 9136TIP3   OH227352   2.009   7.156   5.099
 9136TIP3    H127353   2.014   7.083   5.037
 9136TIP3    H227354   1.919   7.153   5.131
 9137TIP3   OH227355   0.742   7.711   3.423
 9137TIP3    H127356   0.826   7.750   3.399
 9137TIP3    H227357   0.735   7.634   3.367
 9138TIP3   OH227358   5.447   0.323   4.661
 9138TIP3    H127359   5.374   0.304   4.719
 9138TIP3    H227360   5.495   0.394   4.703
 9139TIP3   OH227361   2.397   7.818   3.311
 9139TIP3    H127362   2.463   7.878   3.276
 9139TIP3    H227363   2.439   7.779   3.388
 9140TIP3   OH227364   2.529   7.690   3.510
 9140TIP3    H127365   2.466   7.649   3.569
 9140TIP3    H227366   2.596   7.726   3.568
 9141TIP3   OH227367   5.405   0.069   3.937
 9141TIP3    H127368   5.466   0.011   3.892
 9141TIP3    H227369   5.406   0.150   3.886
 9142TIP3   OH227370   2.463   7.605   3.150
 9142TIP3    H127371   2.396   7.607   3.081
 9142TIP3    H227372   2.438   7.676   3.209
 9143TIP3   OH227373   2.341   7.272   3.102
 9143TIP3    H127374   2.287   7.313   3.033
 9143TIP3    H227375   2.319   7.179   3.097
 9144TIP3   OH227376   2.344   7.550   3.657
 9144TIP3    H127377   2.350   7.455   3.646
 9144TIP3    H227378   2.329   7.562   3.751
 9145TIP3   OH227379   0.970   7.621   4.403
 9145TIP3    H127380   0.960   7.590   4.313
 9145TIP3    H227381   1.064   7.627   4.416
 9146TIP3   OH227382   2.633   7.973   4.512
 9146TIP3    H127383   2.703   7.909   4.501
 9146TIP3    H227384   2.656   8.044   4.453
 9147TIP3   OH227385   2.818   7.775   4.521
 9147TIP3    H127386   2.742   7.732   4.560
 9147TIP3    H227387   2.891   7.715   4.537
 9148TIP3   OH227388   2.281   7.007   3.089
 9148TIP3    H127389   2.352   6.976   3.145
 9148TIP3    H227390   2.207   6.951   3.110
 9149TIP3   OH227391   2.344   7.268   3.544
 9149TIP3    H127392   2.379   7.181   3.562
 9149TIP3    H227393   2.398   7.302   3.473
 9150TIP3   OH227394   2.502   7.441   4.044
 9150TIP3    H127395   2.584   7.463   4.000
 9150TIP3    H227396   2.512   7.475   4.132
 9151TIP3   OH227397   2.571   7.588   4.272
 9151TIP3    H127398   2.496   7.619   4.322
 9151TIP3    H227399   2.605   7.667   4.229
 9152TIP3   OH227400   1.205   7.309   5.072
 9152TIP3    H127401   1.299   7.301   5.088
 9152TIP3    H227402   1.167   7.229   5.108
 9153TIP3   OH227403   3.021   7.179   4.826
 9153TIP3    H127404   3.082   7.114   4.789
 9153TIP3    H227405   2.992   7.231   4.751
 9154TIP3   OH227406   2.448   7.017   3.586
 9154TIP3    H127407   2.496   7.003   3.667
 9154TIP3    H227408   2.387   6.944   3.582
 9155TIP3   OH227409   1.153   7.005   4.411
 9155TIP3    H127410   1.210   6.928   4.413
 9155TIP3    H227411   1.213   7.078   4.395
 9156TIP3   OH227412   0.957   7.277   4.483
 9156TIP3    H127413   0.998   7.268   4.396
 9156TIP3    H227414   0.968   7.369   4.505
 9157TIP3   OH227415   2.888   7.314   4.629
 9157TIP3    H127416   2.806   7.358   4.651
 9157TIP3    H227417   2.861   7.240   4.575
 9158TIP3   OH227418   2.527   6.950   3.218
 9158TIP3    H127419   2.563   6.879   3.165
 9158TIP3    H227420   2.593   7.019   3.215
 9159TIP3   OH227421   0.933   6.784   3.980
 9159TIP3    H127422   0.843   6.774   4.008
 9159TIP3    H227423   0.928   6.840   3.903
 9160TIP3   OH227424   1.157   6.877   4.800
 9160TIP3    H127425   1.104   6.857   4.877
 9160TIP3    H227426   1.094   6.904   4.733
 9161TIP3   OH227427   2.791   7.073   4.513
 9161TIP3    H127428   2.701   7.063   4.481
 9161TIP3    H227429   2.829   6.985   4.507
 9162TIP3   OH227430   1.996   6.991   4.136
 9162TIP3    H127431   1.954   6.922   4.187
 9162TIP3    H227432   2.068   6.948   4.091
 9163TIP3   OH227433   2.515   6.878   4.037
 9163TIP3    H127434   2.551   6.926   3.963
 9163TIP3    H227435   2.420   6.893   4.031
 9164TIP3   OH227436   2.615   6.975   3.800
 9164TIP3    H127437   2.685   6.920   3.765
 9164TIP3    H227438   2.646   7.065   3.788
 9165TIP3   OH227439   1.243   6.699   4.150
 9165TIP3    H127440   1.151   6.672   4.152
 9165TIP3    H227441   1.292   6.617   4.145
 9166TIP3   OH227442   1.037   6.577   3.802
 9166TIP3    H127443   1.062   6.630   3.727
 9166TIP3    H227444   1.006   6.640   3.867
 9167TIP3   OH227445   1.692   6.735   4.030
 9167TIP3    H127446   1.747   6.780   3.967
 9167TIP3    H227447   1.718   6.771   4.115
 9168TIP3   OH227448   2.232   6.880   4.013
 9168TIP3    H127449   2.235   6.840   3.926
 9168TIP3    H227450   2.221   6.805   4.072
 9169TIP3   OH227451   2.263   6.806   3.578
 9169TIP3    H127452   2.180   6.850   3.593
 9169TIP3    H227453   2.253   6.721   3.621
 9170TIP3   OH227454   1.153   6.731   3.559
 9170TIP3    H127455   1.197   6.668   3.502
 9170TIP3    H227456   1.224   6.784   3.595
 9171TIP3   OH227457   1.661   6.911   3.660
 9171TIP3    H127458   1.717   6.860   3.718
 9171TIP3    H227459   1.681   7.002   3.683
 9172TIP3   OH227460   1.455   6.978   5.057
 9172TIP3    H127461   1.412   6.905   5.101
 9172TIP3    H227462   1.548   6.970   5.080
 9173TIP3   OH227463   1.717   6.970   5.154
 9173TIP3    H127464   1.794   6.927   5.118
 9173TIP3    H227465   1.692   6.916   5.230
 9174TIP3   OH227466   2.531   7.044   4.948
 9174TIP3    H127467   2.545   7.012   5.037
 9174TIP3    H227468   2.617   7.038   4.907
 9175TIP3   OH227469   3.732   7.952   3.211
 9175TIP3    H127470   3.700   8.038   3.184
 9175TIP3    H227471   3.661   7.891   3.188
 9176TIP3   OH227472   3.734   7.964   3.591
 9176TIP3    H127473   3.770   7.944   3.678
 9176TIP3    H227474   3.692   7.883   3.563
 9177TIP3   OH227475   3.030   7.859   3.953
 9177TIP3    H127476   3.057   7.790   4.015
 9177TIP3    H227477   3.103   7.920   3.952
 9178TIP3   OH227478   6.785   0.254   3.279
 9178TIP3    H127479   6.782   0.182   3.342
 9178TIP3    H227480   6.840   0.320   3.321
 9179TIP3   OH227481   5.896   0.194   3.757
 9179TIP3    H127482   5.863   0.110   3.726
 9179TIP3    H227483   5.977   0.208   3.707
 9180TIP3   OH227484   2.709   7.473   3.453
 9180TIP3    H127485   2.666   7.556   3.476
 9180TIP3    H227486   2.639   7.420   3.415
 9181TIP3   OH227487   2.765   7.761   3.638
 9181TIP3    H127488   2.812   7.683   3.669
 9181TIP3    H227489   2.834   7.817   3.602
 9182TIP3   OH227490   6.385   0.169   3.627
 9182TIP3    H127491   6.428   0.090   3.595
 9182TIP3    H227492   6.456   0.226   3.656
 9183TIP3   OH227493   4.545   7.515   3.632
 9183TIP3    H127494   4.574   7.595   3.676
 9183TIP3    H227495   4.570   7.528   3.540
 9184TIP3   OH227496   3.944   7.693   3.663
 9184TIP3    H127497   3.986   7.611   3.688
 9184TIP3    H227498   3.911   7.677   3.574
 9185TIP3   OH227499   3.282   7.353   3.628
 9185TIP3    H127500   3.263   7.426   3.569
 9185TIP3    H227501   3.236   7.279   3.589
 9186TIP3   OH227502   3.981   7.447   3.250
 9186TIP3    H127503   4.045   7.431   3.320
 9186TIP3    H227504   4.033   7.480   3.177
 9187TIP3   OH227505   2.916   7.554   3.737
 9187TIP3    H127506   2.995   7.537   3.788
 9187TIP3    H227507   2.926   7.501   3.659
 9188TIP3   OH227508   3.355   7.751   3.533
 9188TIP3    H127509   3.447   7.730   3.547
 9188TIP3    H227510   3.315   7.669   3.504
 9189TIP3   OH227511   4.617   7.723   3.802
 9189TIP3    H127512   4.533   7.765   3.783
 9189TIP3    H227513   4.636   7.748   3.893
 9190TIP3   OH227514   3.275   7.339   4.067
 9190TIP3    H127515   3.218   7.374   3.998
 9190TIP3    H227516   3.226   7.352   4.148
 9191TIP3   OH227517   6.447   0.140   3.070
 9191TIP3    H127518   6.400   0.144   2.986
 9191TIP3    H227519   6.476   0.230   3.085
 9192TIP3   OH227520   6.214   0.108   3.857
 9192TIP3    H127521   6.147   0.168   3.890
 9192TIP3    H227522   6.247   0.150   3.777
 9193TIP3   OH227523   4.181   7.453   3.430
 9193TIP3    H127524   4.169   7.403   3.512
 9193TIP3    H227525   4.234   7.529   3.456
 9194TIP3   OH227526   3.152   7.453   3.847
 9194TIP3    H127527   3.210   7.525   3.874
 9194TIP3    H227528   3.198   7.410   3.776
 9195TIP3   OH227529   6.039   0.317   3.967
 9195TIP3    H127530   5.999   0.308   3.880
 9195TIP3    H227531   5.965   0.314   4.027
 9196TIP3   OH227532   2.602   7.963   3.200
 9196TIP3    H127533   2.568   7.974   3.111
 9196TIP3    H227534   2.619   8.053   3.230
 9197TIP3   OH227535   4.338   7.415   3.797
 9197TIP3    H127536   4.251   7.441   3.765
 9197TIP3    H227537   4.398   7.446   3.729
 9198TIP3   OH227538   3.626   7.051   3.782
 9198TIP3    H127539   3.616   6.958   3.801
 9198TIP3    H227540   3.553   7.092   3.827
 9199TIP3   OH227541   6.816   0.267   2.996
 9199TIP3    H127542   6.787   0.188   2.951
 9199TIP3    H227543   6.825   0.240   3.087
 9200TIP3   OH227544   7.099   0.407   3.779
 9200TIP3    H127545   7.085   0.329   3.725
 9200TIP3    H227546   7.126   0.475   3.718
 9201TIP3   OH227547   3.561   7.811   3.040
 9201TIP3    H127548   3.484   7.865   3.027
 9201TIP3    H227549   3.609   7.817   2.958
 9202TIP3   OH227550   3.537   7.594   2.761
 9202TIP3    H127551   3.596   7.650   2.811
 9202TIP3    H227552   3.595   7.542   2.706
 9203TIP3   OH227553   7.300   0.051   3.623
 9203TIP3    H127554   7.217   0.098   3.631
 9203TIP3    H227555   7.331   0.074   3.535
 9204TIP3   OH227556   3.912   7.890   3.015
 9204TIP3    H127557   3.857   7.912   3.090
 9204TIP3    H227558   3.997   7.867   3.054
 9205TIP3   OH227559   4.142   7.941   3.924
 9205TIP3    H127560   4.144   8.022   3.974
 9205TIP3    H227561   4.057   7.943   3.879
 9206TIP3   OH227562   3.150   7.892   3.415
 9206TIP3    H127563   3.113   7.834   3.349
 9206TIP3    H227564   3.225   7.845   3.450
 9207TIP3   OH227565   6.117   0.248   3.619
 9207TIP3    H127566   6.077   0.249   3.532
 9207TIP3    H227567   6.211   0.245   3.602
 9208TIP3   OH227568   3.275   7.876   3.775
 9208TIP3    H127569   3.310   7.849   3.690
 9208TIP3    H227570   3.319   7.959   3.794
 9209TIP3   OH227571   6.294   0.319   4.097
 9209TIP3    H127572   6.256   0.404   4.121
 9209TIP3    H227573   6.226   0.277   4.045
 9210TIP3   OH227574   3.748   7.761   2.835
 9210TIP3    H127575   3.806   7.818   2.885
 9210TIP3    H227576   3.774   7.775   2.744
 9211TIP3   OH227577   3.170   7.983   4.205
 9211TIP3    H127578   3.179   8.069   4.247
 9211TIP3    H227579   3.079   7.958   4.221
 9212TIP3   OH227580   4.265   7.001   2.883
 9212TIP3    H127581   4.185   7.019   2.933
 9212TIP3    H227582   4.281   7.081   2.833
 9213TIP3   OH227583   3.016   7.733   3.209
 9213TIP3    H127584   2.945   7.781   3.165
 9213TIP3    H227585   2.972   7.663   3.256
 9214TIP3   OH227586   5.641   0.111   4.136
 9214TIP3    H127587   5.570   0.093   4.075
 9214TIP3    H227588   5.673   0.024   4.162
 9215TIP3   OH227589   4.396   7.898   4.100
 9215TIP3    H127590   4.313   7.909   4.052
 9215TIP3    H227591   4.415   7.805   4.093
 9216TIP3   OH227592   5.827   0.315   4.143
 9216TIP3    H127593   5.882   0.277   4.211
 9216TIP3    H227594   5.757   0.250   4.131
 9217TIP3   OH227595   3.389   7.134   3.911
 9217TIP3    H127596   3.305   7.100   3.881
 9217TIP3    H227597   3.367   7.212   3.962
 9218TIP3   OH227598   3.929   7.246   4.107
 9218TIP3    H127599   3.998   7.218   4.167
 9218TIP3    H227600   3.848   7.226   4.153
 9219TIP3   OH227601   4.162   7.677   4.024
 9219TIP3    H127602   4.114   7.673   4.107
 9219TIP3    H227603   4.141   7.763   3.988
 9220TIP3   OH227604   3.826   7.786   2.577
 9220TIP3    H127605   3.793   7.766   2.490
 9220TIP3    H227606   3.889   7.857   2.564
 9221TIP3   OH227607   3.324   7.654   3.927
 9221TIP3    H127608   3.276   7.669   4.009
 9221TIP3    H227609   3.308   7.733   3.875
 9222TIP3   OH227610   3.204   7.534   3.444
 9222TIP3    H127611   3.115   7.508   3.468
 9222TIP3    H227612   3.219   7.492   3.359
 9223TIP3   OH227613   3.705   7.617   3.169
 9223TIP3    H127614   3.651   7.684   3.127
 9223TIP3    H227615   3.762   7.584   3.099
 9224TIP3   OH227616   3.879   7.891   4.255
 9224TIP3    H127617   3.853   7.822   4.316
 9224TIP3    H227618   3.971   7.908   4.276
 9225TIP3   OH227619   3.857   7.643   3.405
 9225TIP3    H127620   3.794   7.674   3.339
 9225TIP3    H227621   3.895   7.565   3.366
 9226TIP3   OH227622   3.146   7.674   4.138
 9226TIP3    H127623   3.172   7.738   4.204
 9226TIP3    H227624   3.133   7.592   4.187
 9227TIP3   OH227625   2.738   7.198   3.717
 9227TIP3    H127626   2.812   7.227   3.771
 9227TIP3    H227627   2.779   7.163   3.638
 9228TIP3   OH227628   2.703   7.181   3.234
 9228TIP3    H127629   2.752   7.215   3.159
 9228TIP3    H227630   2.642   7.251   3.256
 9229TIP3   OH227631   3.865   7.890   3.829
 9229TIP3    H127632   3.900   7.823   3.770
 9229TIP3    H227633   3.836   7.841   3.906
 9230TIP3   OH227634   3.539   7.362   3.503
 9230TIP3    H127635   3.460   7.356   3.557
 9230TIP3    H227636   3.611   7.347   3.564
 9231TIP3   OH227637   2.970   7.412   3.507
 9231TIP3    H127638   2.878   7.420   3.482
 9231TIP3    H227639   2.992   7.320   3.491
 9232TIP3   OH227640   3.235   7.407   3.206
 9232TIP3    H127641   3.329   7.419   3.197
 9232TIP3    H227642   3.198   7.439   3.124
 9233TIP3   OH227643   4.026   7.433   3.708
 9233TIP3    H127644   3.998   7.446   3.798
 9233TIP3    H227645   3.963   7.371   3.672
 9234TIP3   OH227646   3.091   7.432   2.962
 9234TIP3    H127647   3.011   7.385   2.988
 9234TIP3    H227648   3.066   7.478   2.882
 9235TIP3   OH227649   5.995   0.216   4.347
 9235TIP3    H127650   6.072   0.244   4.395
 9235TIP3    H227651   5.928   0.203   4.414
 9236TIP3   OH227652   3.618   7.687   3.604
 9236TIP3    H127653   3.690   7.645   3.556
 9236TIP3    H227654   3.618   7.644   3.690
 9237TIP3   OH227655   3.138   7.167   3.483
 9237TIP3    H127656   3.100   7.096   3.535
 9237TIP3    H227657   3.193   7.122   3.419
 9238TIP3   OH227658   3.594   7.590   3.884
 9238TIP3    H127659   3.505   7.621   3.903
 9238TIP3    H227660   3.651   7.646   3.938
 9239TIP3   OH227661   3.332   7.957   2.995
 9239TIP3    H127662   3.257   7.899   2.980
 9239TIP3    H227663   3.310   8.004   3.076
 9240TIP3   OH227664   7.064   0.189   3.613
 9240TIP3    H127665   7.092   0.238   3.536
 9240TIP3    H227666   6.981   0.148   3.587
 9241TIP3   OH227667   3.783   7.289   2.854
 9241TIP3    H127668   3.690   7.299   2.875
 9241TIP3    H227669   3.821   7.375   2.871
 9242TIP3   OH227670   6.572   0.301   3.984
 9242TIP3    H127671   6.609   0.246   4.053
 9242TIP3    H227672   6.487   0.327   4.017
 9243TIP3   OH227673   3.867   7.531   2.947
 9243TIP3    H127674   3.960   7.538   2.969
 9243TIP3    H227675   3.848   7.612   2.899
 9244TIP3   OH227676   3.008   7.949   3.648
 9244TIP3    H127677   3.058   7.941   3.567
 9244TIP3    H227678   3.062   7.908   3.715
 9245TIP3   OH227679   6.272   0.131   2.829
 9245TIP3    H127680   6.235   0.203   2.879
 9245TIP3    H227681   6.241   0.052   2.874
 9246TIP3   OH227682   2.911   7.903   4.277
 9246TIP3    H127683   2.925   7.890   4.371
 9246TIP3    H227684   2.839   7.844   4.255
 9247TIP3   OH227685   3.638   8.019   4.297
 9247TIP3    H127686   3.573   7.968   4.251
 9247TIP3    H227687   3.722   7.985   4.267
 9248TIP3   OH227688   4.295   7.628   2.785
 9248TIP3    H127689   4.236   7.580   2.727
 9248TIP3    H227690   4.297   7.717   2.750
 9249TIP3   OH227691   7.353   0.452   3.866
 9249TIP3    H127692   7.258   0.460   3.862
 9249TIP3    H227693   7.379   0.434   3.776
 9250TIP3   OH227694   6.827   0.060   3.517
 9250TIP3    H127695   6.737   0.036   3.539
 9250TIP3    H227696   6.865  -0.021   3.481
 9251TIP3   OH227697   2.692   7.603   2.997
 9251TIP3    H127698   2.734   7.688   3.011
 9251TIP3    H227699   2.613   7.606   3.050
 9252TIP3   OH227700   6.089   0.062   3.234
 9252TIP3    H127701   6.051   0.144   3.267
 9252TIP3    H227702   6.066  -0.004   3.299
 9253TIP3   OH227703   6.622   0.262   3.714
 9253TIP3    H127704   6.609   0.273   3.808
 9253TIP3    H227705   6.705   0.214   3.707
 9254TIP3   OH227706   6.624   0.088   2.570
 9254TIP3    H127707   6.657   0.077   2.659
 9254TIP3    H227708   6.546   0.143   2.580
 9255TIP3   OH227709   3.114   7.419   4.281
 9255TIP3    H127710   3.018   7.422   4.291
 9255TIP3    H227711   3.144   7.363   4.352
 9256TIP3   OH227712   6.752   0.062   2.816
 9256TIP3    H127713   6.746  -0.007   2.882
 9256TIP3    H227714   6.846   0.067   2.795
 9257TIP3   OH227715   5.940   0.083   2.645
 9257TIP3    H127716   5.985   0.001   2.622
 9257TIP3    H227717   5.975   0.106   2.731
 9258TIP3   OH227718   2.809   7.848   3.070
 9258TIP3    H127719   2.741   7.878   3.130
 9258TIP3    H227720   2.815   7.917   3.004
 9259TIP3   OH227721   3.956   7.482   3.968
 9259TIP3    H127722   4.036   7.522   4.003
 9259TIP3    H227723   3.943   7.403   4.020
 9260TIP3   OH227724   3.836   7.239   3.137
 9260TIP3    H127725   3.832   7.259   3.043
 9260TIP3    H227726   3.878   7.315   3.176
 9261TIP3   OH227727   3.516   7.425   3.236
 9261TIP3    H127728   3.583   7.490   3.218
 9261TIP3    H227729   3.523   7.408   3.330
 9262TIP3   OH227730   3.795   7.731   4.038
 9262TIP3    H127731   3.818   7.782   4.116
 9262TIP3    H227732   3.846   7.650   4.047
 9263TIP3   OH227733   3.665   7.139   3.331
 9263TIP3    H127734   3.666   7.209   3.397
 9263TIP3    H227735   3.724   7.170   3.263
 9264TIP3   OH227736   3.176   7.152   3.108
 9264TIP3    H127737   3.175   7.226   3.168
 9264TIP3    H227738   3.265   7.118   3.112
 9265TIP3   OH227739   4.428   7.633   4.019
 9265TIP3    H127740   4.333   7.634   4.029
 9265TIP3    H227741   4.443   7.583   3.939
 9266TIP3   OH227742   4.083   7.827   3.412
 9266TIP3    H127743   4.008   7.769   3.424
 9266TIP3    H227744   4.155   7.783   3.457
 9267TIP3   OH227745   5.637   0.046   2.883
 9267TIP3    H127746   5.659   0.139   2.873
 9267TIP3    H227747   5.689   0.002   2.815
 9268TIP3   OH227748   2.751   7.338   3.010
 9268TIP3    H127749   2.737   7.432   3.012
 9268TIP3    H227750   2.670   7.303   2.971
 9269TIP3   OH227751   3.127   7.049   3.882
 9269TIP3    H127752   3.098   7.016   3.798
 9269TIP3    H227753   3.118   6.975   3.942
 9270TIP3   OH227754   5.788   0.183   4.521
 9270TIP3    H127755   5.811   0.091   4.531
 9270TIP3    H227756   5.700   0.182   4.483
 9271TIP3   OH227757   2.929   7.860   2.734
 9271TIP3    H127758   2.976   7.832   2.813
 9271TIP3    H227759   2.997   7.866   2.667
 9272TIP3   OH227760   6.413   0.269   4.338
 9272TIP3    H127761   6.379   0.284   4.250
 9272TIP3    H227762   6.449   0.181   4.335
 9273TIP3   OH227763   3.378   8.035   2.553
 9273TIP3    H127764   3.418   8.059   2.637
 9273TIP3    H227765   3.409   7.946   2.537
 9274TIP3   OH227766   6.886   0.292   3.915
 9274TIP3    H127767   6.955   0.345   3.874
 9274TIP3    H227768   6.808   0.347   3.911
 9275TIP3   OH227769   3.082   7.950   4.523
 9275TIP3    H127770   3.156   7.894   4.498
 9275TIP3    H227771   3.106   7.984   4.609
 9276TIP3   OH227772   3.129   7.764   2.957
 9276TIP3    H127773   3.097   7.753   3.047
 9276TIP3    H227774   3.166   7.679   2.935
 9277TIP3   OH227775   3.409   7.841   4.179
 9277TIP3    H127776   3.331   7.896   4.182
 9277TIP3    H227777   3.460   7.874   4.105
 9278TIP3   OH227778   3.288   7.480   2.763
 9278TIP3    H127779   3.247   7.515   2.683
 9278TIP3    H227780   3.371   7.526   2.769
 9279TIP3   OH227781   6.765   0.213   4.313
 9279TIP3    H127782   6.845   0.189   4.266
 9279TIP3    H227783   6.761   0.152   4.386
 9280TIP3   OH227784   4.058   7.906   2.453
 9280TIP3    H127785   4.036   7.853   2.376
 9280TIP3    H227786   4.040   7.996   2.425
 9281TIP3   OH227787   3.532   7.629   4.303
 9281TIP3    H127788   3.533   7.550   4.249
 9281TIP3    H227789   3.489   7.694   4.249
 9282TIP3   OH227790   3.534   7.417   4.112
 9282TIP3    H127791   3.563   7.453   4.029
 9282TIP3    H227792   3.443   7.392   4.097
 9283TIP3   OH227793   3.556   7.954   3.987
 9283TIP3    H127794   3.640   7.958   3.940
 9283TIP3    H227795   3.501   8.018   3.942
 9284TIP3   OH227796   4.144   7.913   4.365
 9284TIP3    H127797   4.187   7.829   4.380
 9284TIP3    H227798   4.212   7.969   4.330
 9285TIP3   OH227799   7.019   0.155   4.104
 9285TIP3    H127800   6.961   0.206   4.047
 9285TIP3    H227801   7.107   0.172   4.070
 9286TIP3   OH227802   3.411   7.732   4.538
 9286TIP3    H127803   3.344   7.666   4.556
 9286TIP3    H227804   3.445   7.709   4.452
 9287TIP3   OH227805   3.665   7.176   4.182
 9287TIP3    H127806   3.617   7.256   4.161
 9287TIP3    H227807   3.600   7.106   4.173
 9288TIP3   OH227808   3.789   7.678   4.400
 9288TIP3    H127809   3.780   7.663   4.495
 9288TIP3    H227810   3.704   7.655   4.364
 9289TIP3   OH227811   4.032   7.631   4.256
 9289TIP3    H127812   3.958   7.630   4.316
 9289TIP3    H227813   4.106   7.600   4.308
 9290TIP3   OH227814   4.261   7.571   4.403
 9290TIP3    H127815   4.275   7.477   4.416
 9290TIP3    H227816   4.257   7.607   4.492
 9291TIP3   OH227817   3.252   7.512   4.595
 9291TIP3    H127818   3.252   7.423   4.560
 9291TIP3    H227819   3.289   7.504   4.683
 9292TIP3   OH227820   3.761   7.186   4.439
 9292TIP3    H127821   3.827   7.116   4.438
 9292TIP3    H227822   3.721   7.182   4.353
 9293TIP3   OH227823   3.827   7.401   4.597
 9293TIP3    H127824   3.809   7.330   4.536
 9293TIP3    H227825   3.750   7.458   4.592
 9294TIP3   OH227826   2.541   7.962   2.926
 9294TIP3    H127827   2.618   8.007   2.892
 9294TIP3    H227828   2.525   7.891   2.864
 9295TIP3   OH227829   7.232   0.568   4.142
 9295TIP3    H127830   7.162   0.562   4.206
 9295TIP3    H227831   7.278   0.649   4.163
 9296TIP3   OH227832   7.025   0.061   2.797
 9296TIP3    H127833   7.091   0.120   2.761
 9296TIP3    H227834   7.068   0.022   2.874
 9297TIP3   OH227835   4.325   7.948   2.997
 9297TIP3    H127836   4.263   7.908   3.058
 9297TIP3    H227837   4.394   7.983   3.052
 9298TIP3   OH227838   7.198   0.324   3.419
 9298TIP3    H127839   7.262   0.266   3.378
 9298TIP3    H227840   7.206   0.406   3.370
 9299TIP3   OH227841   4.258   7.861   2.637
 9299TIP3    H127842   4.191   7.863   2.569
 9299TIP3    H227843   4.235   7.933   2.696
 9300TIP3   OH227844   4.130   7.532   2.594
 9300TIP3    H127845   4.089   7.569   2.516
 9300TIP3    H227846   4.110   7.438   2.589
 9301TIP3   OH227847   4.138   7.807   3.145
 9301TIP3    H127848   4.150   7.713   3.135
 9301TIP3    H227849   4.124   7.819   3.239
 9302TIP3   OH227850   2.766   7.886   3.887
 9302TIP3    H127851   2.759   7.851   3.798
 9302TIP3    H227852   2.860   7.887   3.905
 9303TIP3   OH227853   7.264   0.217   3.998
 9303TIP3    H127854   7.333   0.152   3.988
 9303TIP3    H227855   7.288   0.287   3.938
 9304TIP3   OH227856   4.613   8.031   4.009
 9304TIP3    H127857   4.537   7.986   4.047
 9304TIP3    H227858   4.687   7.972   4.025
 9305TIP3   OH227859   4.077   7.266   2.582
 9305TIP3    H127860   4.153   7.236   2.631
 9305TIP3    H227861   4.009   7.200   2.600
 9306TIP3   OH227862   4.139   7.524   3.029
 9306TIP3    H127863   4.176   7.437   3.047
 9306TIP3    H227864   4.195   7.560   2.960
 9307TIP3   OH227865   4.298   7.699   3.530
 9307TIP3    H127866   4.380   7.720   3.485
 9307TIP3    H227867   4.309   7.732   3.619
 9308TIP3   OH227868   4.367   7.844   3.759
 9308TIP3    H127869   4.291   7.875   3.809
 9308TIP3    H227870   4.401   7.922   3.715
 9309TIP3   OH227871   2.987   7.566   4.564
 9309TIP3    H127872   3.082   7.562   4.566
 9309TIP3    H227873   2.959   7.482   4.600
 9310TIP3   OH227874   4.817   7.436   4.313
 9310TIP3    H127875   4.878   7.371   4.276
 9310TIP3    H227876   4.788   7.488   4.238
 9311TIP3   OH227877   4.242   7.274   3.074
 9311TIP3    H127878   4.292   7.261   3.154
 9311TIP3    H227879   4.183   7.199   3.071
 9312TIP3   OH227880   2.947   7.260   3.891
 9312TIP3    H127881   3.003   7.184   3.901
 9312TIP3    H227882   3.007   7.334   3.884
 9313TIP3   OH227883   2.745   7.535   3.962
 9313TIP3    H127884   2.794   7.529   3.880
 9313TIP3    H227885   2.776   7.616   4.003
 9314TIP3   OH227886   4.684   7.570   4.116
 9314TIP3    H127887   4.602   7.614   4.138
 9314TIP3    H227888   4.658   7.496   4.062
 9315TIP3   OH227889   4.323   7.208   2.703
 9315TIP3    H127890   4.361   7.137   2.651
 9315TIP3    H227891   4.389   7.277   2.703
 9316TIP3   OH227892   2.730   7.041   3.465
 9316TIP3    H127893   2.640   7.031   3.495
 9316TIP3    H227894   2.724   7.096   3.388
 9317TIP3   OH227895   2.950   7.122   4.281
 9317TIP3    H127896   2.901   7.112   4.363
 9317TIP3    H227897   2.885   7.155   4.218
 9318TIP3   OH227898   4.587   7.330   4.000
 9318TIP3    H127899   4.497   7.319   3.968
 9318TIP3    H227900   4.625   7.242   3.994
 9319TIP3   OH227901   3.785   7.244   3.613
 9319TIP3    H127902   3.747   7.177   3.670
 9319TIP3    H227903   3.863   7.203   3.576
 9320TIP3   OH227904   4.311   7.134   3.523
 9320TIP3    H127905   4.348   7.182   3.449
 9320TIP3    H227906   4.216   7.150   3.516
 9321TIP3   OH227907   4.411   7.231   3.286
 9321TIP3    H127908   4.481   7.176   3.251
 9321TIP3    H227909   4.442   7.321   3.274
 9322TIP3   OH227910   3.039   6.955   3.634
 9322TIP3    H127911   2.947   6.926   3.639
 9322TIP3    H227912   3.089   6.873   3.632
 9323TIP3   OH227913   2.826   6.833   3.288
 9323TIP3    H127914   2.857   6.886   3.214
 9323TIP3    H227915   2.801   6.897   3.355
 9324TIP3   OH227916   3.484   6.995   3.517
 9324TIP3    H127917   3.541   7.039   3.453
 9324TIP3    H227918   3.515   7.026   3.602
 9325TIP3   OH227919   4.027   7.135   3.499
 9325TIP3    H127920   4.034   7.093   3.413
 9325TIP3    H227921   4.017   7.063   3.561
 9326TIP3   OH227922   4.059   7.060   3.067
 9326TIP3    H127923   3.973   7.100   3.082
 9326TIP3    H227924   4.054   6.975   3.109
 9327TIP3   OH227925   2.951   6.990   3.043
 9327TIP3    H127926   2.994   6.921   2.992
 9327TIP3    H227927   3.024   7.043   3.075
 9328TIP3   OH227928   3.447   7.176   3.140
 9328TIP3    H127929   3.503   7.111   3.182
 9328TIP3    H227930   3.480   7.260   3.171
 9329TIP3   OH227931   3.249   7.240   4.531
 9329TIP3    H127932   3.211   7.170   4.583
 9329TIP3    H227933   3.342   7.241   4.556
 9330TIP3   OH227934   3.500   7.236   4.647
 9330TIP3    H127935   3.584   7.211   4.607
 9330TIP3    H227936   3.484   7.169   4.714
 9331TIP3   OH227937   4.327   7.301   4.434
 9331TIP3    H127938   4.341   7.270   4.523
 9331TIP3    H227939   4.413   7.295   4.393
 9332TIP3   OH227940   8.361   0.194   2.696
 9332TIP3    H127941   8.328   0.281   2.673
 9332TIP3    H227942   8.292   0.134   2.668
 9333TIP3   OH227943   8.363   0.207   3.077
 9333TIP3    H127944   8.398   0.188   3.164
 9333TIP3    H227945   8.321   0.126   3.050
 9334TIP3   OH227946   7.657   0.103   3.443
 9334TIP3    H127947   7.686   0.034   3.504
 9334TIP3    H227948   7.734   0.160   3.433
 9335TIP3   OH227949   0.081   0.510   2.766
 9335TIP3    H127950   0.077   0.438   2.829
 9335TIP3    H227951   0.136   0.576   2.808
 9336TIP3   OH227952   7.694   0.448   3.247
 9336TIP3    H127953   7.659   0.367   3.212
 9336TIP3    H227954   7.773   0.465   3.195
 9337TIP3   OH227955   4.503   7.727   2.942
 9337TIP3    H127956   4.463   7.811   2.963
 9337TIP3    H227957   4.433   7.677   2.900
 9338TIP3   OH227958   4.561   8.017   3.123
 9338TIP3    H127959   4.608   7.940   3.155
 9338TIP3    H227960   4.630   8.073   3.088
 9339TIP3   OH227961   8.180   0.425   3.115
 9339TIP3    H127962   8.223   0.346   3.082
 9339TIP3    H227963   8.252   0.482   3.144
 9340TIP3   OH227964   6.339   7.772   3.118
 9340TIP3    H127965   6.370   7.851   3.163
 9340TIP3    H227966   6.366   7.784   3.027
 9341TIP3   OH227967   5.738   7.950   3.150
 9341TIP3    H127968   5.781   7.868   3.175
 9341TIP3    H227969   5.706   7.933   3.061
 9342TIP3   OH227970   5.078   7.611   3.114
 9342TIP3    H127971   5.060   7.684   3.055
 9342TIP3    H227972   5.031   7.537   3.076
 9343TIP3   OH227973   5.777   7.700   2.737
 9343TIP3    H127974   5.842   7.687   2.806
 9343TIP3    H227975   5.827   7.737   2.664
 9344TIP3   OH227976   4.712   7.810   3.225
 9344TIP3    H127977   4.792   7.795   3.275
 9344TIP3    H227978   4.723   7.759   3.146
 9345TIP3   OH227979   5.150   8.007   3.023
 9345TIP3    H127980   5.242   7.987   3.034
 9345TIP3    H227981   5.111   7.926   2.990
 9346TIP3   OH227982   6.412   7.980   3.290
 9346TIP3    H127983   6.328   8.021   3.273
 9346TIP3    H227984   6.434   8.005   3.380
 9347TIP3   OH227985   5.071   7.595   3.553
 9347TIP3    H127986   5.014   7.630   3.485
 9347TIP3    H227987   5.022   7.609   3.635
 9348TIP3   OH227988   8.243   0.398   2.558
 9348TIP3    H127989   8.198   0.399   2.474
 9348TIP3    H227990   8.272   0.488   2.570
 9349TIP3   OH227991   8.011   0.363   3.344
 9349TIP3    H127992   7.945   0.425   3.376
 9349TIP3    H227993   8.046   0.405   3.265
 9350TIP3   OH227994   5.977   7.710   2.918
 9350TIP3    H127995   5.962   7.665   3.002
 9350TIP3    H227996   6.030   7.786   2.941
 9351TIP3   OH227997   4.948   7.710   3.335
 9351TIP3    H127998   5.006   7.782   3.361
 9351TIP3    H227999   4.993   7.668   3.261
 9352TIP3   OH228000   7.834   0.576   3.454
 9352TIP3    H128001   7.796   0.565   3.367
 9352TIP3    H228002   7.759   0.571   3.513
 9353TIP3   OH228003   7.230   0.206   2.686
 9353TIP3    H128004   7.198   0.217   2.596
 9353TIP3    H228005   7.248   0.295   2.716
 9354TIP3   OH228006   6.134   7.668   3.282
 9354TIP3    H128007   6.048   7.699   3.253
 9354TIP3    H228008   6.196   7.701   3.217
 9355TIP3   OH228009   5.422   7.308   3.269
 9355TIP3    H128010   5.412   7.215   3.288
 9355TIP3    H228011   5.349   7.350   3.314
 9356TIP3   OH228012   0.111   0.525   2.483
 9356TIP3    H128013   0.083   0.446   2.437
 9356TIP3    H228014   0.120   0.497   2.574
 9357TIP3   OH228015   0.394   0.667   3.264
 9357TIP3    H128016   0.382   0.587   3.212
 9357TIP3    H228017   0.423   0.733   3.201
 9358TIP3   OH228018   8.193   0.055   2.527
 9358TIP3    H128019   8.114   0.107   2.514
 9358TIP3    H228020   8.238   0.058   2.443
 9359TIP3   OH228021   5.320   7.862   2.237
 9359TIP3    H128022   5.382   7.914   2.287
 9359TIP3    H228023   5.375   7.800   2.189
 9360TIP3   OH228024   0.591   0.303   3.107
 9360TIP3    H128025   0.510   0.353   3.117
 9360TIP3    H228026   0.623   0.328   3.020
 9361TIP3   OH228027   0.042   0.134   2.502
 9361TIP3    H128028  -0.014   0.156   2.577
 9361TIP3    H228029   0.126   0.111   2.542
 9362TIP3   OH228030   0.272   0.183   3.412
 9362TIP3    H128031   0.275   0.263   3.464
 9362TIP3    H228032   0.188   0.187   3.367
 9363TIP3   OH228033   7.779   0.139   2.903
 9363TIP3    H128034   7.737   0.081   2.839
 9363TIP3    H228035   7.852   0.088   2.937
 9364TIP3   OH228036   7.914   0.507   3.108
 9364TIP3    H128037   7.875   0.506   3.021
 9364TIP3    H228038   8.008   0.504   3.092
 9365TIP3   OH228039   7.901   0.119   3.262
 9365TIP3    H128040   7.937   0.092   3.178
 9365TIP3    H228041   7.947   0.202   3.282
 9366TIP3   OH228042   8.088   0.574   3.586
 9366TIP3    H128043   8.054   0.660   3.611
 9366TIP3    H228044   8.018   0.536   3.533
 9367TIP3   OH228045   8.379   0.001   2.322
 9367TIP3    H128046   8.436   0.058   2.373
 9367TIP3    H228047   8.406   0.015   2.231
 9368TIP3   OH228048   7.801   0.226   3.694
 9368TIP3    H128049   7.810   0.312   3.735
 9368TIP3    H228050   7.709   0.202   3.707
 9369TIP3   OH228051   6.056   7.256   2.367
 9369TIP3    H128052   5.981   7.281   2.421
 9369TIP3    H228053   6.078   7.336   2.319
 9370TIP3   OH228054   4.807   7.997   2.712
 9370TIP3    H128055   4.742   8.040   2.657
 9370TIP3    H228056   4.769   7.912   2.734
 9371TIP3   OH228057   7.436   0.367   3.624
 9371TIP3    H128058   7.370   0.346   3.558
 9371TIP3    H228059   7.471   0.281   3.651
 9372TIP3   OH228060   0.527   0.142   3.586
 9372TIP3    H128061   0.443   0.153   3.540
 9372TIP3    H228062   0.545   0.048   3.580
 9373TIP3   OH228063   7.619   0.574   3.634
 9373TIP3    H128064   7.677   0.536   3.700
 9373TIP3    H228065   7.552   0.507   3.619
 9374TIP3   OH228066   5.186   7.390   3.399
 9374TIP3    H128067   5.101   7.357   3.369
 9374TIP3    H228068   5.164   7.469   3.448
 9375TIP3   OH228069   5.726   7.501   3.594
 9375TIP3    H128070   5.795   7.475   3.654
 9375TIP3    H228071   5.645   7.483   3.641
 9376TIP3   OH228072   5.956   7.932   3.509
 9376TIP3    H128073   5.910   7.929   3.592
 9376TIP3    H228074   5.937   8.019   3.474
 9377TIP3   OH228075   8.456   0.027   2.064
 9377TIP3    H128076   8.423   0.008   1.976
 9377TIP3    H228077   8.514   0.103   2.052
 9378TIP3   OH228078   5.340   7.430   2.373
 9378TIP3    H128079   5.306   7.433   2.463
 9378TIP3    H228080   5.296   7.355   2.334
 9379TIP3   OH228081   5.119   7.911   3.413
 9379TIP3    H128082   5.073   7.927   3.496
 9379TIP3    H228083   5.103   7.989   3.361
 9380TIP3   OH228084   5.003   7.789   2.927
 9380TIP3    H128085   4.913   7.766   2.950
 9380TIP3    H228086   5.017   7.750   2.842
 9381TIP3   OH228087   5.498   7.873   2.657
 9381TIP3    H128088   5.446   7.942   2.616
 9381TIP3    H228089   5.553   7.839   2.586
 9382TIP3   OH228090   0.009   0.134   3.741
 9382TIP3    H128091  -0.016   0.064   3.802
 9382TIP3    H228092   0.101   0.152   3.762
 9383TIP3   OH228093   5.652   7.899   2.891
 9383TIP3    H128094   5.589   7.931   2.827
 9383TIP3    H228095   5.690   7.821   2.852
 9384TIP3   OH228096   4.941   7.932   3.625
 9384TIP3    H128097   4.975   7.994   3.689
 9384TIP3    H228098   4.930   7.850   3.674
 9385TIP3   OH228099   4.991   7.413   2.335
 9385TIP3    H128100   4.982   7.410   2.431
 9385TIP3    H228101   4.916   7.464   2.306
 9386TIP3   OH228102   4.535   7.453   3.205
 9386TIP3    H128103   4.607   7.487   3.259
 9386TIP3    H228104   4.578   7.424   3.124
 9387TIP3   OH228105   4.498   7.437   2.722
 9387TIP3    H128106   4.546   7.468   2.645
 9387TIP3    H228107   4.438   7.508   2.744
 9388TIP3   OH228108   8.494   0.132   3.316
 9388TIP3    H128109   8.528   0.066   3.257
 9388TIP3    H228110   8.464   0.083   3.393
 9389TIP3   OH228111   5.336   7.613   2.991
 9389TIP3    H128112   5.256   7.612   3.044
 9389TIP3    H228113   5.407   7.603   3.053
 9390TIP3   OH228114   4.766   7.669   2.996
 9390TIP3    H128115   4.674   7.676   2.969
 9390TIP3    H228116   4.791   7.579   2.975
 9391TIP3   OH228117   5.032   7.662   2.688
 9391TIP3    H128118   5.125   7.679   2.668
 9391TIP3    H228119   4.986   7.685   2.607
 9392TIP3   OH228120   5.822   7.689   3.194
 9392TIP3    H128121   5.795   7.703   3.285
 9392TIP3    H228122   5.757   7.629   3.158
 9393TIP3   OH228123   4.882   7.698   2.462
 9393TIP3    H128124   4.811   7.653   2.417
 9393TIP3    H228125   4.934   7.736   2.392
 9394TIP3   OH228126   7.790   0.473   3.834
 9394TIP3    H128127   7.869   0.499   3.880
 9394TIP3    H228128   7.724   0.461   3.903
 9395TIP3   OH228129   5.415   7.942   3.089
 9395TIP3    H128130   5.488   7.903   3.041
 9395TIP3    H228131   5.418   7.900   3.175
 9396TIP3   OH228132   4.933   7.425   2.972
 9396TIP3    H128133   4.897   7.352   3.022
 9396TIP3    H228134   4.983   7.384   2.902
 9397TIP3   OH228135   5.390   7.844   3.374
 9397TIP3    H128136   5.302   7.877   3.391
 9397TIP3    H228137   5.448   7.901   3.425
 9398TIP3   OH228138   7.961   0.198   2.482
 9398TIP3    H128139   7.886   0.141   2.465
 9398TIP3    H228140   7.939   0.244   2.563
 9399TIP3   OH228141   0.359   0.446   3.102
 9399TIP3    H128142   0.387   0.494   3.025
 9399TIP3    H228143   0.276   0.405   3.076
 9400TIP3   OH228144   5.579   7.551   2.311
 9400TIP3    H128145   5.491   7.526   2.338
 9400TIP3    H228146   5.593   7.636   2.354
 9401TIP3   OH228147   8.370   0.556   3.471
 9401TIP3    H128148   8.407   0.504   3.542
 9401TIP3    H228149   8.287   0.589   3.505
 9402TIP3   OH228150   5.656   7.784   2.439
 9402TIP3    H128151   5.750   7.792   2.457
 9402TIP3    H228152   5.635   7.864   2.391
 9403TIP3   OH228153   7.636   0.190   3.135
 9403TIP3    H128154   7.684   0.183   3.053
 9403TIP3    H228155   7.695   0.151   3.200
 9404TIP3   OH228156   8.069   0.387   2.317
 9404TIP3    H128157   8.031   0.459   2.367
 9404TIP3    H228158   8.037   0.308   2.361
 9405TIP3   OH228159   7.539   0.149   3.765
 9405TIP3    H128160   7.556   0.135   3.859
 9405TIP3    H228161   7.470   0.085   3.744
 9406TIP3   OH228162   8.269   0.260   3.785
 9406TIP3    H128163   8.205   0.210   3.734
 9406TIP3    H228164   8.354   0.227   3.755
 9407TIP3   OH228165   6.090   7.884   2.271
 9407TIP3    H128166   6.033   7.835   2.213
 9407TIP3    H228167   6.089   7.974   2.237
 9408TIP3   OH228168   0.648   0.708   3.355
 9408TIP3    H128169   0.553   0.717   3.348
 9408TIP3    H228170   0.677   0.691   3.265
 9409TIP3   OH228171   0.124   0.317   3.003
 9409TIP3    H128172   0.034   0.294   3.026
 9409TIP3    H228173   0.161   0.236   2.967
 9410TIP3   OH228174   4.488   7.859   2.482
 9410TIP3    H128175   4.534   7.941   2.497
 9410TIP3    H228176   4.411   7.863   2.538
 9411TIP3   OH228177   7.887   0.319   2.720
 9411TIP3    H128178   7.850   0.400   2.754
 9411TIP3    H228179   7.863   0.253   2.785
 9412TIP3   OH228180   8.418   0.517   3.201
 9412TIP3    H128181   8.405   0.530   3.295
 9412TIP3    H228182   8.503   0.473   3.195
 9413TIP3   OH228183   8.420   0.342   2.058
 9413TIP3    H128184   8.454   0.334   2.147
 9413TIP3    H228185   8.343   0.398   2.066
 9414TIP3   OH228186   4.911   7.675   3.767
 9414TIP3    H128187   4.816   7.678   3.778
 9414TIP3    H228188   4.942   7.620   3.839
 9415TIP3   OH228189   0.048   0.319   2.303
 9415TIP3    H128190   0.041   0.250   2.369
 9415TIP3    H228191   0.142   0.323   2.282
 9416TIP3   OH228192   7.736   0.339   2.133
 9416TIP3    H128193   7.776   0.256   2.108
 9416TIP3    H228194   7.773   0.358   2.219
 9417TIP3   OH228195   7.438   0.087   2.556
 9417TIP3    H128196   7.371   0.119   2.616
 9417TIP3    H228197   7.445   0.156   2.490
 9418TIP3   OH228198   5.753   7.738   3.453
 9418TIP3    H128199   5.831   7.780   3.489
 9418TIP3    H228200   5.741   7.660   3.507
 9419TIP3   OH228201   5.639   7.491   2.619
 9419TIP3    H128202   5.621   7.520   2.529
 9419TIP3    H228203   5.677   7.568   2.661
 9420TIP3   OH228204   5.317   7.674   2.722
 9420TIP3    H128205   5.380   7.745   2.704
 9420TIP3    H228206   5.321   7.662   2.817
 9421TIP3   OH228207   5.591   7.987   3.526
 9421TIP3    H128208   5.615   8.039   3.602
 9421TIP3    H228209   5.643   7.907   3.534
 9422TIP3   OH228210   5.464   7.394   2.818
 9422TIP3    H128211   5.460   7.465   2.883
 9422TIP3    H228212   5.523   7.426   2.751
 9423TIP3   OH228213   4.978   7.400   2.610
 9423TIP3    H128214   4.970   7.487   2.649
 9423TIP3    H228215   5.072   7.379   2.617
 9424TIP3   OH228216   6.224   7.890   3.507
 9424TIP3    H128217   6.128   7.890   3.516
 9424TIP3    H228218   6.241   7.842   3.426
 9425TIP3   OH228219   0.212   0.070   2.898
 9425TIP3    H128220   0.136   0.012   2.910
 9425TIP3    H228221   0.283   0.026   2.944
 9426TIP3   OH228222   7.431   0.301   2.369
 9426TIP3    H128223   7.457   0.392   2.358
 9426TIP3    H228224   7.486   0.253   2.306
 9427TIP3   OH228225   4.534   7.589   2.499
 9427TIP3    H128226   4.538   7.684   2.499
 9427TIP3    H228227   4.455   7.568   2.449
 9428TIP3   OH228228   4.922   7.306   3.369
 9428TIP3    H128229   4.894   7.273   3.284
 9428TIP3    H228230   4.914   7.232   3.429
 9429TIP3   OH228231   7.584   0.440   4.011
 9429TIP3    H128232   7.608   0.347   4.019
 9429TIP3    H228233   7.497   0.439   3.971
 9430TIP3   OH228234   7.560   0.100   2.224
 9430TIP3    H128235   7.607   0.068   2.301
 9430TIP3    H228236   7.628   0.107   2.157
 9431TIP3   OH228237   8.207   0.523   3.826
 9431TIP3    H128238   8.174   0.539   3.738
 9431TIP3    H228239   8.244   0.434   3.822
 9432TIP3   OH228240   8.008   0.280   2.039
 9432TIP3    H128241   8.046   0.302   2.124
 9432TIP3    H228242   8.039   0.191   2.021
 9433TIP3   OH228243   0.182   0.551   3.400
 9433TIP3    H128244   0.251   0.603   3.359
 9433TIP3    H228245   0.105   0.608   3.398
 9434TIP3   OH228246   7.711   0.193   4.009
 9434TIP3    H128247   7.786   0.141   3.981
 9434TIP3    H228248   7.735   0.226   4.096
 9435TIP3   OH228249   4.925   8.027   2.434
 9435TIP3    H128250   4.900   7.989   2.518
 9435TIP3    H228251   4.966   7.955   2.386
 9436TIP3   OH228252   8.036   0.080   3.663
 9436TIP3    H128253   7.961   0.139   3.668
 9436TIP3    H228254   8.089   0.114   3.591
 9437TIP3   OH228255   5.041   7.825   2.279
 9437TIP3    H128256   5.013   7.828   2.187
 9437TIP3    H228257   5.137   7.830   2.274
 9438TIP3   OH228258   0.062   0.472   3.800
 9438TIP3    H128259   0.143   0.451   3.754
 9438TIP3    H228260   0.059   0.411   3.873
 9439TIP3   OH228261   0.191   0.149   1.937
 9439TIP3    H128262   0.167   0.097   1.861
 9439TIP3    H228263   0.172   0.239   1.912
 9440TIP3   OH228264   5.327   7.885   3.791
 9440TIP3    H128265   5.330   7.806   3.736
 9440TIP3    H228266   5.285   7.951   3.736
 9441TIP3   OH228267   5.331   7.672   3.600
 9441TIP3    H128268   5.361   7.711   3.517
 9441TIP3    H228269   5.240   7.648   3.583
 9442TIP3   OH228270   8.185   0.195   3.474
 9442TIP3    H128271   8.270   0.201   3.429
 9442TIP3    H228272   8.131   0.260   3.430
 9443TIP3   OH228273   0.273   0.157   3.852
 9443TIP3    H128274   0.319   0.074   3.866
 9443TIP3    H228275   0.341   0.217   3.821
 9444TIP3   OH228276   0.316   0.411   3.587
 9444TIP3    H128277   0.257   0.462   3.531
 9444TIP3    H228278   0.403   0.429   3.552
 9445TIP3   OH228279   5.205   7.989   4.025
 9445TIP3    H128280   5.139   7.922   4.043
 9445TIP3    H228281   5.240   7.966   3.939
 9446TIP3   OH228282   5.461   7.432   3.669
 9446TIP3    H128283   5.414   7.513   3.648
 9446TIP3    H228284   5.395   7.363   3.660
 9447TIP3   OH228285   5.586   7.934   3.887
 9447TIP3    H128286   5.579   7.920   3.981
 9447TIP3    H228287   5.500   7.912   3.852
 9448TIP3   OH228288   5.827   7.886   3.741
 9448TIP3    H128289   5.753   7.887   3.802
 9448TIP3    H228290   5.902   7.857   3.794
 9449TIP3   OH228291   6.053   7.826   3.890
 9449TIP3    H128292   6.069   7.733   3.904
 9449TIP3    H228293   6.052   7.864   3.978
 9450TIP3   OH228294   5.047   7.769   4.082
 9450TIP3    H128295   5.049   7.680   4.047
 9450TIP3    H228296   5.085   7.761   4.170
 9451TIP3   OH228297   5.557   7.441   3.927
 9451TIP3    H128298   5.623   7.373   3.925
 9451TIP3    H228299   5.516   7.438   3.840
 9452TIP3   OH228300   5.622   7.658   4.085
 9452TIP3    H128301   5.604   7.587   4.024
 9452TIP3    H228302   5.545   7.715   4.079
 9453TIP3   OH228303   7.168   0.204   2.412
 9453TIP3    H128304   7.246   0.249   2.380
 9453TIP3    H228305   7.155   0.132   2.351
 9454TIP3   OH228306   0.536   0.841   3.632
 9454TIP3    H128307   0.464   0.821   3.693
 9454TIP3    H228308   0.594   0.898   3.682
 9455TIP3   OH228309   0.321   0.316   2.286
 9455TIP3    H128310   0.384   0.378   2.250
 9455TIP3    H228311   0.365   0.278   2.362
 9456TIP3   OH228312   0.457   0.192   2.488
 9456TIP3    H128313   0.393   0.151   2.546
 9456TIP3    H228314   0.523   0.230   2.546
 9457TIP3   OH228315   0.486   0.575   2.902
 9457TIP3    H128316   0.554   0.519   2.864
 9457TIP3    H228317   0.499   0.660   2.860
 9458TIP3   OH228318   0.384   0.103   2.125
 9458TIP3    H128319   0.317   0.107   2.057
 9458TIP3    H228320   0.363   0.177   2.183
 9459TIP3   OH228321   5.932   7.787   2.076
 9459TIP3    H128322   5.881   7.829   2.006
 9459TIP3    H228323   5.909   7.694   2.068
 9460TIP3   OH228324   0.269   0.050   2.631
 9460TIP3    H128325   0.279  -0.044   2.622
 9460TIP3    H228326   0.254   0.063   2.725
 9461TIP3   OH228327   7.395   0.131   3.373
 9461TIP3    H128328   7.389   0.095   3.284
 9461TIP3    H228329   7.488   0.131   3.392
 9462TIP3   OH228330   0.561   0.473   3.484
 9462TIP3    H128331   0.632   0.409   3.477
 9462TIP3    H228332   0.587   0.545   3.426
 9463TIP3   OH228333   0.745   0.275   3.501
 9463TIP3    H128334   0.669   0.231   3.538
 9463TIP3    H228335   0.818   0.214   3.515
 9464TIP3   OH228336   5.876   7.521   2.068
 9464TIP3    H128337   5.957   7.497   2.114
 9464TIP3    H228338   5.811   7.459   2.100
 9465TIP3   OH228339   5.934   7.781   2.517
 9465TIP3    H128340   5.972   7.694   2.534
 9465TIP3    H228341   5.989   7.817   2.447
 9466TIP3   OH228342   6.093   7.955   3.016
 9466TIP3    H128343   6.175   7.977   2.972
 9466TIP3    H228344   6.104   7.987   3.106
 9467TIP3   OH228345   0.495   0.085   3.246
 9467TIP3    H128346   0.420   0.117   3.297
 9467TIP3    H228347   0.528   0.162   3.200
 9468TIP3   OH228348   4.782   7.822   4.051
 9468TIP3    H128349   4.877   7.819   4.052
 9468TIP3    H228350   4.755   7.738   4.087
 9469TIP3   OH228351   6.612   7.690   3.800
 9469TIP3    H128352   6.672   7.625   3.764
 9469TIP3    H228353   6.585   7.743   3.725
 9470TIP3   OH228354   6.039   7.531   2.560
 9470TIP3    H128355   6.090   7.519   2.640
 9470TIP3    H228356   5.979   7.457   2.559
 9471TIP3   OH228357   4.742   7.518   3.379
 9471TIP3    H128358   4.799   7.441   3.388
 9471TIP3    H228359   4.802   7.592   3.371
 9472TIP3   OH228360   4.541   7.792   3.448
 9472TIP3    H128361   4.590   7.786   3.366
 9472TIP3    H228362   4.574   7.871   3.490
 9473TIP3   OH228363   6.481   7.828   3.602
 9473TIP3    H128364   6.398   7.871   3.624
 9473TIP3    H228365   6.456   7.752   3.549
 9474TIP3   OH228366   6.120   7.464   2.191
 9474TIP3    H128367   6.159   7.394   2.139
 9474TIP3    H228368   6.186   7.534   2.191
 9475TIP3   OH228369   4.527   7.293   2.950
 9475TIP3    H128370   4.437   7.288   2.981
 9475TIP3    H228371   4.523   7.351   2.875
 9476TIP3   OH228372   4.746   7.378   3.767
 9476TIP3    H128373   4.697   7.368   3.849
 9476TIP3    H228374   4.681   7.412   3.705
 9477TIP3   OH228375   6.383   7.587   3.488
 9477TIP3    H128376   6.294   7.576   3.455
 9477TIP3    H228377   6.422   7.499   3.481
 9478TIP3   OH228378   5.582   7.502   3.101
 9478TIP3    H128379   5.544   7.434   3.157
 9478TIP3    H228380   5.661   7.461   3.064
 9479TIP3   OH228381   6.106   7.384   3.005
 9479TIP3    H128382   6.145   7.436   2.935
 9479TIP3    H228383   6.014   7.409   3.005
 9480TIP3   OH228384   6.207   7.489   2.772
 9480TIP3    H128385   6.278   7.434   2.739
 9480TIP3    H228386   6.238   7.579   2.761
 9481TIP3   OH228387   4.835   7.211   3.121
 9481TIP3    H128388   4.744   7.182   3.126
 9481TIP3    H228389   4.886   7.129   3.118
 9482TIP3   OH228390   4.622   7.090   2.772
 9482TIP3    H128391   4.653   7.144   2.699
 9482TIP3    H228392   4.597   7.153   2.840
 9483TIP3   OH228393   5.284   7.248   3.005
 9483TIP3    H128394   5.338   7.297   2.943
 9483TIP3    H228395   5.310   7.282   3.091
 9484TIP3   OH228396   5.820   7.393   2.989
 9484TIP3    H128397   5.831   7.353   2.902
 9484TIP3    H228398   5.811   7.318   3.048
 9485TIP3   OH228399   5.853   7.319   2.551
 9485TIP3    H128400   5.773   7.367   2.572
 9485TIP3    H228401   5.844   7.236   2.597
 9486TIP3   OH228402   4.745   7.245   2.533
 9486TIP3    H128403   4.790   7.182   2.476
 9486TIP3    H228404   4.816   7.299   2.569
 9487TIP3   OH228405   5.255   7.424   2.635
 9487TIP3    H128406   5.312   7.375   2.694
 9487TIP3    H228407   5.271   7.516   2.657
 9488TIP3   OH228408   5.045   7.495   4.017
 9488TIP3    H128409   5.007   7.426   4.070
 9488TIP3    H228410   5.138   7.497   4.042
 9489TIP3   OH228411   5.295   7.492   4.133
 9489TIP3    H128412   5.379   7.469   4.094
 9489TIP3    H228413   5.281   7.425   4.200
 9490TIP3   OH228414   6.123   7.557   3.921
 9490TIP3    H128415   6.138   7.526   4.010
 9490TIP3    H228416   6.210   7.553   3.880
 9491TIP3   OH228417   0.947   0.351   2.914
 9491TIP3    H128418   0.999   0.312   2.984
 9491TIP3    H228419   1.012   0.391   2.855
 9492TIP3   OH228420   6.294   7.988   2.426
 9492TIP3    H128421   6.250   8.070   2.449
 9492TIP3    H228422   6.226   7.935   2.385
 9493TIP3   OH228423   0.697   0.262   2.612
 9493TIP3    H128424   0.740   0.185   2.648
 9493TIP3    H228425   0.759   0.295   2.547
 9494TIP3   OH228426   6.825   7.864   2.614
 9494TIP3    H128427   6.814   7.931   2.546
 9494TIP3    H228428   6.794   7.784   2.573
 9495TIP3   OH228429   0.838   0.052   2.712
 9495TIP3    H128430   0.916   0.039   2.766
 9495TIP3    H228431   0.850  -0.005   2.637
 9496TIP3   OH228432   6.858   7.844   3.049
 9496TIP3    H128433   6.805   7.882   2.979
 9496TIP3    H228434   6.807   7.859   3.129
 9497TIP3   OH228435   6.729   7.969   2.840
 9497TIP3    H128436   6.790   8.039   2.862
 9497TIP3    H228437   6.766   7.927   2.763
 9498TIP3   OH228438   0.530   0.465   2.191
 9498TIP3    H128439   0.507   0.491   2.101
 9498TIP3    H228440   0.573   0.542   2.228
 9499TIP3   OH228441   7.197   7.563   2.752
 9499TIP3    H128442   7.207   7.473   2.785
 9499TIP3    H228443   7.128   7.601   2.806
 9500TIP3   OH228444   1.056   0.487   3.184
 9500TIP3    H128445   1.046   0.572   3.226
 9500TIP3    H228446   0.970   0.445   3.194
 9501TIP3   OH228447   0.918   0.220   2.148
 9501TIP3    H128448   0.912   0.310   2.178
 9501TIP3    H228449   0.866   0.169   2.211
 9502TIP3   OH228450   0.719   0.618   3.114
 9502TIP3    H128451   0.661   0.597   3.041
 9502TIP3    H228452   0.755   0.534   3.141
 9503TIP3   OH228453   6.972   7.649   2.890
 9503TIP3    H128454   6.888   7.617   2.857
 9503TIP3    H228455   6.948   7.723   2.946
 9504TIP3   OH228456   7.498   7.713   3.111
 9504TIP3    H128457   7.524   7.748   3.196
 9504TIP3    H228458   7.403   7.707   3.116
 9505TIP3   OH228459   1.248   0.138   2.908
 9505TIP3    H128460   1.198   0.175   2.981
 9505TIP3    H228461   1.270   0.213   2.853
 9506TIP3   OH228462   1.109   0.014   2.393
 9506TIP3    H128463   1.025  -0.015   2.429
 9506TIP3    H228464   1.087   0.057   2.311
 9507TIP3   OH228465   1.084   0.184   3.125
 9507TIP3    H128466   1.075   0.247   3.196
 9507TIP3    H228467   1.070   0.098   3.166
 9508TIP3   OH228468   6.763   7.637   1.816
 9508TIP3    H128469   6.765   7.635   1.911
 9508TIP3    H228470   6.688   7.693   1.794
 9509TIP3   OH228471   6.332   7.710   2.689
 9509TIP3    H128472   6.401   7.742   2.747
 9509TIP3    H228473   6.379   7.677   2.612
 9510TIP3   OH228474   6.295   7.693   2.208
 9510TIP3    H128475   6.344   7.722   2.130
 9510TIP3    H228476   6.237   7.767   2.227
 9511TIP3   OH228477   7.081   7.810   2.535
 9511TIP3    H128478   7.000   7.812   2.586
 9511TIP3    H228479   7.143   7.863   2.586
 9512TIP3   OH228480   6.550   7.914   2.488
 9512TIP3    H128481   6.458   7.926   2.462
 9512TIP3    H228482   6.571   7.824   2.464
 9513TIP3   OH228483   6.624   7.938   1.983
 9513TIP3    H128484   6.564   7.894   1.924
 9513TIP3    H228485   6.632   8.027   1.948
 9514TIP3   OH228486   6.731   7.674   2.448
 9514TIP3    H128487   6.697   7.599   2.497
 9514TIP3    H228488   6.802   7.637   2.396
 9515TIP3   OH228489   0.813   0.398   3.259
 9515TIP3    H128490   0.827   0.380   3.352
 9515TIP3    H228491   0.742   0.339   3.234
 9516TIP3   OH228492   0.608   0.095   1.970
 9516TIP3    H128493   0.649   0.180   1.984
 9516TIP3    H228494   0.529   0.096   2.024
 9517TIP3   OH228495   6.708   7.932   3.260
 9517TIP3    H128496   6.612   7.932   3.269
 9517TIP3    H228497   6.739   7.878   3.332
 9518TIP3   OH228498   6.742   7.651   2.090
 9518TIP3    H128499   6.723   7.741   2.118
 9518TIP3    H228500   6.833   7.637   2.116
 9519TIP3   OH228501   6.320   7.839   1.977
 9519TIP3    H128502   6.324   7.934   1.981
 9519TIP3    H228503   6.231   7.821   1.945
 9520TIP3   OH228504   6.713   7.562   2.858
 9520TIP3    H128505   6.688   7.528   2.772
 9520TIP3    H228506   6.708   7.487   2.916
 9521TIP3   OH228507   0.889   0.702   3.483
 9521TIP3    H128508   0.924   0.613   3.483
 9521TIP3    H228509   0.803   0.695   3.443
 9522TIP3   OH228510   1.016   0.451   3.489
 9522TIP3    H128511   1.088   0.390   3.474
 9522TIP3    H228512   1.028   0.481   3.579
 9523TIP3   OH228513   1.426   0.133   3.291
 9523TIP3    H128514   1.466   0.049   3.268
 9523TIP3    H228515   1.382   0.161   3.212
 9524TIP3   OH228516   7.098   7.966   3.061
 9524TIP3    H128517   7.074   7.999   2.974
 9524TIP3    H228518   7.022   7.915   3.090
 9525TIP3   OH228519   1.288   0.255   3.504
 9525TIP3    H128520   1.246   0.173   3.530
 9525TIP3    H228521   1.354   0.229   3.440
 9526TIP3   OH228522   7.231   7.698   3.135
 9526TIP3    H128523   7.166   7.765   3.158
 9526TIP3    H228524   7.184   7.615   3.145
 9527TIP3   OH228525   6.847   8.022   3.568
 9527TIP3    H128526   6.845   7.932   3.535
 9527TIP3    H228527   6.877   8.013   3.659
 9528TIP3   OH228528   7.321   7.859   3.551
 9528TIP3    H128529   7.390   7.812   3.504
 9528TIP3    H228530   7.350   7.950   3.552
 9529TIP3   OH228531   0.444   0.462   1.881
 9529TIP3    H128532   0.515   0.517   1.847
 9529TIP3    H228533   0.441   0.387   1.822
 9530TIP3   OH228534   0.687   0.391   2.858
 9530TIP3    H128535   0.682   0.351   2.772
 9530TIP3    H228536   0.780   0.386   2.881
 9531TIP3   OH228537   0.914   0.064   3.535
 9531TIP3    H128538   1.010   0.063   3.539
 9531TIP3    H228539   0.888  -0.020   3.573
 9532TIP3   OH228540   6.532   7.771   2.869
 9532TIP3    H128541   6.590   7.696   2.876
 9532TIP3    H228542   6.590   7.847   2.867
 9533TIP3   OH228543   0.669   0.034   2.934
 9533TIP3    H128544   0.719   0.029   2.853
 9533TIP3    H228545   0.704   0.111   2.979
 9534TIP3   OH228546   6.322   7.548   2.435
 9534TIP3    H128547   6.232   7.547   2.467
 9534TIP3    H228548   6.319   7.607   2.360
 9535TIP3   OH228549   6.540   7.639   3.257
 9535TIP3    H128550   6.490   7.627   3.338
 9535TIP3    H228551   6.474   7.668   3.193
 9536TIP3   OH228552   6.631   7.468   2.608
 9536TIP3    H128553   6.540   7.438   2.612
 9536TIP3    H228554   6.683   7.388   2.605
 9537TIP3   OH228555   6.417   7.344   2.262
 9537TIP3    H128556   6.447   7.393   2.186
 9537TIP3    H228557   6.395   7.410   2.327
 9538TIP3   OH228558   7.055   7.496   2.525
 9538TIP3    H128559   7.112   7.533   2.458
 9538TIP3    H228560   7.092   7.527   2.608
 9539TIP3   OH228561   6.529   7.491   2.017
 9539TIP3    H128562   6.576   7.429   1.960
 9539TIP3    H228563   6.598   7.548   2.051
 9540TIP3   OH228564   7.005   7.666   2.156
 9540TIP3    H128565   7.054   7.590   2.123
 9540TIP3    H228566   7.063   7.740   2.139
 9541TIP3   OH228567   6.833   7.750   3.494
 9541TIP3    H128568   6.791   7.681   3.546
 9541TIP3    H228569   6.924   7.751   3.524
 9542TIP3   OH228570   7.076   7.753   3.619
 9542TIP3    H128571   7.162   7.784   3.590
 9542TIP3    H228572   7.091   7.664   3.649
 9543TIP3   OH228573   5.107   4.948   0.578
 9543TIP3    H128574   5.098   4.882   0.646
 9543TIP3    H228575   5.136   5.026   0.624
 9544TIP3   OH228576   4.761   5.399   0.595
 9544TIP3    H128577   4.824   5.345   0.547
 9544TIP3    H228578   4.767   5.368   0.685
 9545TIP3   OH228579   4.790   4.894   0.388
 9545TIP3    H128580   4.725   4.843   0.341
 9545TIP3    H228581   4.761   4.984   0.380
 9546TIP3   OH228582   4.932   5.244   0.459
 9546TIP3    H128583   4.959   5.160   0.422
 9546TIP3    H228584   4.971   5.309   0.400
 9547TIP3   OH228585   5.036   5.027   0.326
 9547TIP3    H128586   4.985   4.956   0.287
 9547TIP3    H228587   5.067   4.991   0.410
 9548TIP3   OH228588   5.040   4.602   0.332
 9548TIP3    H128589   4.981   4.600   0.408
 9548TIP3    H228590   5.121   4.561   0.363
 9549TIP3   OH228591   4.671   5.161   0.364
 9549TIP3    H128592   4.706   5.211   0.438
 9549TIP3    H228593   4.576   5.179   0.366
 9550TIP3   OH228594   2.370   1.040   6.687
 9550TIP3    H128595   2.375   1.135   6.673
 9550TIP3    H228596   2.460   1.010   6.677
 9551TIP3   OH228597   4.498   5.369   0.219
 9551TIP3    H128598   4.460   5.365   0.131
 9551TIP3    H228599   4.474   5.455   0.252
 9552TIP3   OH228600   1.887   1.257   6.805
 9552TIP3    H128601   1.947   1.191   6.770
 9552TIP3    H228602   1.918   1.273   6.894
 9553TIP3   OH228603   4.756   5.317   0.136
 9553TIP3    H128604   4.669   5.324   0.175
 9553TIP3    H228605   4.806   5.266   0.200
 9554TIP3   OH228606   2.121   0.486   6.827
 9554TIP3    H128607   2.097   0.447   6.743
 9554TIP3    H228608   2.205   0.528   6.811
 9555TIP3   OH228609   4.653   4.851   0.057
 9555TIP3    H128610   4.600   4.928   0.076
 9555TIP3    H228611   4.645   4.796   0.135
 9556TIP3   OH228612   5.441   4.316   0.090
 9556TIP3    H128613   5.381   4.257   0.044
 9556TIP3    H228614   5.425   4.402   0.051
 9557TIP3   OH228615   5.141   5.120   0.013
 9557TIP3    H128616   5.112   5.052   0.073
 9557TIP3    H228617   5.152   5.074  -0.071
 9558TIP3   OH228618   2.059   0.848   6.855
 9558TIP3    H128619   2.119   0.815   6.923
 9558TIP3    H228620   1.973   0.846   6.896
 9559TIP3   OH228621   2.400   1.315   6.673
 9559TIP3    H128622   2.448   1.381   6.622
 9559TIP3    H228623   2.322   1.361   6.703
 9560TIP3   OH228624   5.058   4.784   0.123
 9560TIP3    H128625   5.038   4.720   0.191
 9560TIP3    H228626   5.154   4.780   0.114
 9561TIP3   OH228627   4.471   5.047   0.114
 9561TIP3    H128628   4.414   5.050   0.191
 9561TIP3    H228629   4.482   5.138   0.088
 9562TIP3   OH228630   5.188   5.481   0.706
 9562TIP3    H128631   5.140   5.524   0.635
 9562TIP3    H228632   5.279   5.479   0.677
 9563TIP3   OH228633   1.588   1.004   6.772
 9563TIP3    H128634   1.598   0.977   6.863
 9563TIP3    H228635   1.663   0.966   6.727
 9564TIP3   OH228636   2.031   1.064   6.673
 9564TIP3    H128637   2.069   1.001   6.734
 9564TIP3    H228638   2.089   1.062   6.597
 9565TIP3   OH228639   2.365   0.570   6.708
 9565TIP3    H128640   2.350   0.527   6.624
 9565TIP3    H228641   2.333   0.659   6.696
 9566TIP3   OH228642   1.366   1.318   6.937
 9566TIP3    H128643   1.458   1.320   6.908
 9566TIP3    H228644   1.320   1.373   6.874
 9567TIP3   OH228645   5.462   5.544   0.650
 9567TIP3    H128646   5.465   5.622   0.705
 9567TIP3    H228647   5.495   5.572   0.565
 9568TIP3   OH228648   5.338   4.765   0.103
 9568TIP3    H128649   5.401   4.830   0.073
 9568TIP3    H228650   5.379   4.726   0.180
 9569TIP3   OH228651   5.461   4.630   0.307
 9569TIP3    H128652   5.393   4.596   0.365
 9569TIP3    H228653   5.524   4.673   0.365
 9570TIP3   OH228654   5.496   5.032   0.740
 9570TIP3    H128655   5.558   4.962   0.720
 9570TIP3    H228656   5.510   5.097   0.672
 9571TIP3   OH228657   2.563   0.538   6.890
 9571TIP3    H128658   2.497   0.540   6.820
 9571TIP3    H228659   2.540   0.610   6.948
 9572TIP3   OH228660   2.436   0.193   6.844
 9572TIP3    H128661   2.400   0.273   6.806
 9572TIP3    H228662   2.376   0.124   6.814
 9573TIP3   OH228663   5.272   4.493   0.463
 9573TIP3    H128664   5.298   4.401   0.453
 9573TIP3    H228665   5.274   4.508   0.558
 9574TIP3   OH228666   5.024   5.427   0.283
 9574TIP3    H128667   5.072   5.414   0.202
 9574TIP3    H228668   5.077   5.490   0.333
 9575TIP3   OH228669   1.630   1.264   6.888
 9575TIP3    H128670   1.720   1.279   6.858
 9575TIP3    H228671   1.599   1.190   6.836
 9576TIP3   OH228672   5.172   5.387   0.054
 9576TIP3    H128673   5.167   5.292   0.046
 9576TIP3    H228674   5.130   5.420  -0.025
 9577TIP3   OH228675   3.829   0.899   6.946
 9577TIP3    H128676   3.804   0.989   6.926
 9577TIP3    H228677   3.756   0.847   6.912
 9578TIP3   OH228678   6.666   4.904   0.395
 9578TIP3    H128679   6.699   4.882   0.483
 9578TIP3    H228680   6.623   4.825   0.364
 9579TIP3   OH228681   5.962   4.821   0.729
 9579TIP3    H128682   5.949   4.789   0.819
 9579TIP3    H228683   6.056   4.810   0.714
 9580TIP3   OH228684   6.911   5.208   0.074
 9580TIP3    H128685   6.893   5.139   0.137
 9580TIP3    H228686   6.940   5.282   0.127
 9581TIP3   OH228687   5.938   5.213   0.483
 9581TIP3    H128688   5.923   5.119   0.477
 9581TIP3    H228689   6.032   5.224   0.470
 9582TIP3   OH228690   5.628   4.413   0.267
 9582TIP3    H128691   5.587   4.497   0.286
 9582TIP3    H228692   5.563   4.365   0.217
 9583TIP3   OH228693   5.689   4.712   0.433
 9583TIP3    H128694   5.726   4.634   0.473
 9583TIP3    H228695   5.758   4.745   0.375
 9584TIP3   OH228696   6.563   5.669   0.089
 9584TIP3    H128697   6.604   5.601   0.037
 9584TIP3    H228698   6.544   5.628   0.173
 9585TIP3   OH228699   6.467   5.130   0.437
 9585TIP3    H128700   6.499   5.051   0.393
 9585TIP3    H228701   6.546   5.178   0.463
 9586TIP3   OH228702   6.881   4.630   0.484
 9586TIP3    H128703   6.897   4.540   0.513
 9586TIP3    H228704   6.846   4.621   0.396
 9587TIP3   OH228705   6.197   4.257   0.407
 9587TIP3    H128706   6.178   4.341   0.364
 9587TIP3    H228707   6.116   4.207   0.397
 9588TIP3   OH228708   6.873   4.403   0.107
 9588TIP3    H128709   6.928   4.359   0.172
 9588TIP3    H228710   6.926   4.407   0.028
 9589TIP3   OH228711   5.816   4.496   0.528
 9589TIP3    H128712   5.892   4.494   0.586
 9589TIP3    H228713   5.835   4.431   0.461
 9590TIP3   OH228714   6.282   4.692   0.341
 9590TIP3    H128715   6.374   4.671   0.355
 9590TIP3    H228716   6.242   4.609   0.315
 9591TIP3   OH228717   7.514   4.647   0.633
 9591TIP3    H128718   7.439   4.697   0.602
 9591TIP3    H228719   7.571   4.711   0.675
 9592TIP3   OH228720   3.722   1.121   6.812
 9592TIP3    H128721   3.680   1.102   6.729
 9592TIP3    H228722   3.679   1.201   6.843
 9593TIP3   OH228723   6.327   5.065   0.664
 9593TIP3    H128724   6.261   5.128   0.691
 9593TIP3    H228725   6.367   5.104   0.586
 9594TIP3   OH228726   6.067   4.437   0.604
 9594TIP3    H128727   6.132   4.492   0.648
 9594TIP3    H228728   6.115   4.360   0.575
 9595TIP3   OH228729   6.137   5.239   0.765
 9595TIP3    H128730   6.105   5.311   0.711
 9595TIP3    H228731   6.072   5.233   0.836
 9596TIP3   OH228732   2.704   0.931   6.937
 9596TIP3    H128733   2.662   0.952   6.853
 9596TIP3    H228734   2.734   1.015   6.971
 9597TIP3   OH228735   6.977   5.454   0.236
 9597TIP3    H128736   6.891   5.442   0.276
 9597TIP3    H228737   6.970   5.538   0.190
 9598TIP3   OH228738   3.848   1.487   6.849
 9598TIP3    H128739   3.893   1.405   6.833
 9598TIP3    H228740   3.905   1.554   6.811
 9599TIP3   OH228741   3.989   1.272   6.762
 9599TIP3    H128742   3.942   1.195   6.728
 9599TIP3    H228743   4.028   1.241   6.844
 9600TIP3   OH228744   7.201   5.363   0.578
 9600TIP3    H128745   7.192   5.284   0.524
 9600TIP3    H228746   7.186   5.436   0.518
 9601TIP3   OH228747   3.662   0.755   6.776
 9601TIP3    H128748   3.582   0.804   6.761
 9601TIP3    H228749   3.704   0.751   6.691
 9602TIP3   OH228750   3.619   0.530   6.497
 9602TIP3    H128751   3.685   0.585   6.540
 9602TIP3    H228752   3.671   0.467   6.446
 9603TIP3   OH228753   7.398   5.008   0.426
 9603TIP3    H128754   7.315   5.054   0.432
 9603TIP3    H228755   7.429   5.026   0.337
 9604TIP3   OH228756   4.009   0.833   6.750
 9604TIP3    H128757   3.953   0.856   6.825
 9604TIP3    H228758   4.094   0.813   6.789
 9605TIP3   OH228759   7.073   4.881   0.728
 9605TIP3    H128760   7.069   4.959   0.783
 9605TIP3    H228761   6.989   4.880   0.682
 9606TIP3   OH228762   6.077   4.832   0.222
 9606TIP3    H128763   6.038   4.775   0.155
 9606TIP3    H228764   6.151   4.782   0.256
 9607TIP3   OH228765   6.205   5.246   0.374
 9607TIP3    H128766   6.180   5.214   0.287
 9607TIP3    H228767   6.292   5.210   0.388
 9608TIP3   OH228768   6.215   4.823   0.581
 9608TIP3    H128769   6.237   4.794   0.492
 9608TIP3    H228770   6.255   4.910   0.588
 9609TIP3   OH228771   6.740   5.446   0.359
 9609TIP3    H128772   6.721   5.524   0.412
 9609TIP3    H228773   6.722   5.373   0.418
 9610TIP3   OH228774   6.349   5.391   0.855
 9610TIP3    H128775   6.294   5.459   0.893
 9610TIP3    H228776   6.287   5.323   0.828
 9611TIP3   OH228777   3.850   0.690   6.574
 9611TIP3    H128778   3.904   0.750   6.625
 9611TIP3    H228779   3.875   0.707   6.483
 9612TIP3   OH228780   3.598   1.365   6.853
 9612TIP3    H128781   3.676   1.420   6.861
 9612TIP3    H228782   3.534   1.422   6.809
 9613TIP3   OH228783   6.141   5.572   0.904
 9613TIP3    H128784   6.137   5.583   0.809
 9613TIP3    H228785   6.076   5.504   0.923
 9614TIP3   OH228786   5.944   4.674   0.018
 9614TIP3    H128787   5.878   4.725  -0.030
 9614TIP3    H228788   5.895   4.599   0.053
 9615TIP3   OH228789   4.171   1.304   6.175
 9615TIP3    H128790   4.181   1.399   6.165
 9615TIP3    H228791   4.260   1.270   6.164
 9616TIP3   OH228792   5.577   5.260   0.570
 9616TIP3    H128793   5.671   5.252   0.555
 9616TIP3    H228794   5.566   5.345   0.613
 9617TIP3   OH228795   7.436   5.706   0.632
 9617TIP3    H128796   7.440   5.611   0.642
 9617TIP3    H228797   7.354   5.731   0.674
 9618TIP3   OH228798   6.568   5.497   0.750
 9618TIP3    H128799   6.556   5.590   0.771
 9618TIP3    H228800   6.491   5.454   0.787
 9619TIP3   OH228801   3.480   1.617   6.653
 9619TIP3    H128802   3.428   1.597   6.575
 9619TIP3    H228803   3.444   1.700   6.685
 9620TIP3   OH228804   5.747   5.469   0.100
 9620TIP3    H128805   5.792   5.458   0.184
 9620TIP3    H228806   5.693   5.391   0.091
 9621TIP3   OH228807   3.681   1.518   6.292
 9621TIP3    H128808   3.736   1.449   6.256
 9621TIP3    H228809   3.711   1.528   6.382
 9622TIP3   OH228810   3.728   1.565   6.562
 9622TIP3    H128811   3.640   1.576   6.598
 9622TIP3    H228812   3.777   1.523   6.633
 9623TIP3   OH228813   7.326   4.822   0.878
 9623TIP3    H128814   7.246   4.860   0.843
 9623TIP3    H228815   7.305   4.729   0.890
 9624TIP3   OH228816   7.122   4.626   0.850
 9624TIP3    H128817   7.071   4.638   0.930
 9624TIP3    H228818   7.091   4.695   0.791
 9625TIP3   OH228819   3.932   0.727   6.319
 9625TIP3    H128820   3.889   0.708   6.235
 9625TIP3    H228821   4.009   0.778   6.296
 9626TIP3   OH228822   6.259   4.592   0.714
 9626TIP3    H128823   6.270   4.622   0.804
 9626TIP3    H228824   6.250   4.673   0.663
 9627TIP3   OH228825   6.139   4.471   0.250
 9627TIP3    H128826   6.046   4.451   0.264
 9627TIP3    H228827   6.156   4.441   0.161
 9628TIP3   OH228828   3.794   0.555   6.912
 9628TIP3    H128829   3.747   0.626   6.868
 9628TIP3    H228830   3.860   0.527   6.848
 9629TIP3   OH228831   6.772   4.624   0.229
 9629TIP3    H128832   6.714   4.671   0.168
 9629TIP3    H228833   6.796   4.544   0.181
 9630TIP3   OH228834   5.688   4.208   0.044
 9630TIP3    H128835   5.669   4.174  -0.044
 9630TIP3    H228836   5.610   4.258   0.068
 9631TIP3   OH228837   6.797   4.831   0.638
 9631TIP3    H128838   6.833   4.764   0.580
 9631TIP3    H228839   6.777   4.785   0.719
 9632TIP3   OH228840   5.888   4.348   0.294
 9632TIP3    H128841   5.801   4.385   0.284
 9632TIP3    H228842   5.882   4.261   0.255
 9633TIP3   OH228843   3.354   0.357   6.946
 9633TIP3    H128844   3.445   0.345   6.918
 9633TIP3    H228845   3.303   0.348   6.865
 9634TIP3   OH228846   3.188   0.343   6.717
 9634TIP3    H128847   3.104   0.388   6.709
 9634TIP3    H228848   3.244   0.381   6.650
 9635TIP3   OH228849   7.137   6.061   0.722
 9635TIP3    H128850   7.133   6.084   0.629
 9635TIP3    H228851   7.214   6.107   0.755
 9636TIP3   OH228852   6.540   4.629   0.401
 9636TIP3    H128853   6.622   4.596   0.365
 9636TIP3    H228854   6.542   4.602   0.493
 9637TIP3   OH228855   6.555   4.559   0.661
 9637TIP3    H128856   6.474   4.513   0.685
 9637TIP3    H228857   6.598   4.575   0.745
 9638TIP3   OH228858   3.432   0.901   6.731
 9638TIP3    H128859   3.361   0.839   6.714
 9638TIP3    H228860   3.414   0.936   6.818
 9639TIP3   OH228861   7.162   5.147   0.413
 9639TIP3    H128862   7.187   5.196   0.335
 9639TIP3    H228863   7.081   5.103   0.388
 9640TIP3   OH228864   3.863   0.281   6.553
 9640TIP3    H128865   3.807   0.233   6.613
 9640TIP3    H228866   3.904   0.349   6.607
 9641TIP3   OH228867   6.680   5.233   0.780
 9641TIP3    H128868   6.658   5.177   0.855
 9641TIP3    H228869   6.628   5.312   0.793
 9642TIP3   OH228870   3.968   0.478   6.708
 9642TIP3    H128871   4.063   0.489   6.719
 9642TIP3    H228872   3.941   0.555   6.658
 9643TIP3   OH228873   5.958   4.945   0.450
 9643TIP3    H128874   5.999   4.903   0.375
 9643TIP3    H228875   5.974   4.885   0.523
 9644TIP3   OH228876   3.575   1.054   6.554
 9644TIP3    H128877   3.529   1.138   6.554
 9644TIP3    H228878   3.522   0.998   6.612
 9645TIP3   OH228879   6.834   5.495   0.688
 9645TIP3    H128880   6.742   5.471   0.689
 9645TIP3    H228881   6.840   5.570   0.747
 9646TIP3   OH228882   4.398   0.554   6.515
 9646TIP3    H128883   4.340   0.501   6.459
 9646TIP3    H228884   4.387   0.643   6.483
 9647TIP3   OH228885   7.451   5.421   0.664
 9647TIP3    H128886   7.356   5.413   0.661
 9647TIP3    H228887   7.481   5.391   0.578
 9648TIP3   OH228888   4.109   1.373   6.444
 9648TIP3    H128889   4.075   1.306   6.503
 9648TIP3    H228890   4.118   1.328   6.359
 9649TIP3   OH228891   6.928   5.009   0.331
 9649TIP3    H128892   6.837   4.983   0.345
 9649TIP3    H228893   6.967   4.933   0.288
 9650TIP3   OH228894   6.059   5.239   0.091
 9650TIP3    H128895   6.056   5.318   0.036
 9650TIP3    H228896   5.967   5.215   0.103
 9651TIP3   OH228897   2.799   0.536   6.739
 9651TIP3    H128898   2.836   0.621   6.760
 9651TIP3    H228899   2.722   0.527   6.795
 9652TIP3   OH228900   6.191   5.003   0.032
 9652TIP3    H128901   6.159   5.091   0.050
 9652TIP3    H228902   6.157   4.949   0.104
 9653TIP3   OH228903   6.334   5.583   0.544
 9653TIP3    H128904   6.371   5.657   0.495
 9653TIP3    H228905   6.408   5.548   0.594
 9654TIP3   OH228906   3.146   1.466   6.885
 9654TIP3    H128907   3.060   1.475   6.926
 9654TIP3    H228908   3.181   1.556   6.884
 9655TIP3   OH228909   6.718   5.213   0.515
 9655TIP3    H128910   6.712   5.214   0.610
 9655TIP3    H228911   6.790   5.153   0.496
 9656TIP3   OH228912   3.860   1.101   6.342
 9656TIP3    H128913   3.912   1.076   6.418
 9656TIP3    H228914   3.771   1.073   6.364
 9657TIP3   OH228915   6.958   5.748   0.564
 9657TIP3    H128916   6.881   5.693   0.552
 9657TIP3    H228917   6.954   5.813   0.494
 9658TIP3   OH228918   4.195   1.581   6.154
 9658TIP3    H128919   4.197   1.625   6.069
 9658TIP3    H228920   4.130   1.631   6.204
 9659TIP3   OH228921   4.022   1.028   6.553
 9659TIP3    H128922   4.008   0.966   6.625
 9659TIP3    H228923   4.117   1.029   6.541
 9660TIP3   OH228924   5.780   5.456   0.706
 9660TIP3    H128925   5.812   5.366   0.715
 9660TIP3    H228926   5.729   5.471   0.786
 9661TIP3   OH228927   3.225   1.077   6.338
 9661TIP3    H128928   3.236   0.986   6.311
 9661TIP3    H228929   3.208   1.072   6.432
 9662TIP3   OH228930   3.177   1.084   6.606
 9662TIP3    H128931   3.237   1.058   6.676
 9662TIP3    H228932   3.171   1.180   6.614
 9663TIP3   OH228933   2.902   0.784   6.819
 9663TIP3    H128934   2.835   0.822   6.876
 9663TIP3    H228935   2.912   0.847   6.748
 9664TIP3   OH228936   3.437   1.288   6.559
 9664TIP3    H128937   3.350   1.300   6.597
 9664TIP3    H228938   3.450   1.364   6.502
 9665TIP3   OH228939   6.470   4.342  -0.005
 9665TIP3    H128940   6.521   4.423  -0.009
 9665TIP3    H228941   6.477   4.314   0.086
 9666TIP3   OH228942   6.751   4.691   0.869
 9666TIP3    H128943   6.760   4.750   0.944
 9666TIP3    H228944   6.768   4.604   0.905
 9667TIP3   OH228945   3.182   1.355   6.633
 9667TIP3    H128946   3.154   1.420   6.569
 9667TIP3    H228947   3.163   1.395   6.718
 9668TIP3   OH228948   7.018   4.768   0.214
 9668TIP3    H128949   6.939   4.719   0.233
 9668TIP3    H228950   7.088   4.721   0.260
 9669TIP3   OH228951   2.894   0.982   6.621
 9669TIP3    H128952   2.937   1.067   6.622
 9669TIP3    H228953   2.944   0.931   6.557
 9670TIP3   OH228954   6.987   5.726   0.157
 9670TIP3    H128955   6.941   5.768   0.085
 9670TIP3    H228956   7.080   5.741   0.139
 9671TIP3   OH228957   5.597   5.209   0.063
 9671TIP3    H128958   5.535   5.233   0.132
 9671TIP3    H228959   5.564   5.251  -0.016
 9672TIP3   OH228960   3.387   1.278   6.249
 9672TIP3    H128961   3.329   1.213   6.287
 9672TIP3    H228962   3.464   1.228   6.220
 9673TIP3   OH228963   6.889   5.607   0.950
 9673TIP3    H128964   6.931   5.530   0.912
 9673TIP3    H228965   6.960   5.669   0.966
 9674TIP3   OH228966   3.822   1.318   6.164
 9674TIP3    H128967   3.860   1.254   6.224
 9674TIP3    H228968   3.878   1.315   6.087
 9675TIP3   OH228969   3.039   0.800   6.474
 9675TIP3    H128970   3.092   0.776   6.550
 9675TIP3    H228971   3.102   0.803   6.402
 9676TIP3   OH228972   3.552   1.000   6.285
 9676TIP3    H128973   3.549   1.015   6.379
 9676TIP3    H228974   3.551   0.905   6.275
 9677TIP3   OH228975   6.994   5.256   0.730
 9677TIP3    H128976   7.067   5.294   0.680
 9677TIP3    H228977   6.919   5.311   0.709
 9678TIP3   OH228978   3.237   0.708   6.695
 9678TIP3    H128979   3.211   0.675   6.781
 9678TIP3    H228980   3.275   0.631   6.651
 9679TIP3   OH228981   3.340   0.493   6.538
 9679TIP3    H128982   3.313   0.507   6.447
 9679TIP3    H228983   3.435   0.500   6.535
 9680TIP3   OH228984   4.159   0.828   6.197
 9680TIP3    H128985   4.140   0.783   6.114
 9680TIP3    H228986   4.130   0.918   6.183
 9681TIP3   OH228987   6.494   4.904   0.815
 9681TIP3    H128988   6.574   4.875   0.770
 9681TIP3    H228989   6.450   4.960   0.751
 9682TIP3   OH228990   7.128   5.111   0.913
 9682TIP3    H128991   7.065   5.158   0.858
 9682TIP3    H228992   7.212   5.125   0.870
 9683TIP3   OH228993   3.153   1.557   6.449
 9683TIP3    H128994   3.242   1.558   6.415
 9683TIP3    H228995   3.101   1.602   6.382
 9684TIP3   OH228996   2.628   0.938   6.662
 9684TIP3    H128997   2.718   0.964   6.645
 9684TIP3    H228998   2.617   0.856   6.616
 9685TIP3   OH228999   5.376   5.559   0.134
 9685TIP3    H129000   5.312   5.503   0.090
 9685TIP3    H229001   5.421   5.501   0.195
 9686TIP3   OH229002   5.513   5.406   0.319
 9686TIP3    H129003   5.496   5.335   0.381
 9686TIP3    H229004   5.570   5.466   0.367
 9687TIP3   OH229005   7.243   5.812   0.120
 9687TIP3    H129006   7.265   5.840   0.209
 9687TIP3    H229007   7.303   5.861   0.064
 9688TIP3   OH229008   7.267   5.828   0.403
 9688TIP3    H129009   7.221   5.744   0.396
 9688TIP3    H229010   7.345   5.809   0.454
 9689TIP3   OH229011   7.316   5.515   0.954
 9689TIP3    H129012   7.250   5.510   1.024
 9689TIP3    H229013   7.360   5.598   0.969
 9690TIP3   OH229014   4.300   1.012   6.532
 9690TIP3    H129015   4.363   1.076   6.499
 9690TIP3    H229016   4.341   0.976   6.611
 9691TIP3   OH229017   4.424   0.886   6.738
 9691TIP3    H129018   4.358   0.848   6.796
 9691TIP3    H229019   4.489   0.924   6.797
 9692TIP3   OH229020   7.316   5.284   0.226
 9692TIP3    H129021   7.368   5.215   0.185
 9692TIP3    H229022   7.308   5.351   0.159
 9693TIP3   OH229023   7.140   5.583   0.420
 9693TIP3    H129024   7.067   5.620   0.471
 9693TIP3    H229025   7.097   5.535   0.349
 9694TIP3   OH229026   4.354   0.790   6.382
 9694TIP3    H129027   4.288   0.796   6.312
 9694TIP3    H229028   4.335   0.863   6.440
 9695TIP3   OH229029   4.225   0.448   6.322
 9695TIP3    H129030   4.208   0.530   6.276
 9695TIP3    H229031   4.176   0.382   6.273
 9696TIP3   OH229032   4.236   0.753   6.881
 9696TIP3    H129033   4.240   0.660   6.857
 9696TIP3    H229034   4.224   0.753   6.976
 9697TIP3   OH229035   5.697   4.863   0.667
 9697TIP3    H129036   5.685   4.818   0.583
 9697TIP3    H229037   5.787   4.843   0.692
 9698TIP3   OH229038   7.364   5.170   0.789
 9698TIP3    H129039   7.430   5.102   0.784
 9698TIP3    H229040   7.394   5.237   0.727
 9699TIP3   OH229041   7.542   4.972   0.807
 9699TIP3    H129042   7.469   4.923   0.844
 9699TIP3    H229043   7.619   4.917   0.825
 9700TIP3   OH229044   4.240   0.500   6.750
 9700TIP3    H129045   4.266   0.424   6.802
 9700TIP3    H229046   4.301   0.502   6.677
 9701TIP3   OH229047   7.228   4.640   0.337
 9701TIP3    H129048   7.310   4.660   0.293
 9701TIP3    H229049   7.239   4.674   0.426
 9702TIP3   OH229050   7.291   4.789   0.559
 9702TIP3    H129051   7.219   4.821   0.613
 9702TIP3    H229052   7.327   4.868   0.518
 9703TIP3   OH229053   3.994   1.671   6.715
 9703TIP3    H129054   4.042   1.661   6.633
 9703TIP3    H229055   4.039   1.741   6.762
 9704TIP3   OH229056   6.100   5.490   0.649
 9704TIP3    H129057   6.040   5.558   0.618
 9704TIP3    H229058   6.185   5.513   0.611
 9705TIP3   OH229059   6.533   5.758   0.815
 9705TIP3    H129060   6.559   5.763   0.906
 9705TIP3    H229061   6.597   5.812   0.768
 9706TIP3   OH229062   6.726   5.910   0.701
 9706TIP3    H129063   6.794   5.870   0.646
 9706TIP3    H229064   6.774   5.969   0.759
 9707TIP3   OH229065   5.777   5.791   0.717
 9707TIP3    H129066   5.692   5.826   0.690
 9707TIP3    H229067   5.768   5.774   0.810
 9708TIP3   OH229068   6.016   5.749   0.584
 9708TIP3    H129069   5.934   5.762   0.631
 9708TIP3    H229070   5.999   5.782   0.496
 9709TIP3   OH229071   6.441   5.781   0.385
 9709TIP3    H129072   6.371   5.793   0.322
 9709TIP3    H229073   6.452   5.867   0.426
 9710TIP3   OH229074   6.708   5.718   0.442
 9710TIP3    H129075   6.615   5.732   0.422
 9710TIP3    H229076   6.753   5.788   0.393
 9711TIP3   OH229077   6.918   5.909   0.350
 9711TIP3    H129078   6.902   5.993   0.306
 9711TIP3    H229079   6.942   5.849   0.280
 9712TIP3   OH229080   5.692   5.563   0.469
 9712TIP3    H129081   5.722   5.548   0.559
 9712TIP3    H229082   5.760   5.524   0.414
 9713TIP3   OH229083   5.887   5.436   0.335
 9713TIP3    H129084   5.899   5.355   0.385
 9713TIP3    H229085   5.974   5.473   0.326
 9714TIP3   OH229086   6.152   5.528   0.335
 9714TIP3    H129087   6.178   5.437   0.321
 9714TIP3    H229088   6.203   5.556   0.412
 9715TIP3   OH229089   2.639   1.340   6.811
 9715TIP3    H129090   2.558   1.300   6.779
 9715TIP3    H229091   2.641   1.426   6.769
 9716TIP3   OH229092   3.422   1.515   6.383
 9716TIP3    H129093   3.508   1.539   6.349
 9716TIP3    H229094   3.394   1.441   6.328
 9717TIP3   OH229095   4.139   1.638   6.482
 9717TIP3    H129096   4.134   1.543   6.474
 9717TIP3    H229097   4.090   1.671   6.407
 9718TIP3   OH229098   2.706   1.318   6.450
 9718TIP3    H129099   2.698   1.407   6.485
 9718TIP3    H229100   2.799   1.309   6.428
 9719TIP3   OH229101   7.183   5.791   0.728
 9719TIP3    H129102   7.113   5.761   0.670
 9719TIP3    H229103   7.174   5.886   0.730
 9720TIP3   OH229104   5.627   1.152   6.423
 9720TIP3    H129105   5.610   1.244   6.406
 9720TIP3    H229106   5.540   1.111   6.426
 9721TIP3   OH229107   5.627   1.151   6.820
 9721TIP3    H129108   5.661   1.137   6.909
 9721TIP3    H229109   5.583   1.069   6.798
 9722TIP3   OH229110   7.757   5.054   0.240
 9722TIP3    H129111   7.784   4.983   0.299
 9722TIP3    H229112   7.836   5.109   0.232
 9723TIP3   OH229113   5.870   1.458   6.504
 9723TIP3    H129114   5.861   1.391   6.571
 9723TIP3    H229115   5.903   1.535   6.551
 9724TIP3   OH229116   4.898   1.460   6.896
 9724TIP3    H129117   4.887   1.365   6.900
 9724TIP3    H229118   4.993   1.474   6.896
 9725TIP3   OH229119   4.592   0.674   6.701
 9725TIP3    H129120   4.539   0.753   6.715
 9725TIP3    H229121   4.536   0.617   6.648
 9726TIP3   OH229122   4.658   0.959   6.863
 9726TIP3    H129123   4.696   0.877   6.895
 9726TIP3    H229124   4.722   0.993   6.801
 9727TIP3   OH229125   5.523   1.916   6.515
 9727TIP3    H129126   5.564   1.847   6.463
 9727TIP3    H229127   5.517   1.879   6.603
 9728TIP3   OH229128   5.428   1.381   6.865
 9728TIP3    H129129   5.464   1.303   6.822
 9728TIP3    H229130   5.506   1.431   6.892
 9729TIP3   OH229131   5.846   0.881   6.911
 9729TIP3    H129132   5.863   0.792   6.941
 9729TIP3    H229133   5.807   0.870   6.824
 9730TIP3   OH229134   5.164   0.498   6.823
 9730TIP3    H129135   5.141   0.588   6.799
 9730TIP3    H229136   5.082   0.450   6.816
 9731TIP3   OH229137   5.836   0.655   6.536
 9731TIP3    H129138   5.884   0.610   6.606
 9731TIP3    H229139   5.894   0.650   6.460
 9732TIP3   OH229140   7.623   4.747   0.017
 9732TIP3    H129141   7.712   4.754   0.053
 9732TIP3    H229142   7.632   4.686  -0.056
 9733TIP3   OH229143   5.247   0.941   6.764
 9733TIP3    H129144   5.338   0.918   6.781
 9733TIP3    H229145   5.206   0.858   6.740
 9734TIP3   OH229146   0.805   4.898   0.128
 9734TIP3    H129147   0.735   4.952   0.092
 9734TIP3    H229148   0.870   4.961   0.160
 9735TIP3   OH229149   5.515   1.378   6.296
 9735TIP3    H129150   5.474   1.366   6.210
 9735TIP3    H229151   5.473   1.456   6.332
 9736TIP3   OH229152   8.113   5.309   0.146
 9736TIP3    H129153   8.054   5.374   0.185
 9736TIP3    H229154   8.155   5.355   0.074
 9737TIP3   OH229155   7.880   4.715   0.084
 9737TIP3    H129156   7.945   4.764   0.136
 9737TIP3    H229157   7.903   4.623   0.099
 9738TIP3   OH229158   7.939   5.506   0.248
 9738TIP3    H129159   7.918   5.592   0.212
 9738TIP3    H229160   7.864   5.483   0.303
 9739TIP3   OH229161   4.497   1.175   6.421
 9739TIP3    H129162   4.457   1.201   6.337
 9739TIP3    H229163   4.520   1.258   6.463
 9740TIP3   OH229164   5.936   1.702   6.660
 9740TIP3    H129165   5.850   1.692   6.701
 9740TIP3    H229166   5.932   1.788   6.617
 9741TIP3   OH229167   5.642   1.743   6.331
 9741TIP3    H129168   5.689   1.661   6.315
 9741TIP3    H229169   5.699   1.811   6.296
 9742TIP3   OH229170   5.786   1.524   6.249
 9742TIP3    H129171   5.735   1.448   6.221
 9742TIP3    H229172   5.825   1.496   6.332
 9743TIP3   OH229173   0.498   5.618   0.066
 9743TIP3    H129174   0.488   5.541   0.010
 9743TIP3    H229175   0.481   5.693   0.009
 9744TIP3   OH229176   5.458   0.995   6.223
 9744TIP3    H129177   5.372   1.037   6.235
 9744TIP3    H229178   5.510   1.060   6.176
 9745TIP3   OH229179   5.426   0.778   5.978
 9745TIP3    H129180   5.443   0.823   6.061
 9745TIP3    H229181   5.485   0.702   5.980
 9746TIP3   OH229182   6.359   1.252   6.850
 9746TIP3    H129183   6.277   1.302   6.855
 9746TIP3    H229184   6.395   1.274   6.764
 9747TIP3   OH229185   5.802   1.065   6.231
 9747TIP3    H129186   5.745   1.094   6.301
 9747TIP3    H229187   5.888   1.055   6.273
 9748TIP3   OH229188   0.371   5.136   0.217
 9748TIP3    H129189   0.371   5.215   0.271
 9748TIP3    H229190   0.287   5.139   0.171
 9749TIP3   OH229191   5.039   1.083   6.653
 9749TIP3    H129192   4.999   1.026   6.587
 9749TIP3    H229193   5.113   1.033   6.686
 9750TIP3   OH229194   5.171   1.498   6.801
 9750TIP3    H129195   5.150   1.461   6.715
 9750TIP3    H229196   5.257   1.463   6.822
 9751TIP3   OH229197   8.010   5.062   0.074
 9751TIP3    H129198   8.039   5.035  -0.014
 9751TIP3    H229199   8.053   5.147   0.088
 9752TIP3   OH229200   5.699   1.695   6.786
 9752TIP3    H129201   5.687   1.775   6.837
 9752TIP3    H229202   5.683   1.625   6.849
 9753TIP3   OH229203   8.144   5.621   0.392
 9753TIP3    H129204   8.087   5.682   0.439
 9753TIP3    H229205   8.085   5.566   0.341
 9754TIP3   OH229206   7.891   5.188   0.490
 9754TIP3    H129207   7.900   5.270   0.539
 9754TIP3    H229208   7.801   5.160   0.507
 9755TIP3   OH229209   5.392   1.625   6.338
 9755TIP3    H129210   5.474   1.674   6.347
 9755TIP3    H229211   5.333   1.687   6.294
 9756TIP3   OH229212   7.937   5.787   0.479
 9756TIP3    H129213   7.906   5.789   0.389
 9756TIP3    H229214   7.860   5.767   0.531
 9757TIP3   OH229215   4.905   0.927   6.452
 9757TIP3    H129216   4.838   0.973   6.402
 9757TIP3    H229217   4.867   0.842   6.472
 9758TIP3   OH229218   5.963   1.553   5.658
 9758TIP3    H129219   5.967   1.647   5.646
 9758TIP3    H229220   6.054   1.524   5.648
 9759TIP3   OH229221   7.519   5.318   0.425
 9759TIP3    H129222   7.453   5.298   0.359
 9759TIP3    H229223   7.558   5.234   0.447
 9760TIP3   OH229224   7.375   5.518   0.053
 9760TIP3    H129225   7.469   5.504   0.048
 9760TIP3    H229226   7.364   5.592   0.113
 9761TIP3   OH229227   0.735   5.965   0.119
 9761TIP3    H129228   0.738   5.870   0.131
 9761TIP3    H229229   0.654   5.992   0.162
 9762TIP3   OH229230   8.341   5.751   0.251
 9762TIP3    H129231   8.339   5.842   0.281
 9762TIP3    H229232   8.272   5.708   0.302
 9763TIP3   OH229233   5.271   1.867   6.147
 9763TIP3    H129234   5.230   1.847   6.063
 9763TIP3    H229235   5.241   1.955   6.168
 9764TIP3   OH229236   4.687   1.702   6.542
 9764TIP3    H129237   4.762   1.701   6.602
 9764TIP3    H229238   4.618   1.655   6.588
 9765TIP3   OH229239   5.476   1.774   5.778
 9765TIP3    H129240   5.532   1.705   5.743
 9765TIP3    H229241   5.506   1.787   5.868
 9766TIP3   OH229242   5.521   1.822   6.050
 9766TIP3    H129243   5.433   1.830   6.088
 9766TIP3    H229244   5.575   1.790   6.123
 9767TIP3   OH229245   0.622   5.076   0.375
 9767TIP3    H129246   0.542   5.109   0.335
 9767TIP3    H229247   0.612   4.981   0.374
 9768TIP3   OH229248   7.722   5.503   0.413
 9768TIP3    H129249   7.773   5.487   0.492
 9768TIP3    H229250   7.650   5.440   0.418
 9769TIP3   OH229251   0.397   4.877   0.335
 9769TIP3    H129252   0.366   4.910   0.420
 9769TIP3    H229253   0.381   4.949   0.275
 9770TIP3   OH229254   8.071   4.849   0.235
 9770TIP3    H129255   8.012   4.865   0.309
 9770TIP3    H229256   8.059   4.925   0.178
 9771TIP3   OH229257   5.102   0.723   6.677
 9771TIP3    H129258   5.010   0.701   6.692
 9771TIP3    H229259   5.120   0.692   6.589
 9772TIP3   OH229260   5.584   0.819   6.398
 9772TIP3    H129261   5.538   0.884   6.345
 9772TIP3    H229262   5.654   0.787   6.341
 9773TIP3   OH229263   0.115   5.118   0.533
 9773TIP3    H129264   0.088   5.041   0.582
 9773TIP3    H229265   0.207   5.130   0.555
 9774TIP3   OH229266   5.732   0.874   6.658
 9774TIP3    H129267   5.677   0.922   6.596
 9774TIP3    H229268   5.758   0.795   6.611
 9775TIP3   OH229269   7.872   4.875   0.427
 9775TIP3    H129270   7.893   4.938   0.496
 9775TIP3    H229271   7.854   4.793   0.473
 9776TIP3   OH229272   4.672   0.479   6.501
 9776TIP3    H129273   4.692   0.478   6.407
 9776TIP3    H229274   4.579   0.500   6.506
 9777TIP3   OH229275   0.087   5.089   0.119
 9777TIP3    H129276   0.127   5.024   0.062
 9777TIP3    H229277   0.064   5.041   0.199
 9778TIP3   OH229278   4.850   0.596   6.719
 9778TIP3    H129279   4.762   0.634   6.708
 9778TIP3    H229280   4.847   0.515   6.669
 9779TIP3   OH229281   5.147   0.619   6.429
 9779TIP3    H129282   5.235   0.601   6.396
 9779TIP3    H229283   5.091   0.608   6.352
 9780TIP3   OH229284   4.984   0.598   6.201
 9780TIP3    H129285   4.906   0.583   6.147
 9780TIP3    H229286   5.044   0.646   6.144
 9781TIP3   OH229287   0.433   6.315   0.214
 9781TIP3    H129288   0.427   6.339   0.121
 9781TIP3    H229289   0.509   6.363   0.246
 9782TIP3   OH229290   7.886   5.430   0.636
 9782TIP3    H129291   7.967   5.454   0.681
 9782TIP3    H229292   7.821   5.421   0.707
 9783TIP3   OH229293   5.502   0.874   6.832
 9783TIP3    H129294   5.586   0.846   6.795
 9783TIP3    H229295   5.505   0.842   6.923
 9784TIP3   OH229296   8.346   4.812   0.152
 9784TIP3    H129297   8.258   4.804   0.189
 9784TIP3    H229298   8.397   4.854   0.222
 9785TIP3   OH229299   5.230   1.152   6.221
 9785TIP3    H129300   5.157   1.091   6.204
 9785TIP3    H229301   5.211   1.189   6.307
 9786TIP3   OH229302   6.126   1.396   6.839
 9786TIP3    H129303   6.153   1.446   6.762
 9786TIP3    H229304   6.043   1.355   6.814
 9787TIP3   OH229305   5.609   0.590   6.026
 9787TIP3    H129306   5.578   0.511   6.069
 9787TIP3    H229307   5.668   0.631   6.090
 9788TIP3   OH229308   8.456   5.484   0.272
 9788TIP3    H129309   8.491   5.465   0.359
 9788TIP3    H229310   8.422   5.573   0.279
 9789TIP3   OH229311   5.763   0.766   6.193
 9789TIP3    H129312   5.854   0.739   6.204
 9789TIP3    H229313   5.768   0.861   6.182
 9790TIP3   OH229314   4.924   1.183   6.888
 9790TIP3    H129315   4.961   1.154   6.805
 9790TIP3    H229316   4.964   1.125   6.953
 9791TIP3   OH229317   5.373   1.309   6.044
 9791TIP3    H129318   5.326   1.393   6.042
 9791TIP3    H229319   5.320   1.254   6.102
 9792TIP3   OH229320   7.636   5.107   0.565
 9792TIP3    H129321   7.654   5.095   0.658
 9792TIP3    H229322   7.566   5.044   0.546
 9793TIP3   OH229323   8.363   5.227   0.586
 9793TIP3    H129324   8.300   5.172   0.538
 9793TIP3    H229325   8.449   5.199   0.553
 9794TIP3   OH229326   0.117   5.742   0.173
 9794TIP3    H129327   0.022   5.742   0.183
 9794TIP3    H229328   0.149   5.794   0.247
 9795TIP3   OH229329   6.207   0.809   6.005
 9795TIP3    H129330   6.166   0.746   5.946
 9795TIP3    H229331   6.187   0.895   5.967
 9796TIP3   OH229332   0.747   5.675   0.153
 9796TIP3    H129333   0.651   5.669   0.148
 9796TIP3    H229334   0.777   5.647   0.067
 9797TIP3   OH229335   5.897   1.629   5.924
 9797TIP3    H129336   5.872   1.562   5.988
 9797TIP3    H229337   5.912   1.581   5.843
 9798TIP3   OH229338   5.891   1.260   6.755
 9798TIP3    H129339   5.800   1.236   6.771
 9798TIP3    H229340   5.929   1.183   6.713
 9799TIP3   OH229341   5.028   1.486   6.514
 9799TIP3    H129342   5.028   1.566   6.460
 9799TIP3    H229343   4.935   1.468   6.530
 9800TIP3   OH229344   4.584   0.790   6.226
 9800TIP3    H129345   4.631   0.872   6.242
 9800TIP3    H229346   4.508   0.794   6.284
 9801TIP3   OH229347   5.157   1.248   6.461
 9801TIP3    H129348   5.126   1.337   6.477
 9801TIP3    H229349   5.122   1.196   6.533
 9802TIP3   OH229350   8.128   5.836   0.042
 9802TIP3    H129351   8.167   5.908  -0.008
 9802TIP3    H229352   8.201   5.798   0.090
 9803TIP3   OH229353   4.944   1.725   6.372
 9803TIP3    H129354   4.856   1.738   6.409
 9803TIP3    H229355   4.982   1.813   6.370
 9804TIP3   OH229356   0.010   5.468   0.006
 9804TIP3    H129357  -0.003   5.468   0.101
 9804TIP3    H229358   0.092   5.420  -0.006
 9805TIP3   OH229359   5.655   1.345   5.828
 9805TIP3    H129360   5.705   1.324   5.907
 9805TIP3    H229361   5.564   1.334   5.854
 9806TIP3   OH229362   0.258   6.001   0.050
 9806TIP3    H129363   0.180   5.947   0.046
 9806TIP3    H229364   0.246   6.066  -0.019
 9807TIP3   OH229365   5.991   1.831   5.645
 9807TIP3    H129366   6.030   1.900   5.592
 9807TIP3    H229367   5.912   1.871   5.682
 9808TIP3   OH229368   5.817   1.272   6.039
 9808TIP3    H129369   5.803   1.206   6.108
 9808TIP3    H229370   5.912   1.280   6.033
 9809TIP3   OH229371   7.564   5.696   0.203
 9809TIP3    H129372   7.616   5.624   0.239
 9809TIP3    H229373   7.591   5.773   0.253
 9810TIP3   OH229374   5.029   1.329   5.829
 9810TIP3    H129375   5.033   1.237   5.803
 9810TIP3    H229376   4.999   1.327   5.920
 9811TIP3   OH229377   4.965   1.350   6.099
 9811TIP3    H129378   5.038   1.325   6.157
 9811TIP3    H229379   4.964   1.445   6.100
 9812TIP3   OH229380   4.699   1.035   6.302
 9812TIP3    H129381   4.632   1.075   6.359
 9812TIP3    H229382   4.714   1.101   6.234
 9813TIP3   OH229383   5.228   1.540   6.046
 9813TIP3    H129384   5.142   1.563   6.080
 9813TIP3    H229385   5.252   1.613   5.989
 9814TIP3   OH229386   5.439   0.588   6.419
 9814TIP3    H129387   5.485   0.672   6.420
 9814TIP3    H229388   5.435   0.562   6.511
 9815TIP3   OH229389   0.038   4.930   0.333
 9815TIP3    H129390   0.032   4.993   0.405
 9815TIP3    H229391   0.086   4.856   0.370
 9816TIP3   OH229392   4.972   1.626   6.109
 9816TIP3    H129393   4.913   1.679   6.056
 9816TIP3    H229394   4.964   1.662   6.197
 9817TIP3   OH229395   5.981   1.018   6.641
 9817TIP3    H129396   5.902   0.968   6.665
 9817TIP3    H229397   6.052   0.973   6.687
 9818TIP3   OH229398   4.696   1.238   6.104
 9818TIP3    H129399   4.757   1.312   6.107
 9818TIP3    H229400   4.733   1.179   6.039
 9819TIP3   OH229401   4.639   0.519   6.227
 9819TIP3    H129402   4.631   0.614   6.223
 9819TIP3    H229403   4.550   0.487   6.210
 9820TIP3   OH229404   5.950   1.972   6.582
 9820TIP3    H129405   5.905   2.016   6.510
 9820TIP3    H229406   6.043   1.988   6.566
 9821TIP3   OH229407   4.542   1.430   6.494
 9821TIP3    H129408   4.472   1.480   6.537
 9821TIP3    H229409   4.580   1.492   6.431
 9822TIP3   OH229410   7.558   6.009   0.632
 9822TIP3    H129411   7.644   6.012   0.674
 9822TIP3    H229412   7.539   5.916   0.623
 9823TIP3   OH229413   8.030   5.966   0.670
 9823TIP3    H129414   8.125   5.952   0.680
 9823TIP3    H229415   8.005   5.906   0.599
 9824TIP3   OH229416   5.180   1.536   5.733
 9824TIP3    H129417   5.127   1.467   5.774
 9824TIP3    H229418   5.257   1.490   5.700
 9825TIP3   OH229419   0.173   5.878   0.406
 9825TIP3    H129420   0.165   5.810   0.473
 9825TIP3    H229421   0.249   5.930   0.433
 9826TIP3   OH229422   5.620   1.576   5.650
 9826TIP3    H129423   5.669   1.519   5.709
 9826TIP3    H229424   5.671   1.577   5.569
 9827TIP3   OH229425   7.681   5.413   0.823
 9827TIP3    H129426   7.702   5.320   0.834
 9827TIP3    H229427   7.598   5.414   0.776
 9828TIP3   OH229428   4.830   1.052   5.961
 9828TIP3    H129429   4.883   1.025   6.036
 9828TIP3    H229430   4.893   1.059   5.889
 9829TIP3   OH229431   8.289   5.501   0.600
 9829TIP3    H129432   8.250   5.519   0.514
 9829TIP3    H229433   8.320   5.410   0.593
 9830TIP3   OH229434   5.350   1.257   5.773
 9830TIP3    H129435   5.342   1.273   5.867
 9830TIP3    H229436   5.347   1.162   5.765
 9831TIP3   OH229437   0.282   5.514   0.205
 9831TIP3    H129438   0.360   5.551   0.163
 9831TIP3    H229439   0.214   5.580   0.191
 9832TIP3   OH229440   7.806   5.156   0.806
 9832TIP3    H129441   7.872   5.089   0.787
 9832TIP3    H229442   7.829   5.187   0.894
 9833TIP3   OH229443   5.034   0.961   6.184
 9833TIP3    H129444   5.007   0.925   6.269
 9833TIP3    H229445   5.068   0.885   6.136
 9834TIP3   OH229446   8.137   5.064   0.467
 9834TIP3    H129447   8.055   5.114   0.463
 9834TIP3    H229448   8.185   5.089   0.388
 9835TIP3   OH229449   5.133   0.757   6.021
 9835TIP3    H129450   5.097   0.760   5.933
 9835TIP3    H229451   5.228   0.762   6.009
 9836TIP3   OH229452   0.159   5.436   0.603
 9836TIP3    H129453   0.232   5.403   0.551
 9836TIP3    H229454   0.145   5.369   0.670
 9837TIP3   OH229455   5.922   1.059   5.690
 9837TIP3    H129456   5.943   1.046   5.598
 9837TIP3    H229457   5.901   1.152   5.698
 9838TIP3   OH229458   8.223   4.839   0.584
 9838TIP3    H129459   8.177   4.778   0.527
 9838TIP3    H229460   8.199   4.926   0.551
 9839TIP3   OH229461   8.299   5.149   0.269
 9839TIP3    H129462   8.382   5.156   0.222
 9839TIP3    H229463   8.241   5.211   0.226
 9840TIP3   OH229464   0.371   5.117   0.637
 9840TIP3    H129465   0.399   5.051   0.700
 9840TIP3    H229466   0.452   5.160   0.609
 9841TIP3   OH229467   0.414   5.364   0.386
 9841TIP3    H129468   0.355   5.417   0.333
 9841TIP3    H229469   0.501   5.384   0.351
 9842TIP3   OH229470   8.112   4.964   0.814
 9842TIP3    H129471   8.055   4.900   0.857
 9842TIP3    H229472   8.164   4.912   0.752
 9843TIP3   OH229473   8.501   4.894   0.628
 9843TIP3    H129474   8.529   4.859   0.713
 9843TIP3    H229475   8.406   4.883   0.628
 9844TIP3   OH229476   4.427   1.196   6.145
 9844TIP3    H129477   4.518   1.220   6.130
 9844TIP3    H229478   4.417   1.111   6.103
 9845TIP3   OH229479   4.351   1.794   6.547
 9845TIP3    H129480   4.278   1.742   6.512
 9845TIP3    H229481   4.388   1.739   6.617
 9846TIP3   OH229482   4.488   1.653   6.744
 9846TIP3    H129483   4.465   1.582   6.803
 9846TIP3    H229484   4.533   1.717   6.799
 9847TIP3   OH229485   6.206   2.058   6.547
 9847TIP3    H129486   6.227   2.092   6.634
 9847TIP3    H229487   6.264   2.106   6.488
 9848TIP3   OH229488   6.229   2.077   6.830
 9848TIP3    H129489   6.185   1.993   6.823
 9848TIP3    H229490   6.306   2.060   6.884
 9849TIP3   OH229491   0.610   5.768   0.462
 9849TIP3    H129492   0.537   5.776   0.523
 9849TIP3    H229493   0.653   5.854   0.464
 9850TIP3   OH229494   6.098   1.267   6.015
 9850TIP3    H129495   6.159   1.334   5.984
 9850TIP3    H229496   6.139   1.232   6.094
 9851TIP3   OH229497   6.219   1.141   6.223
 9851TIP3    H129498   6.155   1.105   6.284
 9851TIP3    H229499   6.286   1.181   6.279
 9852TIP3   OH229500   6.278   1.531   6.651
 9852TIP3    H129501   6.331   1.465   6.608
 9852TIP3    H229502   6.276   1.604   6.589
 9853TIP3   OH229503   6.103   1.830   6.848
 9853TIP3    H129504   6.034   1.873   6.899
 9853TIP3    H229505   6.056   1.785   6.778
 9854TIP3   OH229506   6.144   1.039   5.869
 9854TIP3    H129507   6.078   1.052   5.801
 9854TIP3    H229508   6.129   1.112   5.930
 9855TIP3   OH229509   6.032   1.007   6.372
 9855TIP3    H129510   6.041   0.913   6.358
 9855TIP3    H229511   6.018   1.016   6.466
 9856TIP3   OH229512   7.494   5.078   0.175
 9856TIP3    H129513   7.488   5.047   0.085
 9856TIP3    H229514   7.588   5.078   0.194
 9857TIP3   OH229515   0.659   5.427   0.279
 9857TIP3    H129516   0.728   5.361   0.275
 9857TIP3    H229517   0.687   5.494   0.217
 9858TIP3   OH229518   0.839   5.227   0.310
 9858TIP3    H129519   0.765   5.174   0.338
 9858TIP3    H229520   0.915   5.169   0.318
 9859TIP3   OH229521   6.032   0.744   6.224
 9859TIP3    H129522   6.057   0.672   6.282
 9859TIP3    H229523   6.105   0.752   6.162
 9860TIP3   OH229524   6.190   0.892   6.765
 9860TIP3    H129525   6.273   0.911   6.722
 9860TIP3    H229526   6.201   0.924   6.854
 9861TIP3   OH229527   0.587   5.046   0.049
 9861TIP3    H129528   0.513   5.081   0.098
 9861TIP3    H229529   0.623   5.122   0.003
 9862TIP3   OH229530   7.707   4.759   0.834
 9862TIP3    H129531   7.800   4.765   0.856
 9862TIP3    H229532   7.681   4.672   0.865
 9863TIP3   OH229533   7.471   4.728   0.250
 9863TIP3    H129534   7.517   4.731   0.166
 9863TIP3    H229535   7.503   4.805   0.297
 9864TIP3   OH229536   5.787   1.928   6.200
 9864TIP3    H129537   5.838   1.919   6.120
 9864TIP3    H229538   5.832   1.995   6.251
 9865TIP3   OH229539   7.716   5.746   0.645
 9865TIP3    H129540   7.627   5.714   0.628
 9865TIP3    H229541   7.736   5.716   0.733
 9866TIP3   OH229542   7.901   5.777   0.190
 9866TIP3    H129543   7.852   5.852   0.155
 9866TIP3    H229544   7.987   5.784   0.150
 9867TIP3   OH229545   8.341   6.018   0.331
 9867TIP3    H129546   8.380   6.014   0.419
 9867TIP3    H229547   8.404   6.067   0.279
 9868TIP3   OH229548   0.022   6.170   0.193
 9868TIP3    H129549   0.089   6.120   0.148
 9868TIP3    H229550   0.071   6.227   0.253
 9869TIP3   OH229551   7.569   6.028   0.220
 9869TIP3    H129552   7.482   6.058   0.196
 9869TIP3    H229553   7.590   6.074   0.300
 9870TIP3   OH229554   7.807   6.008   0.076
 9870TIP3    H129555   7.722   6.018   0.119
 9870TIP3    H229556   7.793   6.041  -0.013
 9871TIP3   OH229557   5.401   2.029   6.815
 9871TIP3    H129558   5.336   2.046   6.747
 9871TIP3    H229559   5.416   2.114   6.856
 9872TIP3   OH229560   5.671   1.966   6.866
 9872TIP3    H129561   5.579   1.984   6.848
 9872TIP3    H229562   5.719   2.037   6.822
 9873TIP3   OH229563   5.873   2.154   6.776
 9873TIP3    H129564   5.862   2.239   6.733
 9873TIP3    H229565   5.903   2.096   6.705
 9874TIP3   OH229566   4.659   1.813   6.898
 9874TIP3    H129567   4.676   1.788   6.989
 9874TIP3    H229568   4.729   1.771   6.848
 9875TIP3   OH229569   4.852   1.686   6.751
 9875TIP3    H129570   4.862   1.604   6.799
 9875TIP3    H229571   4.940   1.724   6.751
 9876TIP3   OH229572   5.114   1.775   6.770
 9876TIP3    H129573   5.143   1.685   6.758
 9876TIP3    H229574   5.160   1.805   6.849
 9877TIP3   OH229575   5.223   1.769   5.885
 9877TIP3    H129576   5.306   1.787   5.842
 9877TIP3    H229577   5.179   1.707   5.827
 9878TIP3   OH229578   5.932   1.895   5.967
 9878TIP3    H129579   5.925   1.800   5.959
 9878TIP3    H229580   5.886   1.930   5.891
 9879TIP3   OH229581   4.523   1.606   5.935
 9879TIP3    H129582   4.563   1.689   5.962
 9879TIP3    H229583   4.598   1.546   5.923
 9880TIP3   OH229584   0.486   6.045   0.215
 9880TIP3    H129585   0.411   6.013   0.164
 9880TIP3    H229586   0.472   6.140   0.221
 9881TIP3   OH229587   7.422   1.412   5.918
 9881TIP3    H129588   7.397   1.503   5.899
 9881TIP3    H229589   7.350   1.359   5.885
 9882TIP3   OH229590   7.414   1.416   6.293
 9882TIP3    H129591   7.435   1.398   6.384
 9882TIP3    H229592   7.373   1.335   6.262
 9883TIP3   OH229593   6.727   1.300   6.672
 9883TIP3    H129594   6.748   1.230   6.733
 9883TIP3    H229595   6.811   1.341   6.653
 9884TIP3   OH229596   7.674   1.716   5.986
 9884TIP3    H129597   7.646   1.651   6.050
 9884TIP3    H229598   7.700   1.792   6.039
 9885TIP3   OH229599   6.697   1.711   6.388
 9885TIP3    H129600   6.684   1.617   6.391
 9885TIP3    H229601   6.791   1.723   6.385
 9886TIP3   OH229602   6.387   0.928   6.188
 9886TIP3    H129603   6.340   1.009   6.206
 9886TIP3    H229604   6.327   0.876   6.134
 9887TIP3   OH229605   6.453   1.217   6.346
 9887TIP3    H129606   6.490   1.135   6.379
 9887TIP3    H229607   6.524   1.258   6.298
 9888TIP3   OH229608   7.321   2.173   6.001
 9888TIP3    H129609   7.363   2.103   5.952
 9888TIP3    H229610   7.307   2.136   6.088
 9889TIP3   OH229611   7.223   1.636   6.349
 9889TIP3    H129612   7.259   1.560   6.303
 9889TIP3    H229613   7.301   1.685   6.377
 9890TIP3   OH229614   7.626   1.138   6.403
 9890TIP3    H129615   7.665   1.053   6.422
 9890TIP3    H229616   7.601   1.133   6.311
 9891TIP3   OH229617   6.961   0.754   6.315
 9891TIP3    H129618   6.937   0.843   6.290
 9891TIP3    H229619   6.883   0.702   6.298
 9892TIP3   OH229620   7.632   0.910   6.025
 9892TIP3    H129621   7.685   0.863   6.089
 9892TIP3    H229622   7.685   0.909   5.945
 9893TIP3   OH229623   6.580   0.997   6.442
 9893TIP3    H129624   6.667   1.002   6.482
 9893TIP3    H229625   6.590   0.938   6.368
 9894TIP3   OH229626   7.045   1.198   6.248
 9894TIP3    H129627   7.136   1.175   6.263
 9894TIP3    H229628   7.003   1.115   6.224
 9895TIP3   OH229629   7.317   1.637   5.785
 9895TIP3    H129630   7.273   1.616   5.703
 9895TIP3    H229631   7.272   1.715   5.817
 9896TIP3   OH229632   7.086   1.554   6.577
 9896TIP3    H129633   7.023   1.617   6.612
 9896TIP3    H229634   7.123   1.597   6.500
 9897TIP3   OH229635   6.834   0.957   6.509
 9897TIP3    H129636   6.893   1.006   6.567
 9897TIP3    H229637   6.862   0.866   6.517
 9898TIP3   OH229638   6.905   1.751   6.672
 9898TIP3    H129639   6.882   1.837   6.636
 9898TIP3    H229640   6.830   1.727   6.727
 9899TIP3   OH229641   6.294   1.444   5.909
 9899TIP3    H129642   6.256   1.472   5.825
 9899TIP3    H229643   6.326   1.525   5.949
 9900TIP3   OH229644   7.734   1.959   6.146
 9900TIP3    H129645   7.649   1.948   6.189
 9900TIP3    H229646   7.729   2.044   6.104
 9901TIP3   OH229647   7.441   1.999   5.820
 9901TIP3    H129648   7.488   1.917   5.803
 9901TIP3    H229649   7.497   2.067   5.784
 9902TIP3   OH229650   7.584   1.782   5.734
 9902TIP3    H129651   7.529   1.709   5.707
 9902TIP3    H229652   7.623   1.753   5.817
 9903TIP3   OH229653   7.938   1.856   6.490
 9903TIP3    H129654   7.939   1.788   6.423
 9903TIP3    H229655   7.942   1.939   6.442
 9904TIP3   OH229656   7.254   1.269   5.749
 9904TIP3    H129657   7.174   1.318   5.733
 9904TIP3    H229658   7.295   1.261   5.663
 9905TIP3   OH229659   7.212   1.046   5.469
 9905TIP3    H129660   7.281   1.099   5.510
 9905TIP3    H229661   7.260   0.978   5.422
 9906TIP3   OH229662   8.183   1.499   6.333
 9906TIP3    H129663   8.093   1.528   6.349
 9906TIP3    H229664   8.202   1.530   6.244
 9907TIP3   OH229665   7.603   1.347   5.724
 9907TIP3    H129666   7.546   1.369   5.798
 9907TIP3    H229667   7.687   1.325   5.764
 9908TIP3   OH229668   7.861   1.372   6.518
 9908TIP3    H129669   7.910   1.437   6.568
 9908TIP3    H229670   7.807   1.423   6.458
 9909TIP3   OH229671   6.837   1.341   6.138
 9909TIP3    H129672   6.796   1.284   6.073
 9909TIP3    H229673   6.911   1.291   6.171
 9910TIP3   OH229674   6.966   1.754   6.287
 9910TIP3    H129675   6.944   1.719   6.201
 9910TIP3    H229676   7.053   1.718   6.305
 9911TIP3   OH229677   6.966   1.313   6.492
 9911TIP3    H129678   6.999   1.288   6.406
 9911TIP3    H229679   7.016   1.392   6.514
 9912TIP3   OH229680   7.499   1.951   6.274
 9912TIP3    H129681   7.484   2.033   6.322
 9912TIP3    H229682   7.480   1.882   6.338
 9913TIP3   OH229683   7.102   1.868   6.818
 9913TIP3    H129684   7.045   1.930   6.863
 9913TIP3    H229685   7.042   1.814   6.766
 9914TIP3   OH229686   7.443   1.203   5.548
 9914TIP3    H129687   7.497   1.263   5.599
 9914TIP3    H229688   7.467   1.220   5.457
 9915TIP3   OH229689   1.180   5.461  -0.013
 9915TIP3    H129690   1.184   5.538   0.043
 9915TIP3    H229691   1.092   5.425   0.003
 9916TIP3   OH229692   7.190   1.880   5.825
 9916TIP3    H129693   7.269   1.932   5.835
 9916TIP3    H229694   7.127   1.940   5.784
 9917TIP3   OH229695   6.901   2.036   6.907
 9917TIP3    H129696   6.868   2.039   6.817
 9917TIP3    H229697   6.824   2.014   6.960
 9918TIP3   OH229698   6.701   1.185   5.940
 9918TIP3    H129699   6.633   1.228   5.889
 9918TIP3    H229700   6.666   1.098   5.958
 9919TIP3   OH229701   7.753   1.814   5.149
 9919TIP3    H129702   7.760   1.908   5.134
 9919TIP3    H229703   7.842   1.781   5.135
 9920TIP3   OH229704   6.481   1.571   6.851
 9920TIP3    H129705   6.416   1.549   6.785
 9920TIP3    H229706   6.518   1.487   6.878
 9921TIP3   OH229707   6.337   1.763   6.486
 9921TIP3    H129708   6.432   1.758   6.478
 9921TIP3    H229709   6.322   1.841   6.540
 9922TIP3   OH229710   8.179   2.222   6.534
 9922TIP3    H129711   8.198   2.128   6.546
 9922TIP3    H229712   8.100   2.237   6.587
 9923TIP3   OH229713   7.301   1.995   6.677
 9923TIP3    H129714   7.305   2.086   6.706
 9923TIP3    H229715   7.231   1.956   6.729
 9924TIP3   OH229716   7.070   2.128   5.628
 9924TIP3    H129717   7.023   2.111   5.547
 9924TIP3    H229718   7.038   2.213   5.657
 9925TIP3   OH229719   6.506   1.975   6.017
 9925TIP3    H129720   6.554   1.969   6.099
 9925TIP3    H229721   6.448   1.898   6.018
 9926TIP3   OH229722   7.270   2.029   5.267
 9926TIP3    H129723   7.326   1.961   5.231
 9926TIP3    H229724   7.302   2.041   5.356
 9927TIP3   OH229725   7.320   2.078   5.538
 9927TIP3    H129726   7.232   2.088   5.575
 9927TIP3    H229727   7.373   2.042   5.609
 9928TIP3   OH229728   6.687   1.754   6.838
 9928TIP3    H129729   6.735   1.741   6.919
 9928TIP3    H229730   6.614   1.691   6.842
 9929TIP3   OH229731   7.522   1.244   5.293
 9929TIP3    H129732   7.481   1.221   5.209
 9929TIP3    H229733   7.602   1.291   5.268
 9930TIP3   OH229734   7.033   1.083   6.650
 9930TIP3    H129735   7.004   1.121   6.733
 9930TIP3    H229736   7.025   1.155   6.587
 9931TIP3   OH229737   6.900   0.977   6.165
 9931TIP3    H129738   6.808   0.958   6.181
 9931TIP3    H229739   6.917   0.947   6.076
 9932TIP3   OH229740   7.386   1.070   5.887
 9932TIP3    H129741   7.339   1.139   5.842
 9932TIP3    H229742   7.452   1.040   5.824
 9933TIP3   OH229743   7.531   1.132   6.143
 9933TIP3    H129744   7.472   1.177   6.082
 9933TIP3    H229745   7.555   1.051   6.098
 9934TIP3   OH229746   6.814   1.112   6.864
 9934TIP3    H129747   6.857   1.175   6.921
 9934TIP3    H229748   6.819   1.029   6.912
 9935TIP3   OH229749   6.482   0.736   5.991
 9935TIP3    H129750   6.497   0.738   5.896
 9935TIP3    H229751   6.391   0.761   6.001
 9936TIP3   OH229752   7.501   1.338   6.538
 9936TIP3    H129753   7.537   1.263   6.491
 9936TIP3    H229754   7.564   1.354   6.609
 9937TIP3   OH229755   6.647   0.855   6.206
 9937TIP3    H129756   6.559   0.891   6.194
 9937TIP3    H229757   6.646   0.773   6.157
 9938TIP3   OH229758   6.942   0.875   5.916
 9938TIP3    H129759   7.032   0.860   5.887
 9938TIP3    H229760   6.889   0.863   5.837
 9939TIP3   OH229761   6.776   0.856   5.685
 9939TIP3    H129762   6.701   0.839   5.628
 9939TIP3    H229763   6.838   0.904   5.630
 9940TIP3   OH229764   7.894   2.567   6.638
 9940TIP3    H129765   7.892   2.591   6.545
 9940TIP3    H229766   7.956   2.629   6.678
 9941TIP3   OH229767   1.178   5.698   0.130
 9941TIP3    H129768   1.259   5.724   0.175
 9941TIP3    H229769   1.113   5.692   0.201
 9942TIP3   OH229770   7.300   1.131   6.319
 9942TIP3    H129771   7.383   1.103   6.281
 9942TIP3    H229772   7.304   1.103   6.410
 9943TIP3   OH229773   7.311   1.059   6.581
 9943TIP3    H129774   7.220   1.034   6.600
 9943TIP3    H229775   7.344   1.094   6.664
 9944TIP3   OH229776   7.021   1.413   5.702
 9944TIP3    H129777   6.950   1.350   5.688
 9944TIP3    H229778   7.004   1.448   5.790
 9945TIP3   OH229779   7.934   1.633   6.324
 9945TIP3    H129780   7.960   1.687   6.250
 9945TIP3    H229781   7.848   1.598   6.300
 9946TIP3   OH229782   7.456   0.799   5.526
 9946TIP3    H129783   7.398   0.748   5.582
 9946TIP3    H229784   7.496   0.863   5.585
 9947TIP3   OH229785   7.431   1.745   6.704
 9947TIP3    H129786   7.397   1.706   6.785
 9947TIP3    H229787   7.389   1.831   6.699
 9948TIP3   OH229788   7.562   0.993   5.686
 9948TIP3    H129789   7.657   1.002   5.694
 9948TIP3    H229790   7.535   1.067   5.632
 9949TIP3   OH229791   6.717   1.431   6.373
 9949TIP3    H129792   6.755   1.407   6.289
 9949TIP3    H229793   6.768   1.381   6.438
 9950TIP3   OH229794   7.168   1.566   5.528
 9950TIP3    H129795   7.122   1.650   5.528
 9950TIP3    H229796   7.116   1.510   5.586
 9951TIP3   OH229797   0.923   5.371   0.058
 9951TIP3    H129798   0.955   5.355   0.147
 9951TIP3    H229799   0.862   5.299   0.041
 9952TIP3   OH229800   1.657   5.497   0.072
 9952TIP3    H129801   1.598   5.443   0.020
 9952TIP3    H229802   1.737   5.444   0.081
 9953TIP3   OH229803   7.576   1.991   6.590
 9953TIP3    H129804   7.481   1.983   6.594
 9953TIP3    H229805   7.599   2.041   6.668
 9954TIP3   OH229806   7.987   1.064   5.486
 9954TIP3    H129807   7.929   1.014   5.429
 9954TIP3    H229808   7.980   1.154   5.453
 9955TIP3   OH229809   7.702   1.882   5.418
 9955TIP3    H129810   7.655   1.818   5.473
 9955TIP3    H229811   7.706   1.840   5.332
 9956TIP3   OH229812   7.687   1.505   6.263
 9956TIP3    H129813   7.593   1.488   6.264
 9956TIP3    H229814   7.723   1.435   6.208
 9957TIP3   OH229815   6.818   1.744   6.001
 9957TIP3    H129816   6.817   1.824   5.947
 9957TIP3    H229817   6.726   1.726   6.019
 9958TIP3   OH229818   6.379   1.050   5.710
 9958TIP3    H129819   6.428   1.130   5.727
 9958TIP3    H229820   6.306   1.053   5.772
 9959TIP3   OH229821   6.951   1.507   5.945
 9959TIP3    H129822   6.918   1.595   5.962
 9959TIP3    H229823   6.919   1.454   6.018
 9960TIP3   OH229824   7.091   2.086   6.469
 9960TIP3    H129825   7.129   2.159   6.419
 9960TIP3    H229826   7.164   2.049   6.517
 9961TIP3   OH229827   6.736   1.982   5.855
 9961TIP3    H129828   6.651   1.989   5.900
 9961TIP3    H229829   6.771   2.072   5.856
 9962TIP3   OH229830   7.473   1.717   6.436
 9962TIP3    H129831   7.467   1.717   6.531
 9962TIP3    H229832   7.551   1.666   6.416
 9963TIP3   OH229833   7.451   1.614   5.315
 9963TIP3    H129834   7.503   1.588   5.391
 9963TIP3    H229835   7.362   1.586   5.337
 9964TIP3   OH229836   7.719   2.250   6.475
 9964TIP3    H129837   7.641   2.195   6.469
 9964TIP3    H229838   7.708   2.315   6.406
 9965TIP3   OH229839   7.786   2.091   5.132
 9965TIP3    H129840   7.826   2.163   5.083
 9965TIP3    H229841   7.706   2.128   5.169
 9966TIP3   OH229842   7.608   1.539   5.526
 9966TIP3    H129843   7.594   1.480   5.600
 9966TIP3    H229844   7.702   1.535   5.510
 9967TIP3   OH229845   6.528   1.945   6.630
 9967TIP3    H129846   6.580   1.875   6.669
 9967TIP3    H229847   6.549   2.022   6.681
 9968TIP3   OH229848   6.816   1.590   5.315
 9968TIP3    H129849   6.828   1.500   5.287
 9968TIP3    H229850   6.795   1.584   5.409
 9969TIP3   OH229851   6.760   1.600   5.586
 9969TIP3    H129852   6.833   1.571   5.642
 9969TIP3    H229853   6.760   1.695   5.592
 9970TIP3   OH229854   6.490   1.291   5.790
 9970TIP3    H129855   6.427   1.334   5.848
 9970TIP3    H229856   6.508   1.355   5.721
 9971TIP3   OH229857   7.025   1.796   5.533
 9971TIP3    H129858   6.940   1.817   5.571
 9971TIP3    H229859   7.045   1.870   5.475
 9972TIP3   OH229860   7.229   0.848   5.908
 9972TIP3    H129861   7.278   0.930   5.905
 9972TIP3    H229862   7.235   0.820   5.999
 9973TIP3   OH229863   7.481   1.150   6.810
 9973TIP3    H129864   7.528   1.230   6.789
 9973TIP3    H229865   7.537   1.080   6.777
 9974TIP3   OH229866   6.772   1.872   5.603
 9974TIP3    H129867   6.744   1.939   5.541
 9974TIP3    H229868   6.757   1.911   5.689
 9975TIP3   OH229869   7.773   1.279   6.122
 9975TIP3    H129870   7.695   1.227   6.141
 9975TIP3    H229871   7.843   1.236   6.171
 9976TIP3   OH229872   6.492   1.494   5.592
 9976TIP3    H129873   6.555   1.565   5.604
 9976TIP3    H229874   6.532   1.437   5.527
 9977TIP3   OH229875   6.431   0.780   5.725
 9977TIP3    H129876   6.428   0.875   5.714
 9977TIP3    H229877   6.358   0.747   5.673
 9978TIP3   OH229878   7.746   2.229   6.069
 9978TIP3    H129879   7.700   2.273   5.997
 9978TIP3    H229880   7.838   2.247   6.053
 9979TIP3   OH229881   6.350   1.707   5.975
 9979TIP3    H129882   6.294   1.740   6.045
 9979TIP3    H229883   6.320   1.752   5.896
 9980TIP3   OH229884   0.854   6.265   0.115
 9980TIP3    H129885   0.938   6.268   0.160
 9980TIP3    H229886   0.831   6.172   0.110
 9981TIP3   OH229887   1.327   6.224   0.155
 9981TIP3    H129888   1.422   6.212   0.162
 9981TIP3    H229889   1.300   6.164   0.086
 9982TIP3   OH229890   6.978   1.792   5.222
 9982TIP3    H129891   6.922   1.725   5.261
 9982TIP3    H229892   7.054   1.744   5.190
 9983TIP3   OH229893   7.600   2.117   6.832
 9983TIP3    H129894   7.595   2.049   6.899
 9983TIP3    H229895   7.680   2.165   6.853
 9984TIP3   OH229896   7.415   1.833   5.137
 9984TIP3    H129897   7.454   1.769   5.196
 9984TIP3    H229898   7.471   1.831   5.059
 9985TIP3   OH229899   0.976   5.670   0.314
 9985TIP3    H129900   0.994   5.577   0.324
 9985TIP3    H229901   0.892   5.673   0.267
 9986TIP3   OH229902   6.628   1.308   5.450
 9986TIP3    H129903   6.683   1.281   5.524
 9986TIP3    H229904   6.689   1.314   5.376
 9987TIP3   OH229905   1.595   5.768   0.070
 9987TIP3    H129906   1.537   5.790  -0.004
 9987TIP3    H229907   1.609   5.674   0.062
 9988TIP3   OH229908   7.142   1.512   5.259
 9988TIP3    H129909   7.141   1.526   5.353
 9988TIP3    H229910   7.143   1.417   5.249
 9989TIP3   OH229911   7.746   1.762   6.656
 9989TIP3    H129912   7.817   1.795   6.601
 9989TIP3    H229913   7.670   1.815   6.633
 9990TIP3   OH229914   1.107   5.395   0.283
 9990TIP3    H129915   1.179   5.334   0.268
 9990TIP3    H229916   1.114   5.419   0.375
 9991TIP3   OH229917   6.826   1.218   5.667
 9991TIP3    H129918   6.807   1.183   5.753
 9991TIP3    H229919   6.866   1.145   5.619
 9992TIP3   OH229920   7.038   1.308   6.806
 9992TIP3    H129921   6.977   1.372   6.844
 9992TIP3    H229922   7.114   1.360   6.780
 9993TIP3   OH229923   6.933   1.011   5.513
 9993TIP3    H129924   6.905   1.018   5.422
 9993TIP3    H229925   7.028   1.013   5.509
 9994TIP3   OH229926   7.752   1.339   5.171
 9994TIP3    H129927   7.735   1.294   5.088
 9994TIP3    H229928   7.721   1.428   5.156
 9995TIP3   OH229929   1.541   5.151   0.042
 9995TIP3    H129930   1.587   5.186  -0.034
 9995TIP3    H229931   1.486   5.081   0.007
 9996TIP3   OH229932   7.280   1.413   6.714
 9996TIP3    H129933   7.348   1.384   6.653
 9996TIP3    H229934   7.223   1.469   6.661
 9997TIP3   OH229935   1.352   5.194   0.241
 9997TIP3    H129936   1.339   5.100   0.252
 9997TIP3    H229937   1.421   5.201   0.174
 9998TIP3   OH229938   6.743   2.072   5.413
 9998TIP3    H129939   6.837   2.063   5.398
 9998TIP3    H229940   6.712   2.124   5.339
 9999TIP3   OH229941   6.222   1.453   5.627
 9999TIP3    H129942   6.314   1.476   5.615
 9999TIP3    H229943   6.214   1.366   5.588
10000TIP3   OH229944   6.139   2.063   6.047
10000TIP3    H129945   6.072   2.007   6.007
10000TIP3    H229946   6.182   2.006   6.111
10001TIP3   OH229947   6.275   1.909   6.233
10001TIP3    H129948   6.259   1.842   6.299
10001TIP3    H229949   6.325   1.976   6.280
10002TIP3   OH229950   8.003   2.309   6.034
10002TIP3    H129951   8.021   2.348   6.120
10002TIP3    H229952   8.059   2.357   5.974
10003TIP3   OH229953   8.023   2.337   6.316
10003TIP3    H129954   7.981   2.252   6.309
10003TIP3    H229955   8.099   2.322   6.372
10004TIP3   OH229956   7.884   1.526   5.503
10004TIP3    H129957   7.905   1.619   5.504
10004TIP3    H229958   7.925   1.491   5.582
10005TIP3   OH229959   8.007   1.419   5.718
10005TIP3    H129960   7.942   1.369   5.766
10005TIP3    H229961   8.072   1.444   5.783
10006TIP3   OH229962   8.070   1.791   6.140
10006TIP3    H129963   8.120   1.724   6.095
10006TIP3    H229964   8.064   1.863   6.078
10007TIP3   OH229965   7.902   2.088   6.333
10007TIP3    H129966   7.833   2.128   6.385
10007TIP3    H229967   7.856   2.042   6.262
10008TIP3   OH229968   7.950   1.306   5.352
10008TIP3    H129969   7.884   1.305   5.283
10008TIP3    H229970   7.923   1.377   5.410
10009TIP3   OH229971   7.816   0.965   5.296
10009TIP3    H129972   7.796   1.037   5.238
10009TIP3    H229973   7.775   0.888   5.255
10010TIP3   OH229974   7.832   1.265   5.851
10010TIP3    H129975   7.833   1.173   5.825
10010TIP3    H229976   7.816   1.263   5.945
10011TIP3   OH229977   6.463   1.327   6.604
10011TIP3    H129978   6.458   1.297   6.513
10011TIP3    H229979   6.557   1.327   6.624
10012TIP3   OH229980   7.834   1.017   5.724
10012TIP3    H129981   7.858   0.940   5.776
10012TIP3    H229982   7.895   1.015   5.650
10013TIP3   OH229983   7.986   1.166   6.254
10013TIP3    H129984   8.078   1.155   6.231
10013TIP3    H229985   7.987   1.185   6.348
10014TIP3   OH229986   1.004   5.010   0.326
10014TIP3    H129987   1.097   5.019   0.347
10014TIP3    H229988   0.977   4.930   0.370
10015TIP3   OH229989   6.433   0.977   6.678
10015TIP3    H129990   6.478   0.980   6.594
10015TIP3    H229991   6.466   1.054   6.725
10016TIP3   OH229992   7.584   2.184   5.688
10016TIP3    H129993   7.634   2.176   5.606
10016TIP3    H229994   7.628   2.254   5.736
10017TIP3   OH229995   1.015   5.999   0.133
10017TIP3    H129996   0.925   5.973   0.116
10017TIP3    H229997   1.030   5.977   0.225
10018TIP3   OH229998   6.865   2.027   6.618
10018TIP3    H129999   6.812   2.098   6.583
10018TIP3    H230000   6.950   2.036   6.575
10019TIP3   OH230001   7.302   2.264   6.754
10019TIP3    H130002   7.338   2.265   6.842
10019TIP3    H230003   7.365   2.313   6.701
10020TIP3   OH230004   7.481   2.416   6.615
10020TIP3    H130005   7.549   2.367   6.569
10020TIP3    H230006   7.530   2.478   6.670
10021TIP3   OH230007   6.535   2.278   6.648
10021TIP3    H130008   6.447   2.305   6.622
10021TIP3    H230009   6.552   2.327   6.728
10022TIP3   OH230010   6.771   2.258   6.503
10022TIP3    H130011   6.686   2.268   6.547
10022TIP3    H230012   6.755   2.291   6.414
10023TIP3   OH230013   7.198   2.286   6.301
10023TIP3    H130014   7.129   2.300   6.236
10023TIP3    H230015   7.210   2.371   6.342
10024TIP3   OH230016   7.467   2.222   6.351
10024TIP3    H130017   7.374   2.240   6.335
10024TIP3    H230018   7.513   2.294   6.308
10025TIP3   OH230019   7.671   2.413   6.262
10025TIP3    H130020   7.659   2.497   6.219
10025TIP3    H230021   7.699   2.354   6.192
10026TIP3   OH230022   6.451   2.068   6.387
10026TIP3    H130023   6.471   2.044   6.478
10026TIP3    H230024   6.520   2.028   6.335
10027TIP3   OH230025   6.646   1.942   6.249
10027TIP3    H130026   6.658   1.860   6.297
10027TIP3    H230027   6.734   1.979   6.244
10028TIP3   OH230028   6.912   2.033   6.255
10028TIP3    H130029   6.940   1.942   6.242
10028TIP3    H230030   6.956   2.061   6.335
10029TIP3   OH230031   6.234   1.849   5.777
10029TIP3    H130032   6.149   1.816   5.747
10029TIP3    H230033   6.232   1.943   5.755
10030TIP3   OH230034   7.011   2.027   5.360
10030TIP3    H130035   7.097   2.053   5.328
10030TIP3    H230036   6.985   1.954   5.303
10031TIP3   OH230037   7.729   2.151   5.454
10031TIP3    H130038   7.725   2.056   5.447
10031TIP3    H230039   7.683   2.183   5.377
10032TIP3   OH230040   6.312   1.863   5.417
10032TIP3    H130041   6.314   1.892   5.508
10032TIP3    H230042   6.398   1.823   5.402
10033TIP3   OH230043   7.934   2.296   6.642
10033TIP3    H130044   7.865   2.269   6.582
10033TIP3    H230045   7.927   2.392   6.644
10034TIP3   OH230046   8.468   1.970   5.900
10034TIP3    H130047   8.446   1.881   5.928
10034TIP3    H230048   8.562   1.968   5.884
10035TIP3   OH230049   8.198   1.213   5.695
10035TIP3    H130050   8.120   1.264   5.674
10035TIP3    H230051   8.191   1.135   5.640
10036TIP3   OH230052   8.289   1.454   5.827
10036TIP3    H130053   8.277   1.359   5.835
10036TIP3    H230054   8.337   1.466   5.746
10037TIP3   OH230055   8.297   1.802   6.300
10037TIP3    H130056   8.220   1.811   6.244
10037TIP3    H230057   8.262   1.783   6.387
10038TIP3   OH230058   8.139   2.023   5.975
10038TIP3    H130059   8.233   2.040   5.980
10038TIP3    H230060   8.099   2.096   6.021
10039TIP3   OH230061   8.267   2.200   5.498
10039TIP3    H130062   8.342   2.214   5.557
10039TIP3    H230063   8.194   2.180   5.556
10040TIP3   OH230064   8.258   1.000   5.468
10040TIP3    H130065   8.275   0.996   5.374
10040TIP3    H230066   8.162   1.005   5.475
10041TIP3   OH230067   8.177   1.292   5.198
10041TIP3    H130068   8.230   1.369   5.218
10041TIP3    H230069   8.102   1.297   5.256
10042TIP3   OH230070   8.328   2.204   6.117
10042TIP3    H130071   8.383   2.147   6.170
10042TIP3    H230072   8.341   2.291   6.155
10043TIP3   OH230073   8.271   1.548   5.253
10043TIP3    H130074   8.181   1.557   5.286
10043TIP3    H230075   8.273   1.603   5.175
10044TIP3   OH230076   8.282   1.732   5.055
10044TIP3    H130077   8.339   1.805   5.080
10044TIP3    H230078   8.298   1.721   4.961
10045TIP3   OH230079   8.236   1.026   5.189
10045TIP3    H130080   8.221   1.120   5.189
10045TIP3    H230081   8.149   0.988   5.176
10046TIP3   OH230082   8.274   2.476   6.518
10046TIP3    H130083   8.363   2.475   6.553
10046TIP3    H230084   8.246   2.385   6.520
10047TIP3   OH230085   8.004   1.708   5.092
10047TIP3    H130086   8.098   1.725   5.087
10047TIP3    H230087   7.995   1.618   5.059
10048TIP3   OH230088   7.937   2.317   5.530
10048TIP3    H130089   7.868   2.262   5.493
10048TIP3    H230090   7.980   2.260   5.595
10049TIP3   OH230091   8.083   2.171   5.714
10049TIP3    H130092   8.052   2.107   5.778
10049TIP3    H230093   8.129   2.237   5.767
10050TIP3   OH230094   8.251   1.593   6.066
10050TIP3    H130095   8.262   1.547   5.983
10050TIP3    H230096   8.340   1.602   6.100
10051TIP3   OH230097   8.321   2.519   6.143
10051TIP3    H130098   8.240   2.553   6.104
10051TIP3    H230099   8.331   2.569   6.223
10052TIP3   OH230100   0.081   2.505   6.003
10052TIP3    H130101  -0.005   2.512   6.043
10052TIP3    H230102   0.070   2.543   5.915
10053TIP3   OH230103   8.241   2.331   5.876
10053TIP3    H130104   8.266   2.312   5.966
10053TIP3    H230105   8.310   2.292   5.823
10054TIP3   OH230106   8.420   2.185   5.735
10054TIP3    H130107   8.432   2.117   5.802
10054TIP3    H230108   8.509   2.203   5.704
10055TIP3   OH230109   8.041   2.079   5.247
10055TIP3    H130110   7.949   2.063   5.225
10055TIP3    H230111   8.044   2.171   5.271
10056TIP3   OH230112   8.105   2.134   4.921
10056TIP3    H130113   8.065   2.171   4.999
10056TIP3    H230114   8.178   2.081   4.954
10057TIP3   OH230115   4.513   6.465   0.151
10057TIP3    H130116   4.486   6.556   0.142
10057TIP3    H230117   4.432   6.415   0.146
10058TIP3   OH230118   4.520   6.439   0.502
10058TIP3    H130119   4.520   6.446   0.598
10058TIP3    H230120   4.438   6.481   0.476
10059TIP3   OH230121   4.751   6.767   0.223
10059TIP3    H130122   4.729   6.696   0.283
10059TIP3    H230123   4.780   6.838   0.280
10060TIP3   OH230124   3.781   6.767   0.626
10060TIP3    H130125   3.767   6.672   0.629
10060TIP3    H230126   3.876   6.776   0.616
10061TIP3   OH230127   3.530   6.244   0.559
10061TIP3    H130128   3.582   6.204   0.628
10061TIP3    H230129   3.590   6.306   0.517
10062TIP3   OH230130   4.402   7.223   0.240
10062TIP3    H130131   4.446   7.156   0.186
10062TIP3    H230132   4.396   7.183   0.326
10063TIP3   OH230133   5.315   6.010   0.573
10063TIP3    H130134   5.329   6.090   0.624
10063TIP3    H230135   5.330   6.036   0.483
10064TIP3   OH230136   4.701   6.168   0.621
10064TIP3    H130137   4.752   6.089   0.635
10064TIP3    H230138   4.674   6.164   0.530
10065TIP3   OH230139   4.082   5.843   0.584
10065TIP3    H130140   4.046   5.923   0.545
10065TIP3    H230141   4.025   5.773   0.552
10066TIP3   OH230142   4.754   5.939   0.203
10066TIP3    H130143   4.820   5.926   0.272
10066TIP3    H230144   4.804   5.974   0.129
10067TIP3   OH230145   4.124   6.242   0.490
10067TIP3    H130146   4.217   6.222   0.500
10067TIP3    H230147   4.085   6.161   0.458
10068TIP3   OH230148   5.376   6.208   0.754
10068TIP3    H130149   5.289   6.248   0.749
10068TIP3    H230150   5.426   6.264   0.813
10069TIP3   OH230151   4.406   6.696   0.017
10069TIP3    H130152   4.354   6.659  -0.054
10069TIP3    H230153   4.357   6.773   0.046
10070TIP3   OH230154   4.955   5.948   0.385
10070TIP3    H130155   4.948   5.896   0.465
10070TIP3    H230156   5.006   6.025   0.411
10071TIP3   OH230157   3.390   6.487   0.144
10071TIP3    H130158   3.341   6.512   0.066
10071TIP3    H230159   3.407   6.571   0.188
10072TIP3   OH230160   4.818   7.013   0.385
10072TIP3    H130161   4.732   6.999   0.425
10072TIP3    H230162   4.811   7.097   0.341
10073TIP3   OH230163   5.111   5.903   0.761
10073TIP3    H130164   5.022   5.919   0.730
10073TIP3    H230165   5.167   5.934   0.689
10074TIP3   OH230166   4.521   7.054   0.056
10074TIP3    H130167   4.568   6.971   0.044
10074TIP3    H230168   4.580   7.120   0.018
10075TIP3   OH230169   1.830   2.830   6.913
10075TIP3    H130170   1.766   2.761   6.894
10075TIP3    H230171   1.874   2.801   6.992
10076TIP3   OH230172   5.044   6.920   0.726
10076TIP3    H130173   5.029   6.841   0.674
10076TIP3    H230174   5.024   6.992   0.666
10077TIP3   OH230175   1.497   2.301   6.927
10077TIP3    H130176   1.420   2.353   6.907
10077TIP3    H230177   1.548   2.302   6.846
10078TIP3   OH230178   1.463   2.097   6.638
10078TIP3    H130179   1.525   2.147   6.691
10078TIP3    H230180   1.516   2.032   6.593
10079TIP3   OH230181   5.240   6.562   0.578
10079TIP3    H130182   5.157   6.609   0.589
10079TIP3    H230183   5.268   6.584   0.489
10080TIP3   OH230184   1.855   2.391   6.897
10080TIP3    H130185   1.798   2.414   6.970
10080TIP3    H230186   1.938   2.367   6.939
10081TIP3   OH230187   4.923   6.474   0.855
10081TIP3    H130188   4.914   6.569   0.859
10081TIP3    H230189   4.843   6.445   0.810
10082TIP3   OH230190   3.916   6.394   0.380
10082TIP3    H130191   3.882   6.335   0.312
10082TIP3    H230192   3.991   6.348   0.416
10083TIP3   OH230193   4.038   6.817   0.515
10083TIP3    H130194   4.011   6.778   0.432
10083TIP3    H230195   4.113   6.765   0.543
10084TIP3   OH230196   4.048   6.402   0.705
10084TIP3    H130197   4.069   6.333   0.641
10084TIP3    H230198   4.113   6.470   0.688
10085TIP3   OH230199   4.578   7.006   0.504
10085TIP3    H130200   4.567   7.087   0.554
10085TIP3    H230201   4.571   6.936   0.570
10086TIP3   OH230202   1.692   2.251   6.725
10086TIP3    H130203   1.749   2.308   6.776
10086TIP3    H230204   1.715   2.269   6.634
10087TIP3   OH230205   4.269   6.934   0.053
10087TIP3    H130206   4.350   6.981   0.073
10087TIP3    H230207   4.208   7.002   0.024
10088TIP3   OH230208   2.207   1.489   6.776
10088TIP3    H130209   2.127   1.511   6.824
10088TIP3    H230210   2.225   1.567   6.722
10089TIP3   OH230211   3.788   6.237   0.176
10089TIP3    H130212   3.716   6.271   0.123
10089TIP3    H230213   3.763   6.146   0.194
10090TIP3   OH230214   2.009   2.855   6.323
10090TIP3    H130215   2.015   2.950   6.310
10090TIP3    H230216   2.098   2.823   6.311
10091TIP3   OH230217   5.278   7.268   0.772
10091TIP3    H130218   5.284   7.173   0.784
10091TIP3    H230219   5.202   7.294   0.824
10092TIP3   OH230220   4.411   7.058   0.939
10092TIP3    H130221   4.355   7.136   0.945
10092TIP3    H230222   4.349   6.986   0.930
10093TIP3   OH230223   1.313   3.172   6.804
10093TIP3    H130224   1.270   3.156   6.721
10093TIP3    H230225   1.284   3.260   6.829
10094TIP3   OH230226   3.589   7.029   0.257
10094TIP3    H130227   3.642   7.023   0.336
10094TIP3    H230228   3.544   6.945   0.252
10095TIP3   OH230229   1.517   3.074   6.444
10095TIP3    H130230   1.573   3.005   6.407
10095TIP3    H230231   1.549   3.085   6.533
10096TIP3   OH230232   1.565   3.121   6.716
10096TIP3    H130233   1.479   3.130   6.757
10096TIP3    H230234   1.620   3.080   6.783
10097TIP3   OH230235   1.767   2.292   6.468
10097TIP3    H130236   1.732   2.268   6.383
10097TIP3    H230237   1.851   2.335   6.448
10098TIP3   OH230238   1.486   1.663   6.762
10098TIP3    H130239   1.454   1.659   6.852
10098TIP3    H230240   1.438   1.595   6.716
10099TIP3   OH230241   3.994   6.025   0.392
10099TIP3    H130242   3.907   5.990   0.406
10099TIP3    H230243   4.015   6.003   0.301
10100TIP3   OH230244   4.474   6.115   0.123
10100TIP3    H130245   4.421   6.183   0.081
10100TIP3    H230246   4.528   6.080   0.052
10101TIP3   OH230247   4.634   6.143   0.355
10101TIP3    H130248   4.571   6.181   0.294
10101TIP3    H230249   4.663   6.063   0.311
10102TIP3   OH230250   1.167   1.726   6.750
10102TIP3    H130251   1.152   1.643   6.794
10102TIP3    H230252   1.083   1.747   6.709
10103TIP3   OH230253   4.680   6.408   0.750
10103TIP3    H130254   4.685   6.325   0.701
10103TIP3    H230255   4.611   6.393   0.814
10104TIP3   OH230256   4.322   5.840   0.457
10104TIP3    H130257   4.236   5.837   0.499
10104TIP3    H230258   4.371   5.906   0.506
10105TIP3   OH230259   3.772   5.883   0.426
10105TIP3    H130260   3.686   5.896   0.467
10105TIP3    H230261   3.797   5.794   0.451
10106TIP3   OH230262   4.019   5.934   0.139
10106TIP3    H130263   4.111   5.933   0.111
10106TIP3    H230264   3.970   5.945   0.058
10107TIP3   OH230265   4.807   5.916   0.680
10107TIP3    H130266   4.775   5.933   0.769
10107TIP3    H230267   4.740   5.861   0.640
10108TIP3   OH230268   1.006   1.949   6.869
10108TIP3    H130269   0.936   1.901   6.826
10108TIP3    H230270   1.072   1.963   6.801
10109TIP3   OH230271   4.993   7.616   0.860
10109TIP3    H130272   4.990   7.628   0.766
10109TIP3    H230273   5.072   7.662   0.888
10110TIP3   OH230274   4.392   6.129   0.538
10110TIP3    H130275   4.458   6.165   0.479
10110TIP3    H230276   4.422   6.154   0.625
10111TIP3   OH230277   3.938   5.646   0.444
10111TIP3    H130278   3.869   5.590   0.407
10111TIP3    H230279   3.996   5.664   0.370
10112TIP3   OH230280   1.267   2.457   6.872
10112TIP3    H130281   1.200   2.390   6.859
10112TIP3    H230282   1.250   2.491   6.960
10113TIP3   OH230283   5.004   6.701   0.562
10113TIP3    H130284   5.026   6.752   0.485
10113TIP3    H230285   4.921   6.659   0.540
10114TIP3   OH230286   1.733   1.771   6.742
10114TIP3    H130287   1.641   1.749   6.749
10114TIP3    H230288   1.738   1.863   6.770
10115TIP3   OH230289   1.799   2.022   6.847
10115TIP3    H130290   1.894   2.027   6.862
10115TIP3    H230291   1.779   2.101   6.797
10116TIP3   OH230292   3.804   6.490   0.611
10116TIP3    H130293   3.833   6.465   0.524
10116TIP3    H230294   3.875   6.463   0.669
10117TIP3   OH230295   1.414   2.607   6.696
10117TIP3    H130296   1.369   2.691   6.701
10117TIP3    H230297   1.364   2.550   6.754
10118TIP3   OH230298   4.676   7.072   0.840
10118TIP3    H130299   4.584   7.051   0.855
10118TIP3    H230300   4.710   7.094   0.927
10119TIP3   OH230301   2.238   2.118   6.677
10119TIP3    H130302   2.181   2.068   6.619
10119TIP3    H230303   2.236   2.207   6.642
10120TIP3   OH230304   5.286   6.981   0.816
10120TIP3    H130305   5.191   6.973   0.810
10120TIP3    H230306   5.319   6.945   0.733
10121TIP3   OH230307   1.942   2.928   6.591
10121TIP3    H130308   1.915   2.862   6.655
10121TIP3    H230309   1.954   2.879   6.510
10122TIP3   OH230310   4.773   6.562   0.470
10122TIP3    H130311   4.687   6.527   0.490
10122TIP3    H230312   4.819   6.490   0.427
10123TIP3   OH230313   3.902   6.801   0.240
10123TIP3    H130314   3.896   6.879   0.184
10123TIP3    H230315   3.811   6.769   0.246
10124TIP3   OH230316   0.601   2.100   6.912
10124TIP3    H130317   0.668   2.167   6.902
10124TIP3    H230318   0.557   2.121   6.994
10125TIP3   OH230319   4.032   6.560   0.174
10125TIP3    H130320   4.006   6.649   0.200
10125TIP3    H230321   4.023   6.508   0.254
10126TIP3   OH230322   4.167   7.140   0.688
10126TIP3    H130323   4.216   7.212   0.647
10126TIP3    H230324   4.234   7.076   0.712
10127TIP3   OH230325   3.812   7.041   0.087
10127TIP3    H130326   3.731   7.047   0.138
10127TIP3    H230327   3.849   7.130   0.091
10128TIP3   OH230328   4.597   6.790   0.680
10128TIP3    H130329   4.529   6.740   0.724
10128TIP3    H230330   4.645   6.725   0.629
10129TIP3   OH230331   1.699   2.661   6.493
10129TIP3    H130332   1.758   2.636   6.564
10129TIP3    H230333   1.613   2.630   6.521
10130TIP3   OH230334   4.799   7.307   0.718
10130TIP3    H130335   4.727   7.244   0.718
10130TIP3    H230336   4.781   7.364   0.644
10131TIP3   OH230337   2.038   3.134   6.309
10131TIP3    H130338   2.081   3.206   6.262
10131TIP3    H230339   1.957   3.172   6.343
10132TIP3   OH230340   1.865   2.584   6.696
10132TIP3    H130341   1.849   2.526   6.771
10132TIP3    H230342   1.960   2.586   6.688
10133TIP3   OH230343   1.059   2.636   6.493
10133TIP3    H130344   1.077   2.547   6.464
10133TIP3    H230345   1.042   2.628   6.587
10134TIP3   OH230346   1.006   2.644   6.767
10134TIP3    H130347   1.079   2.610   6.818
10134TIP3    H230348   1.014   2.739   6.775
10135TIP3   OH230349   3.579   6.338   0.019
10135TIP3    H130350   3.515   6.380   0.077
10135TIP3    H230351   3.604   6.407  -0.042
10136TIP3   OH230352   4.613   5.726   0.086
10136TIP3    H130353   4.596   5.745  -0.006
10136TIP3    H230354   4.652   5.806   0.121
10137TIP3   OH230355   1.271   2.838   6.706
10137TIP3    H130356   1.188   2.862   6.747
10137TIP3    H230357   1.295   2.915   6.654
10138TIP3   OH230358   4.303   5.909   0.186
10138TIP3    H130359   4.362   5.983   0.169
10138TIP3    H230360   4.300   5.902   0.281
10139TIP3   OH230361   4.445   5.641   0.294
10139TIP3    H130362   4.418   5.721   0.341
10139TIP3    H230363   4.505   5.673   0.226
10140TIP3   OH230364   1.019   2.919   6.780
10140TIP3    H130365   0.992   2.987   6.718
10140TIP3    H230366   1.005   2.959   6.866
10141TIP3   OH230367   3.988   5.658   0.177
10141TIP3    H130368   3.987   5.746   0.141
10141TIP3    H230369   4.055   5.612   0.126
10142TIP3   OH230370   4.861   6.319   0.360
10142TIP3    H130371   4.780   6.270   0.372
10142TIP3    H230372   4.927   6.271   0.409
10143TIP3   OH230373   0.749   2.545   6.762
10143TIP3    H130374   0.823   2.604   6.777
10143TIP3    H230375   0.782   2.480   6.700
10144TIP3   OH230376   0.729   1.853   6.811
10144TIP3    H130377   0.717   1.919   6.880
10144TIP3    H230378   0.713   1.769   6.855
10145TIP3   OH230379   4.827   7.285   0.305
10145TIP3    H130380   4.782   7.330   0.234
10145TIP3    H230381   4.920   7.301   0.289
10146TIP3   OH230382   3.442   6.788   0.223
10146TIP3    H130383   3.353   6.810   0.251
10146TIP3    H230384   3.443   6.805   0.129
10147TIP3   OH230385   1.225   2.835   6.399
10147TIP3    H130386   1.169   2.770   6.440
10147TIP3    H230387   1.303   2.787   6.373
10148TIP3   OH230388   1.663   2.877   6.316
10148TIP3    H130389   1.698   2.813   6.378
10148TIP3    H230390   1.722   2.872   6.241
10149TIP3   OH230391   0.877   2.351   6.628
10149TIP3    H130392   0.928   2.318   6.702
10149TIP3    H230393   0.940   2.359   6.556
10150TIP3   OH230394   1.382   2.554   6.430
10150TIP3    H130395   1.388   2.569   6.524
10150TIP3    H230396   1.387   2.459   6.421
10151TIP3   OH230397   4.841   6.778   0.855
10151TIP3    H130398   4.920   6.830   0.838
10151TIP3    H230399   4.770   6.833   0.822
10152TIP3   OH230400   1.071   2.264   6.840
10152TIP3    H130401   1.051   2.229   6.927
10152TIP3    H230402   1.110   2.189   6.793
10153TIP3   OH230403   1.184   2.063   6.685
10153TIP3    H130404   1.156   2.060   6.594
10153TIP3    H230405   1.280   2.059   6.681
10154TIP3   OH230406   1.999   2.387   6.349
10154TIP3    H130407   1.982   2.340   6.268
10154TIP3    H230408   1.967   2.476   6.332
10155TIP3   OH230409   0.993   3.124   6.590
10155TIP3    H130410   1.086   3.108   6.576
10155TIP3    H230411   0.964   3.172   6.513
10156TIP3   OH230412   0.483   2.493   6.808
10156TIP3    H130413   0.575   2.516   6.794
10156TIP3    H230414   0.473   2.407   6.768
10157TIP3   OH230415   3.169   7.117   0.291
10157TIP3    H130416   3.160   7.044   0.229
10157TIP3    H230417   3.223   7.081   0.362
10158TIP3   OH230418   3.334   6.996   0.468
10158TIP3    H130419   3.360   6.905   0.486
10158TIP3    H230420   3.394   7.048   0.521
10159TIP3   OH230421   5.082   7.373   0.270
10159TIP3    H130422   5.110   7.399   0.358
10159TIP3    H230423   5.150   7.408   0.213
10160TIP3   OH230424   5.112   7.385   0.553
10160TIP3    H130425   5.061   7.304   0.545
10160TIP3    H230426   5.182   7.362   0.614
10161TIP3   OH230427   2.143   2.573   6.684
10161TIP3    H130428   2.208   2.636   6.654
10161TIP3    H230429   2.183   2.534   6.762
10162TIP3   OH230430   2.267   2.440   6.890
10162TIP3    H130431   2.201   2.396   6.943
10162TIP3    H230432   2.329   2.476   6.953
10163TIP3   OH230433   5.161   6.844   0.379
10163TIP3    H130434   5.209   6.774   0.334
10163TIP3    H230435   5.150   6.912   0.313
10164TIP3   OH230436   4.980   7.142   0.568
10164TIP3    H130437   4.910   7.175   0.624
10164TIP3    H230438   4.935   7.094   0.498
10165TIP3   OH230439   2.200   2.351   6.532
10165TIP3    H130440   2.131   2.348   6.465
10165TIP3    H230441   2.176   2.424   6.589
10166TIP3   OH230442   2.075   2.019   6.482
10166TIP3    H130443   2.026   2.053   6.407
10166TIP3    H230444   2.058   1.925   6.482
10167TIP3   OH230445   4.914   6.304   0.092
10167TIP3    H130446   4.918   6.209   0.081
10167TIP3    H230447   4.899   6.317   0.185
10168TIP3   OH230448   5.185   6.702   0.920
10168TIP3    H130449   5.272   6.679   0.953
10168TIP3    H230450   5.190   6.796   0.903
10169TIP3   OH230451   5.387   6.527   0.986
10169TIP3    H130452   5.300   6.488   0.990
10169TIP3    H230453   5.443   6.456   0.956
10170TIP3   OH230454   2.021   1.754   6.472
10170TIP3    H130455   2.094   1.719   6.523
10170TIP3    H230456   1.948   1.696   6.492
10171TIP3   OH230457   2.080   2.013   6.923
10171TIP3    H130458   2.115   1.926   6.941
10171TIP3    H230459   2.136   2.048   6.854
10172TIP3   OH230460   5.073   6.192   0.489
10172TIP3    H130461   5.155   6.215   0.446
10172TIP3    H230462   5.081   6.228   0.577
10173TIP3   OH230463   5.139   6.346   0.724
10173TIP3    H130464   5.066   6.381   0.775
10173TIP3    H230465   5.172   6.421   0.674
10174TIP3   OH230466   5.016   5.769   0.027
10174TIP3    H130467   5.065   5.755   0.108
10174TIP3    H230468   4.956   5.695   0.022
10175TIP3   OH230469   2.275   1.691   6.594
10175TIP3    H130470   2.309   1.624   6.536
10175TIP3    H230471   2.337   1.763   6.586
10176TIP3   OH230472   1.829   3.235   6.861
10176TIP3    H130473   1.880   3.221   6.781
10176TIP3    H230474   1.884   3.294   6.914
10177TIP3   OH230475   3.924   7.086   0.848
10177TIP3    H130476   3.915   7.171   0.805
10177TIP3    H230477   4.017   7.064   0.837
10178TIP3   OH230478   4.559   7.479   0.819
10178TIP3    H130479   4.634   7.421   0.801
10178TIP3    H230480   4.566   7.498   0.912
10179TIP3   OH230481   3.850   7.324   0.730
10179TIP3    H130482   3.776   7.362   0.777
10179TIP3    H230483   3.833   7.344   0.638
10180TIP3   OH230484   4.283   7.341   0.532
10180TIP3    H130485   4.212   7.353   0.469
10180TIP3    H230486   4.295   7.427   0.571
10181TIP3   OH230487   4.548   7.272   0.581
10181TIP3    H130488   4.456   7.291   0.565
10181TIP3    H230489   4.595   7.350   0.550
10182TIP3   OH230490   4.758   7.467   0.500
10182TIP3    H130491   4.743   7.550   0.454
10182TIP3    H230492   4.783   7.405   0.431
10183TIP3   OH230493   3.534   7.118   0.613
10183TIP3    H130494   3.550   7.108   0.707
10183TIP3    H230495   3.607   7.074   0.570
10184TIP3   OH230496   3.733   6.992   0.483
10184TIP3    H130497   3.744   6.909   0.529
10184TIP3    H230498   3.822   7.028   0.479
10185TIP3   OH230499   3.995   7.090   0.486
10185TIP3    H130500   4.016   6.997   0.476
10185TIP3    H230501   4.042   7.116   0.565
10186TIP3   OH230502   4.608   5.755   0.588
10186TIP3    H130503   4.538   5.690   0.600
10186TIP3    H230504   4.664   5.717   0.520
10187TIP3   OH230505   5.091   5.622   0.478
10187TIP3    H130506   5.126   5.672   0.405
10187TIP3    H230507   4.997   5.637   0.475
10188TIP3   OH230508   5.185   5.727   0.241
10188TIP3    H130509   5.254   5.674   0.202
10188TIP3    H230510   5.214   5.818   0.229
10189TIP3   OH230511   4.249   5.495   0.436
10189TIP3    H130512   4.316   5.548   0.392
10189TIP3    H230513   4.246   5.530   0.525
10190TIP3   OH230514   4.807   5.624   0.446
10190TIP3    H130515   4.809   5.590   0.357
10190TIP3    H230516   4.789   5.548   0.501
10191TIP3   OH230517   4.832   5.558   0.018
10191TIP3    H130518   4.750   5.605   0.033
10191TIP3    H230519   4.820   5.473   0.062
10192TIP3   OH230520   0.454   2.898   6.968
10192TIP3    H130521   0.410   2.836   6.909
10192TIP3    H230522   0.456   2.980   6.918
10193TIP3   OH230523   4.257   5.658   0.089
10193TIP3    H130524   4.301   5.610   0.158
10193TIP3    H230525   4.270   5.750   0.110
10194TIP3   OH230526   1.258   3.071   6.535
10194TIP3    H130527   1.345   3.096   6.505
10194TIP3    H230528   1.233   2.997   6.480
10195TIP3   OH230529   1.976   3.194   6.631
10195TIP3    H130530   1.970   3.099   6.624
10195TIP3    H230531   1.932   3.227   6.552
10196TIP3   OH230532   0.569   2.912   6.596
10196TIP3    H130533   0.581   2.943   6.686
10196TIP3    H230534   0.651   2.869   6.575
10197TIP3   OH230535   5.025   7.341   0.866
10197TIP3    H130536   4.950   7.317   0.812
10197TIP3    H230537   5.014   7.434   0.884
10198TIP3   OH230538   3.468   2.714   6.582
10198TIP3    H130539   3.441   2.804   6.563
10198TIP3    H230540   3.394   2.661   6.552
10199TIP3   OH230541   6.305   6.717   0.029
10199TIP3    H130542   6.337   6.694   0.116
10199TIP3    H230543   6.260   6.638  -0.002
10200TIP3   OH230544   5.602   6.613   0.387
10200TIP3    H130545   5.627   6.544   0.448
10200TIP3    H230546   5.679   6.670   0.383
10201TIP3   OH230547   3.714   3.016   6.652
10201TIP3    H130548   3.696   2.949   6.718
10201TIP3    H230549   3.744   3.092   6.701
10202TIP3   OH230550   5.576   7.024   0.113
10202TIP3    H130551   5.565   6.929   0.115
10202TIP3    H230552   5.671   7.036   0.107
10203TIP3   OH230553   2.445   2.221   6.836
10203TIP3    H130554   2.396   2.302   6.856
10203TIP3    H230555   2.380   2.164   6.795
10204TIP3   OH230556   5.339   6.513   0.077
10204TIP3    H130557   5.385   6.436   0.110
10204TIP3    H230558   5.393   6.543   0.004
10205TIP3   OH230559   3.361   3.472   6.662
10205TIP3    H130560   3.406   3.403   6.614
10205TIP3    H230561   3.352   3.438   6.751
10206TIP3   OH230562   6.102   6.945   0.075
10206TIP3    H130563   6.137   6.869   0.028
10206TIP3    H230564   6.179   6.994   0.103
10207TIP3   OH230565   7.118   6.266   0.072
10207TIP3    H130566   7.145   6.347   0.115
10207TIP3    H230567   7.134   6.282  -0.021
10208TIP3   OH230568   6.514   6.442   0.103
10208TIP3    H130569   6.555   6.358   0.125
10208TIP3    H230570   6.480   6.429   0.014
10209TIP3   OH230571   5.855   6.103   0.065
10209TIP3    H130572   5.833   6.177   0.008
10209TIP3    H230573   5.810   6.028   0.025
10210TIP3   OH230574   3.719   2.191   6.632
10210TIP3    H130575   3.787   2.175   6.698
10210TIP3    H230576   3.767   2.226   6.557
10211TIP3   OH230577   5.486   6.304   0.178
10211TIP3    H130578   5.567   6.287   0.227
10211TIP3    H230579   5.495   6.251   0.099
10212TIP3   OH230580   3.091   2.496   6.914
10212TIP3    H130581   3.183   2.473   6.926
10212TIP3    H230582   3.050   2.415   6.882
10213TIP3   OH230583   7.187   6.475   0.245
10213TIP3    H130584   7.106   6.519   0.220
10213TIP3    H230585   7.206   6.508   0.333
10214TIP3   OH230586   5.847   6.091   0.503
10214TIP3    H130587   5.793   6.124   0.432
10214TIP3    H230588   5.796   6.109   0.582
10215TIP3   OH230589   3.357   2.935   6.452
10215TIP3    H130590   3.314   2.919   6.367
10215TIP3    H230591   3.317   3.017   6.483
10216TIP3   OH230592   5.954   6.867   0.298
10216TIP3    H130593   5.894   6.933   0.334
10216TIP3    H230594   5.996   6.912   0.224
10217TIP3   OH230595   3.922   2.193   6.812
10217TIP3    H130596   3.895   2.155   6.896
10217TIP3    H230597   3.971   2.272   6.837
10218TIP3   OH230598   5.724   6.203   0.285
10218TIP3    H130599   5.781   6.276   0.311
10218TIP3    H230600   5.769   6.162   0.211
10219TIP3   OH230601   5.781   7.063   0.397
10219TIP3    H130602   5.761   7.149   0.360
10219TIP3    H230603   5.705   7.042   0.451
10220TIP3   OH230604   2.342   2.746   6.573
10220TIP3    H130605   2.299   2.771   6.491
10220TIP3    H230606   2.374   2.828   6.610
10221TIP3   OH230607   3.779   3.260   6.812
10221TIP3    H130608   3.693   3.250   6.852
10221TIP3    H230609   3.775   3.344   6.767
10222TIP3   OH230610   6.909   6.163   0.237
10222TIP3    H130611   6.821   6.188   0.208
10222TIP3    H230612   6.968   6.195   0.169
10223TIP3   OH230613   6.202   5.805   0.229
10223TIP3    H130614   6.184   5.711   0.235
10223TIP3    H230615   6.126   5.847   0.270
10224TIP3   OH230616   3.486   3.300   6.484
10224TIP3    H130617   3.532   3.218   6.466
10224TIP3    H230618   3.544   3.368   6.449
10225TIP3   OH230619   3.627   3.084   6.399
10225TIP3    H130620   3.582   3.007   6.365
10225TIP3    H230621   3.666   3.054   6.481
10226TIP3   OH230622   6.840   7.175   0.217
10226TIP3    H130623   6.828   7.099   0.160
10226TIP3    H230624   6.822   7.251   0.161
10227TIP3   OH230625   3.298   2.564   6.417
10227TIP3    H130626   3.219   2.615   6.400
10227TIP3    H230627   3.344   2.563   6.333
10228TIP3   OH230628   3.259   2.353   6.125
10228TIP3    H130629   3.321   2.405   6.177
10228TIP3    H230630   3.313   2.289   6.079
10229TIP3   OH230631   7.035   6.817   0.062
10229TIP3    H130632   6.953   6.865   0.069
10229TIP3    H230633   7.068   6.839  -0.024
10230TIP3   OH230634   3.648   2.646   6.389
10230TIP3    H130635   3.592   2.670   6.463
10230TIP3    H230636   3.732   2.623   6.428
10231TIP3   OH230637   6.713   6.693   0.363
10231TIP3    H130638   6.712   6.775   0.411
10231TIP3    H230639   6.629   6.692   0.316
10232TIP3   OH230640   2.879   2.641   6.803
10232TIP3    H130641   2.837   2.586   6.738
10232TIP3    H230642   2.954   2.590   6.834
10233TIP3   OH230643   3.010   3.054   6.951
10233TIP3    H130644   2.988   3.020   6.864
10233TIP3    H230645   3.097   3.019   6.969
10234TIP3   OH230646   5.855   6.621   0.219
10234TIP3    H130647   5.882   6.598   0.130
10234TIP3    H230648   5.893   6.707   0.235
10235TIP3   OH230649   6.376   7.260  -0.002
10235TIP3    H130650   6.360   7.341   0.047
10235TIP3    H230651   6.358   7.190   0.060
10236TIP3   OH230652   5.984   7.178   0.543
10236TIP3    H130653   5.927   7.239   0.589
10236TIP3    H230654   5.924   7.124   0.491
10237TIP3   OH230655   3.488   2.506   6.213
10237TIP3    H130656   3.544   2.564   6.265
10237TIP3    H230657   3.512   2.525   6.122
10238TIP3   OH230658   5.745   6.729   0.649
10238TIP3    H130659   5.753   6.818   0.681
10238TIP3    H230660   5.651   6.710   0.654
10239TIP3   OH230661   3.234   3.182   6.486
10239TIP3    H130662   3.315   3.232   6.498
10239TIP3    H230663   3.172   3.245   6.450
10240TIP3   OH230664   5.779   7.344   0.631
10240TIP3    H130665   5.746   7.347   0.541
10240TIP3    H230666   5.701   7.323   0.684
10241TIP3   OH230667   4.004   1.749   6.267
10241TIP3    H130668   3.922   1.765   6.313
10241TIP3    H230669   4.018   1.828   6.214
10242TIP3   OH230670   2.744   2.487   6.607
10242TIP3    H130671   2.677   2.530   6.555
10242TIP3    H230672   2.712   2.398   6.619
10243TIP3   OH230673   3.805   3.111   5.809
10243TIP3    H130674   3.810   3.205   5.796
10243TIP3    H230675   3.895   3.080   5.798
10244TIP3   OH230676   5.359   6.879   0.577
10244TIP3    H130677   5.289   6.864   0.513
10244TIP3    H230678   5.395   6.792   0.593
10245TIP3   OH230679   5.216   7.075   0.203
10245TIP3    H130680   5.310   7.065   0.197
10245TIP3    H230681   5.203   7.149   0.263
10246TIP3   OH230682   7.073   7.514   0.269
10246TIP3    H130683   7.076   7.419   0.280
10246TIP3    H230684   6.990   7.540   0.309
10247TIP3   OH230685   6.184   7.306   0.404
10247TIP3    H130686   6.182   7.397   0.432
10247TIP3    H230687   6.113   7.264   0.453
10248TIP3   OH230688   3.113   3.429   6.294
10248TIP3    H130689   3.067   3.417   6.210
10248TIP3    H230690   3.084   3.515   6.324
10249TIP3   OH230691   2.550   3.275   6.680
10249TIP3    H130692   2.598   3.270   6.762
10249TIP3    H230693   2.499   3.194   6.677
10250TIP3   OH230694   3.313   3.327   5.931
10250TIP3    H130695   3.369   3.258   5.896
10250TIP3    H230696   3.347   3.343   6.019
10251TIP3   OH230697   3.363   3.378   6.200
10251TIP3    H130698   3.277   3.389   6.241
10251TIP3    H230699   3.420   3.347   6.271
10252TIP3   OH230700   6.965   6.649   0.542
10252TIP3    H130701   6.884   6.666   0.494
10252TIP3    H230702   6.981   6.556   0.530
10253TIP3   OH230703   5.564   7.060   0.560
10253TIP3    H130704   5.614   7.046   0.640
10253TIP3    H230705   5.489   7.001   0.568
10254TIP3   OH230706   5.961   5.884   0.350
10254TIP3    H130707   5.877   5.850   0.319
10254TIP3    H230708   5.938   5.964   0.398
10255TIP3   OH230709   6.496   5.998   0.545
10255TIP3    H130710   6.563   5.972   0.608
10255TIP3    H230711   6.413   5.980   0.590
10256TIP3   OH230712   6.737   6.431   0.465
10256TIP3    H130713   6.686   6.426   0.546
10256TIP3    H230714   6.713   6.515   0.427
10257TIP3   OH230715   3.560   2.547   5.955
10257TIP3    H130716   3.532   2.518   5.868
10257TIP3    H230717   3.643   2.593   5.939
10258TIP3   OH230718   3.277   1.923   6.259
10258TIP3    H130719   3.248   1.923   6.350
10258TIP3    H230720   3.238   1.844   6.221
10259TIP3   OH230721   5.897   6.401   0.369
10259TIP3    H130722   5.845   6.418   0.448
10259TIP3    H230723   5.884   6.479   0.315
10260TIP3   OH230724   2.943   2.278   6.823
10260TIP3    H130725   2.853   2.253   6.843
10260TIP3    H230726   2.959   2.242   6.736
10261TIP3   OH230727   3.439   2.367   6.551
10261TIP3    H130728   3.387   2.436   6.510
10261TIP3    H230729   3.492   2.332   6.480
10262TIP3   OH230730   6.449   6.649   0.692
10262TIP3    H130731   6.423   6.577   0.750
10262TIP3    H230732   6.541   6.665   0.713
10263TIP3   OH230733   3.592   2.389   6.785
10263TIP3    H130734   3.530   2.422   6.720
10263TIP3    H230735   3.629   2.310   6.745
10264TIP3   OH230736   5.718   6.428   0.574
10264TIP3    H130737   5.732   6.497   0.639
10264TIP3    H230738   5.704   6.349   0.626
10265TIP3   OH230739   2.928   1.888   6.239
10265TIP3    H130740   2.924   1.876   6.334
10265TIP3    H230741   2.845   1.931   6.217
10266TIP3   OH230742   5.306   5.952   0.163
10266TIP3    H130743   5.386   5.979   0.208
10266TIP3    H230744   5.336   5.919   0.078
10267TIP3   OH230745   2.448   1.925   6.618
10267TIP3    H130746   2.497   1.938   6.537
10267TIP3    H230747   2.392   2.003   6.624
10268TIP3   OH230748   6.439   6.639   0.270
10268TIP3    H130749   6.471   6.572   0.209
10268TIP3    H230750   6.406   6.589   0.345
10269TIP3   OH230751   3.279   2.097   6.885
10269TIP3    H130752   3.194   2.096   6.930
10269TIP3    H230753   3.343   2.098   6.955
10270TIP3   OH230754   2.705   2.156   6.889
10270TIP3    H130755   2.614   2.167   6.863
10270TIP3    H230756   2.725   2.065   6.866
10271TIP3   OH230757   2.976   2.161   6.580
10271TIP3    H130758   3.067   2.171   6.552
10271TIP3    H230759   2.924   2.178   6.501
10272TIP3   OH230760   6.597   6.180   0.145
10272TIP3    H130761   6.571   6.197   0.235
10272TIP3    H230762   6.529   6.121   0.111
10273TIP3   OH230763   2.820   2.194   6.361
10273TIP3    H130764   2.745   2.146   6.326
10273TIP3    H230765   2.869   2.221   6.283
10274TIP3   OH230766   6.775   7.872   0.360
10274TIP3    H130767   6.762   7.891   0.266
10274TIP3    H230768   6.807   7.954   0.396
10275TIP3   OH230769   5.744   6.983   0.774
10275TIP3    H130770   5.819   7.013   0.825
10275TIP3    H230771   5.671   6.986   0.835
10276TIP3   OH230772   6.189   6.435   0.041
10276TIP3    H130773   6.262   6.397  -0.008
10276TIP3    H230774   6.194   6.393   0.127
10277TIP3   OH230775   2.882   1.910   6.859
10277TIP3    H130776   2.843   1.838   6.908
10277TIP3    H230777   2.899   1.873   6.772
10278TIP3   OH230778   6.166   6.336   0.331
10278TIP3    H130779   6.077   6.369   0.343
10278TIP3    H230780   6.221   6.398   0.379
10279TIP3   OH230781   3.069   2.715   6.366
10279TIP3    H130782   3.000   2.650   6.352
10279TIP3    H230783   3.051   2.750   6.454
10280TIP3   OH230784   6.800   6.958   0.050
10280TIP3    H130785   6.825   7.009  -0.027
10280TIP3    H230786   6.717   6.917   0.025
10281TIP3   OH230787   3.526   2.029   6.227
10281TIP3    H130788   3.433   2.008   6.237
10281TIP3    H230789   3.533   2.120   6.256
10282TIP3   OH230790   6.301   7.043   0.424
10282TIP3    H130791   6.327   7.027   0.515
10282TIP3    H230792   6.263   7.131   0.426
10283TIP3   OH230793   3.596   2.278   6.335
10283TIP3    H130794   3.690   2.284   6.349
10283TIP3    H230795   3.575   2.356   6.284
10284TIP3   OH230796   5.600   6.750   0.099
10284TIP3    H130797   5.635   6.719   0.015
10284TIP3    H230798   5.632   6.686   0.163
10285TIP3   OH230799   3.207   2.865   6.179
10285TIP3    H130800   3.164   2.950   6.185
10285TIP3    H230801   3.160   2.809   6.241
10286TIP3   OH230802   5.480   6.658   0.702
10286TIP3    H130803   5.495   6.660   0.796
10286TIP3    H230804   5.399   6.609   0.690
10287TIP3   OH230805   6.205   6.780   0.729
10287TIP3    H130806   6.141   6.727   0.683
10287TIP3    H230807   6.290   6.748   0.699
10288TIP3   OH230808   6.461   7.299   0.324
10288TIP3    H130809   6.365   7.298   0.332
10288TIP3    H230810   6.490   7.353   0.397
10289TIP3   OH230811   4.033   2.371   6.165
10289TIP3    H130812   3.974   2.324   6.106
10289TIP3    H230813   4.035   2.460   6.130
10290TIP3   OH230814   7.089   7.229   0.305
10290TIP3    H130815   6.993   7.225   0.299
10290TIP3    H230816   7.120   7.201   0.219
10291TIP3   OH230817   3.733   3.185   6.073
10291TIP3    H130818   3.714   3.117   6.138
10291TIP3    H230819   3.753   3.137   5.993
10292TIP3   OH230820   3.734   2.813   6.909
10292TIP3    H130821   3.641   2.792   6.924
10292TIP3    H230822   3.768   2.736   6.864
10293TIP3   OH230823   2.864   3.045   6.664
10293TIP3    H130824   2.862   3.126   6.612
10293TIP3    H230825   2.771   3.026   6.682
10294TIP3   OH230826   2.424   2.351   6.374
10294TIP3    H130827   2.471   2.431   6.395
10294TIP3    H230828   2.349   2.351   6.433
10295TIP3   OH230829   2.995   2.808   6.609
10295TIP3    H130830   2.963   2.896   6.626
10295TIP3    H230831   2.961   2.755   6.681
10296TIP3   OH230832   5.969   7.395   0.192
10296TIP3    H130833   6.006   7.467   0.141
10296TIP3    H230834   6.043   7.357   0.238
10297TIP3   OH230835   2.781   3.285   6.519
10297TIP3    H130836   2.697   3.292   6.564
10297TIP3    H230837   2.817   3.374   6.520
10298TIP3   OH230838   6.351   7.026   0.157
10298TIP3    H130839   6.340   7.025   0.252
10298TIP3    H230840   6.431   6.975   0.142
10299TIP3   OH230841   3.496   2.912   5.982
10299TIP3    H130842   3.554   2.888   6.054
10299TIP3    H230843   3.408   2.888   6.012
10300TIP3   OH230844   6.600   7.559   0.200
10300TIP3    H130845   6.521   7.505   0.195
10300TIP3    H230846   6.589   7.624   0.130
10301TIP3   OH230847   3.832   3.388   5.797
10301TIP3    H130848   3.874   3.457   5.744
10301TIP3    H230849   3.753   3.430   5.832
10302TIP3   OH230850   5.684   6.165   0.712
10302TIP3    H130851   5.589   6.164   0.725
10302TIP3    H230852   5.718   6.109   0.781
10303TIP3   OH230853   3.660   2.841   6.190
10303TIP3    H130854   3.647   2.779   6.263
10303TIP3    H230855   3.755   2.843   6.178
10304TIP3   OH230856   5.405   7.253   0.353
10304TIP3    H130857   5.458   7.181   0.389
10304TIP3    H230858   5.427   7.328   0.408
10305TIP3   OH230859   2.861   2.890   5.979
10305TIP3    H130860   2.873   2.798   5.954
10305TIP3    H230861   2.841   2.886   6.073
10306TIP3   OH230862   2.806   2.902   6.248
10306TIP3    H130863   2.875   2.871   6.308
10306TIP3    H230864   2.806   2.997   6.257
10307TIP3   OH230865   2.538   2.595   6.454
10307TIP3    H130866   2.472   2.635   6.512
10307TIP3    H230867   2.551   2.659   6.384
10308TIP3   OH230868   6.531   6.233   0.404
10308TIP3    H130869   6.607   6.273   0.446
10308TIP3    H230870   6.513   6.155   0.456
10309TIP3   OH230871   3.577   1.977   6.513
10309TIP3    H130872   3.560   1.997   6.421
10309TIP3    H230873   3.615   2.058   6.548
10310TIP3   OH230874   3.070   3.099   6.190
10310TIP3    H130875   2.985   3.115   6.232
10310TIP3    H230876   3.092   3.181   6.147
10311TIP3   OH230877   3.266   2.162   6.616
10311TIP3    H130878   3.325   2.236   6.599
10311TIP3    H230879   3.265   2.155   6.711
10312TIP3   OH230880   6.364   6.483   0.479
10312TIP3    H130881   6.387   6.538   0.554
10312TIP3    H230882   6.416   6.403   0.491
10313TIP3   OH230883   3.406   1.886   6.718
10313TIP3    H130884   3.386   1.965   6.768
10313TIP3    H230885   3.466   1.916   6.649
10314TIP3   OH230886   2.817   3.173   6.269
10314TIP3    H130887   2.789   3.240   6.206
10314TIP3    H230888   2.803   3.213   6.354
10315TIP3   OH230889   2.939   1.893   6.515
10315TIP3    H130890   2.925   1.982   6.548
10315TIP3    H230891   3.035   1.882   6.517
10316TIP3   OH230892   7.000   6.382   0.461
10316TIP3    H130893   6.905   6.384   0.472
10316TIP3    H230894   7.014   6.346   0.374
10317TIP3   OH230895   3.820   2.569   6.789
10317TIP3    H130896   3.743   2.514   6.801
10317TIP3    H230897   3.890   2.524   6.837
10318TIP3   OH230898   2.537   2.797   6.255
10318TIP3    H130899   2.602   2.866   6.267
10318TIP3    H230900   2.576   2.738   6.190
10319TIP3   OH230901   2.478   2.080   6.378
10319TIP3    H130902   2.469   2.175   6.381
10319TIP3    H230903   2.390   2.048   6.358
10320TIP3   OH230904   3.791   3.530   6.734
10320TIP3    H130905   3.746   3.574   6.662
10320TIP3    H230906   3.884   3.547   6.718
10321TIP3   OH230907   5.700   5.801   0.320
10321TIP3    H130908   5.669   5.773   0.234
10321TIP3    H230909   5.689   5.725   0.376
10322TIP3   OH230910   2.399   3.014   6.640
10322TIP3    H130911   2.339   3.042   6.709
10322TIP3    H230912   2.366   3.056   6.561
10323TIP3   OH230913   5.397   7.568   0.781
10323TIP3    H130914   5.482   7.566   0.824
10323TIP3    H230915   5.372   7.476   0.773
10324TIP3   OH230916   5.872   7.526   0.818
10324TIP3    H130917   5.966   7.510   0.828
10324TIP3    H230918   5.844   7.466   0.749
10325TIP3   OH230919   3.019   3.086   5.879
10325TIP3    H130920   2.953   3.029   5.919
10325TIP3    H230921   3.102   3.040   5.891
10326TIP3   OH230922   6.513   7.436   0.557
10326TIP3    H130923   6.506   7.367   0.623
10326TIP3    H230924   6.588   7.489   0.585
10327TIP3   OH230925   3.445   3.121   5.791
10327TIP3    H130926   3.489   3.070   5.859
10327TIP3    H230927   3.511   3.132   5.722
10328TIP3   OH230928   5.531   6.984   0.941
10328TIP3    H130929   5.545   6.893   0.966
10328TIP3    H230930   5.441   6.988   0.910
10329TIP3   OH230931   2.674   2.611   6.112
10329TIP3    H130932   2.723   2.579   6.188
10329TIP3    H230933   2.739   2.618   6.042
10330TIP3   OH230934   6.132   7.060   0.746
10330TIP3    H130935   6.089   7.080   0.663
10330TIP3    H230936   6.160   6.969   0.738
10331TIP3   OH230937   3.183   2.817   5.909
10331TIP3    H130938   3.186   2.833   6.003
10331TIP3    H230939   3.182   2.722   5.901
10332TIP3   OH230940   6.625   7.071   0.358
10332TIP3    H130941   6.701   7.110   0.314
10332TIP3    H230942   6.554   7.133   0.345
10333TIP3   OH230943   5.636   6.706   0.942
10333TIP3    H130944   5.722   6.683   0.906
10333TIP3    H230945   5.636   6.667   1.029
10334TIP3   OH230946   2.876   2.517   6.331
10334TIP3    H130947   2.846   2.481   6.414
10334TIP3    H230948   2.912   2.442   6.283
10335TIP3   OH230949   5.985   6.591   0.623
10335TIP3    H130950   5.905   6.643   0.625
10335TIP3    H230951   6.032   6.622   0.546
10336TIP3   OH230952   2.980   2.315   6.168
10336TIP3    H130953   2.952   2.322   6.077
10336TIP3    H230954   3.075   2.317   6.164
10337TIP3   OH230955   6.499   6.992   0.756
10337TIP3    H130956   6.571   6.959   0.702
10337TIP3    H230957   6.490   6.927   0.826
10338TIP3   OH230958   3.793   2.643   5.837
10338TIP3    H130959   3.779   2.597   5.755
10338TIP3    H230960   3.763   2.732   5.821
10339TIP3   OH230961   6.107   6.378   0.741
10339TIP3    H130962   6.107   6.300   0.686
10339TIP3    H230963   6.065   6.446   0.688
10340TIP3   OH230964   6.104   6.167   0.554
10340TIP3    H130965   6.134   6.209   0.473
10340TIP3    H230966   6.013   6.144   0.536
10341TIP3   OH230967   6.129   6.702   0.427
10341TIP3    H130968   6.214   6.715   0.384
10341TIP3    H230969   6.070   6.763   0.384
10342TIP3   OH230970   6.713   6.666   0.803
10342TIP3    H130971   6.761   6.585   0.819
10342TIP3    H230972   6.778   6.726   0.766
10343TIP3   OH230973   6.755   6.923   0.542
10343TIP3    H130974   6.695   6.974   0.487
10343TIP3    H230975   6.841   6.941   0.506
10344TIP3   OH230976   5.961   6.501   0.948
10344TIP3    H130977   5.899   6.429   0.958
10344TIP3    H230978   6.008   6.482   0.867
10345TIP3   OH230979   6.232   5.928   0.621
10345TIP3    H130980   6.185   6.008   0.597
10345TIP3    H230981   6.168   5.858   0.609
10346TIP3   OH230982   6.366   6.430   0.829
10346TIP3    H130983   6.353   6.423   0.924
10346TIP3    H230984   6.281   6.406   0.791
10347TIP3   OH230985   6.602   6.377   0.691
10347TIP3    H130986   6.527   6.382   0.751
10347TIP3    H230987   6.675   6.349   0.747
10348TIP3   OH230988   6.841   6.322   0.833
10348TIP3    H130989   6.846   6.228   0.849
10348TIP3    H230990   6.831   6.360   0.921
10349TIP3   OH230991   5.809   6.275   0.996
10349TIP3    H130992   5.824   6.184   0.970
10349TIP3    H230993   5.850   6.282   1.083
10350TIP3   OH230994   6.337   5.940   0.871
10350TIP3    H130995   6.395   5.865   0.859
10350TIP3    H230996   6.286   5.945   0.790
10351TIP3   OH230997   6.409   6.159   1.021
10351TIP3    H130998   6.395   6.076   0.975
10351TIP3    H230999   6.323   6.198   1.027
10352TIP3   OH231000   2.788   3.370   6.075
10352TIP3    H131001   2.882   3.364   6.062
10352TIP3    H231002   2.757   3.425   6.003
10353TIP3   OH231003   2.266   2.757   6.289
10353TIP3    H131004   2.359   2.778   6.278
10353TIP3    H231005   2.257   2.669   6.252
10354TIP3   OH231006   2.181   3.364   6.712
10354TIP3    H131007   2.116   3.306   6.672
10354TIP3    H231008   2.226   3.309   6.776
10355TIP3   OH231009   2.317   3.213   6.899
10355TIP3    H131010   2.304   3.143   6.963
10355TIP3    H231011   2.369   3.278   6.945
10356TIP3   OH231012   4.047   3.615   6.699
10356TIP3    H131013   4.075   3.655   6.781
10356TIP3    H231014   4.103   3.655   6.632
10357TIP3   OH231015   6.907   7.642   0.046
10357TIP3    H131016   6.859   7.560   0.033
10357TIP3    H231017   6.985   7.616   0.094
10358TIP3   OH231018   6.949   7.316   0.612
10358TIP3    H131019   6.877   7.326   0.674
10358TIP3    H231020   6.993   7.401   0.612
10359TIP3   OH231021   3.938   2.829   6.170
10359TIP3    H131022   4.001   2.894   6.137
10359TIP3    H231023   3.981   2.791   6.247
10360TIP3   OH231024   4.064   2.694   6.374
10360TIP3    H131025   3.998   2.655   6.431
10360TIP3    H231026   4.128   2.732   6.434
10361TIP3   OH231027   4.123   3.091   6.806
10361TIP3    H131028   4.170   3.023   6.758
10361TIP3    H231029   4.118   3.165   6.746
10362TIP3   OH231030   6.777   7.394   0.060
10362TIP3    H131031   6.707   7.439   0.108
10362TIP3    H231032   6.732   7.350  -0.012
10363TIP3   OH231033   3.997   2.605   6.019
10363TIP3    H131034   3.929   2.605   5.951
10363TIP3    H231035   3.975   2.679   6.075
10364TIP3   OH231036   3.869   2.274   5.974
10364TIP3    H131037   3.829   2.315   5.897
10364TIP3    H231038   3.848   2.181   5.964
10365TIP3   OH231039   3.875   2.555   6.521
10365TIP3    H131040   3.882   2.460   6.511
10365TIP3    H231041   3.860   2.568   6.615
10366TIP3   OH231042   5.336   6.630   0.327
10366TIP3    H131043   5.329   6.598   0.237
10366TIP3    H231044   5.430   6.633   0.344
10367TIP3   OH231045   7.001   6.984   0.438
10367TIP3    H131046   7.070   6.919   0.425
10367TIP3    H231047   7.021   7.053   0.374
10368TIP3   OH231048   7.181   6.782   0.446
10368TIP3    H131049   7.106   6.738   0.486
10368TIP3    H231050   7.255   6.724   0.464
10369TIP3   OH231051   3.816   2.007   5.955
10369TIP3    H131052   3.886   1.978   6.013
10369TIP3    H231053   3.741   1.952   5.977
10370TIP3   OH231054   3.876   2.269   6.410
10370TIP3    H131055   3.914   2.183   6.426
10370TIP3    H231056   3.930   2.306   6.340
10371TIP3   OH231057   4.036   2.439   6.911
10371TIP3    H131058   4.117   2.462   6.867
10371TIP3    H231059   4.044   2.476   6.998
10372TIP3   OH231060   6.938   6.596   0.199
10372TIP3    H131061   6.861   6.627   0.247
10372TIP3    H231062   6.971   6.674   0.154
10373TIP3   OH231063   5.548   6.312   0.939
10373TIP3    H131064   5.643   6.319   0.937
10373TIP3    H231065   5.531   6.244   1.005
10374TIP3   OH231066   7.387   6.186   0.752
10374TIP3    H131067   7.449   6.123   0.716
10374TIP3    H231068   7.357   6.237   0.677
10375TIP3   OH231069   3.982   2.018   6.454
10375TIP3    H131070   4.028   2.002   6.535
10375TIP3    H231071   3.919   1.946   6.447
10376TIP3   OH231072   5.521   6.012   0.333
10376TIP3    H131073   5.579   5.936   0.336
10376TIP3    H231074   5.580   6.087   0.322
10377TIP3   OH231075   5.318   6.283   0.406
10377TIP3    H131076   5.365   6.279   0.322
10377TIP3    H231077   5.336   6.372   0.438
10378TIP3   OH231078   7.252   6.321   0.560
10378TIP3    H131079   7.170   6.367   0.578
10378TIP3    H231080   7.227   6.250   0.501
10379TIP3   OH231081   4.065   1.951   6.086
10379TIP3    H131082   4.103   1.886   6.029
10379TIP3    H231083   4.127   2.024   6.085
10380TIP3   OH231084   2.468   1.801   6.856
10380TIP3    H131085   2.377   1.779   6.874
10380TIP3    H231086   2.466   1.847   6.772
10381TIP3   OH231087   3.629   3.486   6.350
10381TIP3    H131088   3.679   3.476   6.269
10381TIP3    H231089   3.672   3.557   6.398
10382TIP3   OH231090   5.504   5.883   0.720
10382TIP3    H131091   5.415   5.872   0.755
10382TIP3    H231092   5.492   5.938   0.642
10383TIP3   OH231093   5.557   7.300   0.798
10383TIP3    H131094   5.466   7.276   0.777
10383TIP3    H231095   5.570   7.270   0.888
10384TIP3   OH231096   5.743   7.336   0.341
10384TIP3    H131097   5.691   7.407   0.306
10384TIP3    H231098   5.829   7.345   0.299
10385TIP3   OH231099   6.183   7.572   0.483
10385TIP3    H131100   6.221   7.573   0.570
10385TIP3    H231101   6.243   7.623   0.429
10386TIP3   OH231102   6.361   7.726   0.345
10386TIP3    H131103   6.427   7.678   0.295
10386TIP3    H231104   6.412   7.783   0.404
10387TIP3   OH231105   7.157   6.084   0.439
10387TIP3    H131106   7.068   6.081   0.402
10387TIP3    H231107   7.190   5.995   0.429
10388TIP3   OH231108   5.412   7.587   0.370
10388TIP3    H131109   5.326   7.618   0.343
10388TIP3    H231110   5.428   7.628   0.454
10389TIP3   OH231111   5.649   7.567   0.226
10389TIP3    H131112   5.565   7.578   0.270
10389TIP3    H231113   5.634   7.598   0.137
10390TIP3   OH231114   6.075   7.593   0.024
10390TIP3    H131115   6.010   7.607  -0.044
10390TIP3    H231116   6.089   7.679   0.063
10391TIP3   OH231117   6.345   7.532   0.077
10391TIP3    H131118   6.253   7.548   0.059
10391TIP3    H231119   6.391   7.602   0.030
10392TIP3   OH231120   3.719   3.716   6.926
10392TIP3    H131121   3.704   3.800   6.883
10392TIP3    H231122   3.745   3.657   6.855
10393TIP3   OH231123   5.328   7.377   0.113
10393TIP3    H131124   5.352   7.351   0.202
10393TIP3    H231125   5.396   7.337   0.058
10394TIP3   OH231126   2.690   3.245   6.912
10394TIP3    H131127   2.701   3.163   6.961
10394TIP3    H231128   2.778   3.282   6.908
10395TIP3   OH231129   5.789   7.341  -0.022
10395TIP3    H131130   5.817   7.250  -0.034
10395TIP3    H231131   5.835   7.369   0.058
10396TIP3   OH231132   6.369   6.003   0.072
10396TIP3    H131133   6.320   5.935   0.118
10396TIP3    H231134   6.433   5.955   0.019
10397TIP3   OH231135   4.050   1.875   6.902
10397TIP3    H131136   4.087   1.925   6.829
10397TIP3    H231137   3.956   1.893   6.898
10398TIP3   OH231138   4.154   1.966   6.663
10398TIP3    H131139   4.224   1.919   6.618
10398TIP3    H231140   4.179   2.058   6.657
10399TIP3   OH231141   5.608   5.709   0.077
10399TIP3    H131142   5.516   5.683   0.077
10399TIP3    H231143   5.656   5.626   0.069
10400TIP3   OH231144   2.574   1.564   6.653
10400TIP3    H131145   2.575   1.603   6.565
10400TIP3    H231146   2.551   1.636   6.711
10401TIP3   OH231147   3.233   1.729   6.896
10401TIP3    H131148   3.285   1.781   6.835
10401TIP3    H231149   3.237   1.778   6.978
10402TIP3   OH231150   3.769   1.881   6.878
10402TIP3    H131151   3.760   1.845   6.790
10402TIP3    H231152   3.757   1.806   6.936
10403TIP3   OH231153   3.795   1.808   6.446
10403TIP3    H131154   3.713   1.854   6.461
10403TIP3    H231155   3.783   1.722   6.486
10404TIP3   OH231156   2.280   3.149   6.440
10404TIP3    H131157   2.197   3.113   6.409
10404TIP3    H231158   2.274   3.243   6.421
10405TIP3   OH231159   3.211   1.914   6.523
10405TIP3    H131160   3.258   1.862   6.587
10405TIP3    H231161   3.229   2.005   6.548
10406TIP3   OH231162   3.055   3.326   6.023
10406TIP3    H131163   3.141   3.353   5.992
10406TIP3    H231164   3.029   3.256   5.963
10407TIP3   OH231165   3.771   3.451   6.117
10407TIP3    H131166   3.763   3.356   6.107
10407TIP3    H231167   3.727   3.487   6.040
10408TIP3   OH231168   5.860   6.016   0.938
10408TIP3    H131169   5.850   5.946   1.003
10408TIP3    H231170   5.952   6.012   0.912
10409TIP3   OH231171   2.358   3.167   6.081
10409TIP3    H131172   2.360   3.189   6.174
10409TIP3    H231173   2.442   3.125   6.064
10410TIP3   OH231174   6.898   6.053   0.857
10410TIP3    H131175   6.923   6.035   0.948
10410TIP3    H231176   6.980   6.055   0.809
10411TIP3   OH231177   6.825   7.601   0.369
10411TIP3    H131178   6.753   7.567   0.316
10411TIP3    H231179   6.811   7.696   0.372
10412TIP3   OH231180   5.262   2.969   6.069
10412TIP3    H131181   5.237   3.059   6.051
10412TIP3    H231182   5.189   2.917   6.036
10413TIP3   OH231183   5.263   2.969   6.457
10413TIP3    H131184   5.298   2.947   6.543
10413TIP3    H231185   5.223   2.887   6.426
10414TIP3   OH231186   4.564   2.862   6.822
10414TIP3    H131187   4.593   2.794   6.883
10414TIP3    H231188   4.643   2.913   6.802
10415TIP3   OH231189   5.509   3.272   6.140
10415TIP3    H131190   5.498   3.205   6.207
10415TIP3    H231191   5.543   3.348   6.188
10416TIP3   OH231192   4.540   3.271   6.543
10416TIP3    H131193   4.528   3.176   6.544
10416TIP3    H231194   4.634   3.284   6.530
10417TIP3   OH231195   4.238   2.470   6.324
10417TIP3    H131196   4.198   2.555   6.345
10417TIP3    H231197   4.169   2.423   6.277
10418TIP3   OH231198   4.301   2.761   6.503
10418TIP3    H131199   4.350   2.686   6.535
10418TIP3    H231200   4.359   2.803   6.440
10419TIP3   OH231201   5.161   3.731   6.152
10419TIP3    H131202   5.202   3.662   6.100
10419TIP3    H231203   5.151   3.692   6.239
10420TIP3   OH231204   5.065   3.193   6.503
10420TIP3    H131205   5.102   3.118   6.457
10420TIP3    H231206   5.142   3.244   6.530
10421TIP3   OH231207   6.080   2.513   6.501
10421TIP3    H131208   6.103   2.593   6.549
10421TIP3    H231209   6.100   2.533   6.410
10422TIP3   OH231210   5.473   2.691   6.531
10422TIP3    H131211   5.517   2.609   6.553
10422TIP3    H231212   5.442   2.678   6.441
10423TIP3   OH231213   4.814   2.354   6.496
10423TIP3    H131214   4.800   2.432   6.441
10423TIP3    H231215   4.768   2.284   6.451
10424TIP3   OH231216   5.514   2.448   6.119
10424TIP3    H131217   5.581   2.434   6.186
10424TIP3    H231218   5.562   2.483   6.044
10425TIP3   OH231219   4.448   2.554   6.606
10425TIP3    H131220   4.530   2.542   6.655
10425TIP3    H231221   4.460   2.503   6.527
10426TIP3   OH231222   4.889   2.754   6.406
10426TIP3    H131223   4.982   2.732   6.414
10426TIP3    H231224   4.848   2.674   6.373
10427TIP3   OH231225   6.141   2.721   6.680
10427TIP3    H131226   6.074   2.781   6.647
10427TIP3    H231227   6.190   2.773   6.744
10428TIP3   OH231228   4.806   2.340   6.934
10428TIP3    H131229   4.753   2.379   6.864
10428TIP3    H231230   4.757   2.358   7.014
10429TIP3   OH231231   5.150   3.189   5.938
10429TIP3    H131232   5.114   3.177   5.851
10429TIP3    H231233   5.110   3.271   5.970
10430TIP3   OH231234   4.916   3.116   6.724
10430TIP3    H131235   4.857   3.183   6.760
10430TIP3    H231236   4.961   3.160   6.652
10431TIP3   OH231237   5.717   2.454   6.299
10431TIP3    H131238   5.697   2.412   6.384
10431TIP3    H231239   5.768   2.531   6.322
10432TIP3   OH231240   4.686   2.455   6.715
10432TIP3    H131241   4.743   2.528   6.741
10432TIP3    H231242   4.731   2.414   6.641
10433TIP3   OH231243   4.744   3.314   6.826
10433TIP3    H131244   4.724   3.398   6.785
10433TIP3    H231245   4.668   3.295   6.881
10434TIP3   OH231246   4.135   3.001   6.060
10434TIP3    H131247   4.097   3.027   5.976
10434TIP3    H231248   4.167   3.083   6.098
10435TIP3   OH231249   5.573   3.519   6.299
10435TIP3    H131250   5.486   3.508   6.338
10435TIP3    H231251   5.569   3.604   6.255
10436TIP3   OH231252   5.870   2.405   6.659
10436TIP3    H131253   5.785   2.440   6.632
10436TIP3    H231254   5.933   2.442   6.597
10437TIP3   OH231255   5.159   2.053   6.646
10437TIP3    H131256   5.149   1.960   6.664
10437TIP3    H231257   5.088   2.095   6.694
10438TIP3   OH231258   5.279   3.558   5.969
10438TIP3    H131259   5.325   3.476   5.953
10438TIP3    H231260   5.338   3.625   5.934
10439TIP3   OH231261   5.421   3.341   5.887
10439TIP3    H131262   5.384   3.263   5.848
10439TIP3    H231263   5.459   3.311   5.970
10440TIP3   OH231264   5.805   3.424   6.646
10440TIP3    H131265   5.793   3.347   6.591
10440TIP3    H231266   5.788   3.498   6.588
10441TIP3   OH231267   5.095   2.821   5.902
10441TIP3    H131268   5.016   2.874   5.886
10441TIP3    H231269   5.141   2.820   5.819
10442TIP3   OH231270   5.056   2.608   5.615
10442TIP3    H131271   5.118   2.661   5.665
10442TIP3    H231272   5.111   2.546   5.567
10443TIP3   OH231273   5.443   2.902   5.876
10443TIP3    H131274   5.389   2.927   5.950
10443TIP3    H231275   5.528   2.880   5.915
10444TIP3   OH231276   5.675   2.941   6.792
10444TIP3    H131277   5.678   3.023   6.840
10444TIP3    H231278   5.593   2.946   6.743
10445TIP3   OH231279   4.675   2.899   6.293
10445TIP3    H131280   4.633   2.844   6.227
10445TIP3    H231281   4.751   2.848   6.322
10446TIP3   OH231282   4.803   3.304   6.440
10446TIP3    H131283   4.785   3.278   6.350
10446TIP3    H231284   4.891   3.271   6.457
10447TIP3   OH231285   4.808   2.874   6.646
10447TIP3    H131286   4.840   2.847   6.560
10447TIP3    H231287   4.852   2.957   6.663
10448TIP3   OH231288   5.334   3.510   6.424
10448TIP3    H131289   5.323   3.590   6.476
10448TIP3    H231290   5.319   3.439   6.486
10449TIP3   OH231291   7.782   7.434   0.032
10449TIP3    H131292   7.724   7.496   0.076
10449TIP3    H231293   7.723   7.380  -0.021
10450TIP3   OH231294   5.284   2.762   5.699
10450TIP3    H131295   5.340   2.821   5.750
10450TIP3    H231296   5.308   2.780   5.608
10451TIP3   OH231297   7.539   6.986   0.143
10451TIP3    H131298   7.546   7.075   0.175
10451TIP3    H231299   7.445   6.967   0.145
10452TIP3   OH231300   5.029   3.439   5.977
10452TIP3    H131301   5.111   3.488   5.984
10452TIP3    H231302   4.969   3.500   5.934
10453TIP3   OH231303   7.573   7.599   0.117
10453TIP3    H131304   7.544   7.603   0.026
10453TIP3    H231305   7.492   7.584   0.167
10454TIP3   OH231306   5.797   2.001   5.750
10454TIP3    H131307   5.717   2.022   5.799
10454TIP3    H231308   5.816   2.081   5.700
10455TIP3   OH231309   4.537   2.745   6.100
10455TIP3    H131310   4.473   2.790   6.045
10455TIP3    H231311   4.510   2.654   6.099
10456TIP3   OH231312   5.601   3.368   5.297
10456TIP3    H131313   5.605   3.463   5.283
10456TIP3    H231314   5.691   3.338   5.286
10457TIP3   OH231315   7.155   7.135   0.063
10457TIP3    H131316   7.089   7.118  -0.004
10457TIP3    H231317   7.193   7.049   0.081
10458TIP3   OH231318   4.177   3.320   6.641
10458TIP3    H131319   4.272   3.317   6.625
10458TIP3    H231320   4.163   3.400   6.690
10459TIP3   OH231321   6.039   3.774   6.693
10459TIP3    H131322   6.043   3.679   6.703
10459TIP3    H231323   5.958   3.799   6.737
10460TIP3   OH231324   5.146   3.557   6.831
10460TIP3    H131325   5.144   3.648   6.859
10460TIP3    H231326   5.077   3.514   6.881
10461TIP3   OH231327   4.911   3.685   5.780
10461TIP3    H131328   4.866   3.668   5.697
10461TIP3    H231329   4.879   3.771   5.808
10462TIP3   OH231330   4.347   3.531   6.167
10462TIP3    H131331   4.395   3.527   6.249
10462TIP3    H231332   4.288   3.455   6.170
10463TIP3   OH231333   5.111   3.586   5.418
10463TIP3    H131334   5.167   3.519   5.381
10463TIP3    H231335   5.144   3.599   5.506
10464TIP3   OH231336   5.161   3.636   5.688
10464TIP3    H131337   5.074   3.646   5.727
10464TIP3    H231338   5.215   3.601   5.759
10465TIP3   OH231339   5.931   2.898   6.958
10465TIP3    H131340   5.850   2.912   6.908
10465TIP3    H231341   5.946   2.803   6.954
10466TIP3   OH231342   7.361   7.317   0.052
10466TIP3    H131343   7.410   7.298   0.132
10466TIP3    H231344   7.286   7.258   0.056
10467TIP3   OH231345   4.925   2.134   6.780
10467TIP3    H131346   4.840   2.103   6.751
10467TIP3    H231347   4.907   2.216   6.826
10468TIP3   OH231348   8.297   6.253   0.033
10468TIP3    H131349   8.366   6.226   0.094
10468TIP3    H231350   8.215   6.235   0.079
10469TIP3   OH231351   5.693   2.675   6.885
10469TIP3    H131352   5.648   2.674   6.969
10469TIP3    H231353   5.676   2.763   6.850
10470TIP3   OH231354   5.360   2.800   5.442
10470TIP3    H131355   5.324   2.779   5.355
10470TIP3    H231356   5.440   2.848   5.423
10471TIP3   OH231357   5.057   2.183   5.734
10471TIP3    H131358   5.039   2.188   5.828
10471TIP3    H231359   5.041   2.091   5.712
10472TIP3   OH231360   4.857   2.652   6.794
10472TIP3    H131361   4.810   2.671   6.876
10472TIP3    H231362   4.844   2.731   6.741
10473TIP3   OH231363   4.741   2.540   6.316
10473TIP3    H131364   4.649   2.516   6.331
10473TIP3    H231365   4.758   2.513   6.226
10474TIP3   OH231366   5.234   2.623   6.037
10474TIP3    H131367   5.183   2.693   5.996
10474TIP3    H231368   5.288   2.588   5.966
10475TIP3   OH231369   8.243   6.901   0.183
10475TIP3    H131370   8.220   6.830   0.243
10475TIP3    H231371   8.335   6.919   0.200
10476TIP3   OH231372   5.385   2.645   6.272
10476TIP3    H131373   5.325   2.679   6.206
10476TIP3    H231374   5.423   2.567   6.232
10477TIP3   OH231375   7.513   6.685   0.064
10477TIP3    H131376   7.541   6.752   0.127
10477TIP3    H231377   7.501   6.606   0.117
10478TIP3   OH231378   4.271   2.195   6.594
10478TIP3    H131379   4.343   2.236   6.642
10478TIP3    H231380   4.302   2.189   6.504
10479TIP3   OH231381   4.238   2.181   6.108
10479TIP3    H131382   4.276   2.215   6.027
10479TIP3    H231383   4.175   2.248   6.135
10480TIP3   OH231384   5.392   2.888   6.696
10480TIP3    H131385   5.429   2.823   6.637
10480TIP3    H231386   5.365   2.838   6.773
10481TIP3   OH231387   5.075   2.352   6.375
10481TIP3    H131388   4.994   2.354   6.425
10481TIP3    H231389   5.144   2.355   6.440
10482TIP3   OH231390   4.500   2.413   6.379
10482TIP3    H131391   4.409   2.422   6.349
10482TIP3    H231392   4.528   2.327   6.347
10483TIP3   OH231393   4.771   2.440   6.069
10483TIP3    H131394   4.862   2.427   6.043
10483TIP3    H231395   4.721   2.429   5.988
10484TIP3   OH231396   5.558   2.431   6.573
10484TIP3    H131397   5.530   2.447   6.664
10484TIP3    H231398   5.492   2.372   6.538
10485TIP3   OH231399   4.613   2.438   5.838
10485TIP3    H131400   4.545   2.396   5.785
10485TIP3    H231401   4.670   2.480   5.773
10486TIP3   OH231402   5.736   4.123   6.791
10486TIP3    H131403   5.730   4.145   6.698
10486TIP3    H231404   5.813   4.171   6.822
10487TIP3   OH231405   7.523   7.237   0.275
10487TIP3    H131406   7.603   7.268   0.317
10487TIP3    H231407   7.458   7.235   0.346
10488TIP3   OH231408   5.154   2.682   6.464
10488TIP3    H131409   5.229   2.652   6.413
10488TIP3    H231410   5.166   2.640   6.550
10489TIP3   OH231411   4.673   2.177   6.341
10489TIP3    H131412   4.651   2.092   6.379
10489TIP3    H231413   4.724   2.155   6.262
10490TIP3   OH231414   5.128   2.582   6.764
10490TIP3    H131415   5.040   2.621   6.772
10490TIP3    H231416   5.185   2.644   6.809
10491TIP3   OH231417   4.863   2.970   5.854
10491TIP3    H131418   4.793   2.907   5.839
10491TIP3    H231419   4.845   3.006   5.941
10492TIP3   OH231420   5.758   3.211   6.488
10492TIP3    H131421   5.801   3.249   6.411
10492TIP3    H231422   5.681   3.166   6.452
10493TIP3   OH231423   5.317   2.282   5.722
10493TIP3    H131424   5.222   2.270   5.723
10493TIP3    H231425   5.329   2.374   5.744
10494TIP3   OH231426   5.257   3.288   6.853
10494TIP3    H131427   5.300   3.280   6.938
10494TIP3    H231428   5.226   3.379   6.851
10495TIP3   OH231429   5.392   2.533   5.819
10495TIP3    H131430   5.486   2.540   5.835
10495TIP3    H231431   5.371   2.612   5.769
10496TIP3   OH231432   4.558   2.992   6.525
10496TIP3    H131433   4.593   2.970   6.439
10496TIP3    H231434   4.608   2.938   6.586
10497TIP3   OH231435   5.009   3.123   5.677
10497TIP3    H131436   4.963   3.207   5.677
10497TIP3    H231437   4.957   3.068   5.736
10498TIP3   OH231438   7.272   6.919   0.202
10498TIP3    H131439   7.287   6.905   0.295
10498TIP3    H231440   7.202   6.858   0.179
10499TIP3   OH231441   8.002   7.034   0.222
10499TIP3    H131442   7.940   6.982   0.170
10499TIP3    H231443   8.088   7.004   0.195
10500TIP3   OH231444   5.422   3.547   6.754
10500TIP3    H131445   5.326   3.550   6.760
10500TIP3    H231446   5.452   3.603   6.825
10501TIP3   OH231447   5.829   2.628   5.651
10501TIP3    H131448   5.770   2.581   5.591
10501TIP3    H231449   5.830   2.718   5.617
10502TIP3   OH231450   6.056   3.489   6.726
10502TIP3    H131451   5.961   3.479   6.724
10502TIP3    H231452   6.086   3.450   6.644
10503TIP3   OH231453   5.537   3.442   5.563
10503TIP3    H131454   5.508   3.374   5.624
10503TIP3    H231455   5.549   3.396   5.480
10504TIP3   OH231456   5.526   3.070   6.391
10504TIP3    H131457   5.434   3.048   6.405
10504TIP3    H231458   5.563   2.992   6.349
10505TIP3   OH231459   4.661   3.304   6.155
10505TIP3    H131460   4.662   3.383   6.100
10505TIP3    H231461   4.568   3.284   6.165
10506TIP3   OH231462   4.224   2.604   5.859
10506TIP3    H131463   4.270   2.687   5.876
10506TIP3    H231464   4.148   2.606   5.917
10507TIP3   OH231465   4.789   3.064   6.096
10507TIP3    H131466   4.760   3.153   6.112
10507TIP3    H231467   4.755   3.014   6.170
10508TIP3   OH231468   4.933   3.643   6.620
10508TIP3    H131469   4.968   3.716   6.569
10508TIP3    H231470   5.008   3.606   6.665
10509TIP3   OH231471   4.579   3.538   6.007
10509TIP3    H131472   4.494   3.547   6.050
10509TIP3    H231473   4.616   3.627   6.007
10510TIP3   OH231474   5.314   3.276   6.584
10510TIP3    H131475   5.304   3.272   6.679
10510TIP3    H231476   5.396   3.229   6.566
10511TIP3   OH231477   5.294   3.169   5.467
10511TIP3    H131478   5.347   3.145   5.542
10511TIP3    H231479   5.205   3.146   5.492
10512TIP3   OH231480   5.561   3.810   6.628
10512TIP3    H131481   5.482   3.756   6.621
10512TIP3    H231482   5.552   3.875   6.559
10513TIP3   OH231483   5.628   3.645   5.282
10513TIP3    H131484   5.665   3.714   5.226
10513TIP3    H231485   5.550   3.685   5.320
10514TIP3   OH231486   7.479   6.427   0.209
10514TIP3    H131487   7.384   6.431   0.217
10514TIP3    H231488   7.507   6.369   0.279
10515TIP3   OH231489   5.456   3.100   5.680
10515TIP3    H131490   5.444   3.036   5.751
10515TIP3    H231491   5.551   3.101   5.666
10516TIP3   OH231492   4.368   3.504   6.780
10516TIP3    H131493   4.422   3.433   6.814
10516TIP3    H231494   4.397   3.581   6.829
10517TIP3   OH231495   4.658   3.147   5.465
10517TIP3    H131496   4.670   3.057   5.438
10517TIP3    H231497   4.636   3.142   5.558
10518TIP3   OH231498   4.601   3.157   5.737
10518TIP3    H131499   4.676   3.131   5.791
10518TIP3    H231500   4.601   3.253   5.741
10519TIP3   OH231501   4.332   2.849   5.940
10519TIP3    H131502   4.268   2.892   5.997
10519TIP3    H231503   4.349   2.914   5.871
10520TIP3   OH231504   5.489   2.484   6.833
10520TIP3    H131505   5.569   2.526   6.865
10520TIP3    H231506   5.480   2.406   6.887
10521TIP3   OH231507   5.374   2.232   6.001
10521TIP3    H131508   5.355   2.252   5.910
10521TIP3    H231509   5.411   2.313   6.037
10522TIP3   OH231510   4.866   3.353   5.684
10522TIP3    H131511   4.781   3.374   5.721
10522TIP3    H231512   4.887   3.427   5.626
10523TIP3   OH231513   5.061   2.421   6.106
10523TIP3    H131514   5.119   2.494   6.087
10523TIP3    H231515   5.063   2.414   6.201
10524TIP3   OH231516   5.326   2.730   6.907
10524TIP3    H131517   5.352   2.784   6.982
10524TIP3    H231518   5.380   2.652   6.914
10525TIP3   OH231519   5.201   2.139   6.205
10525TIP3    H131520   5.184   2.216   6.259
10525TIP3    H231521   5.261   2.169   6.137
10526TIP3   OH231522   4.612   3.429   5.754
10526TIP3    H131523   4.585   3.495   5.691
10526TIP3    H231524   4.598   3.469   5.840
10527TIP3   OH231525   5.962   2.630   6.899
10527TIP3    H131526   5.867   2.622   6.891
10527TIP3    H231527   5.994   2.625   6.809
10528TIP3   OH231528   5.616   2.825   6.276
10528TIP3    H131529   5.541   2.767   6.289
10528TIP3    H231530   5.688   2.782   6.323
10529TIP3   OH231531   4.332   3.053   5.742
10529TIP3    H131532   4.396   3.124   5.754
10529TIP3    H231533   4.372   2.996   5.677
10530TIP3   OH231534   4.265   2.332   5.887
10530TIP3    H131535   4.279   2.427   5.882
10530TIP3    H231536   4.196   2.315   5.823
10531TIP3   OH231537   5.587   3.789   6.221
10531TIP3    H131538   5.542   3.833   6.149
10531TIP3    H231539   5.680   3.804   6.204
10532TIP3   OH231540   4.663   2.051   6.749
10532TIP3    H131541   4.628   2.018   6.665
10532TIP3    H231542   4.655   1.976   6.808
10533TIP3   OH231543   4.191   3.264   6.127
10533TIP3    H131544   4.133   3.298   6.194
10533TIP3    H231545   4.164   3.309   6.046
10534TIP3   OH231546   7.655   7.804   0.291
10534TIP3    H131547   7.747   7.791   0.311
10534TIP3    H231548   7.632   7.732   0.232
10535TIP3   OH231549   4.819   3.350   5.372
10535TIP3    H131550   4.765   3.282   5.411
10535TIP3    H231551   4.895   3.303   5.338
10536TIP3   OH231552   8.308   7.693   0.046
10536TIP3    H131553   8.302   7.624   0.111
10536TIP3    H231554   8.384   7.745   0.071
10537TIP3   OH231555   5.255   3.390   5.287
10537TIP3    H131556   5.299   3.330   5.346
10537TIP3    H231557   5.309   3.390   5.208
10538TIP3   OH231558   7.318   7.227   0.463
10538TIP3    H131559   7.335   7.134   0.471
10538TIP3    H231560   7.234   7.233   0.417
10539TIP3   OH231561   4.468   2.867   5.599
10539TIP3    H131562   4.522   2.839   5.674
10539TIP3    H231563   4.530   2.873   5.527
10540TIP3   OH231564   7.924   7.313   0.237
10540TIP3    H131565   7.888   7.337   0.152
10540TIP3    H231566   7.958   7.224   0.225
10541TIP3   OH231567   4.982   3.067   5.408
10541TIP3    H131568   4.982   3.083   5.502
10541TIP3    H231569   4.979   2.972   5.399
10542TIP3   OH231570   5.588   3.323   6.786
10542TIP3    H131571   5.665   3.354   6.740
10542TIP3    H231572   5.521   3.390   6.770
10543TIP3   OH231573   7.442   6.964   0.452
10543TIP3    H131574   7.521   6.929   0.410
10543TIP3    H231575   7.472   6.998   0.536
10544TIP3   OH231576   4.670   2.772   5.817
10544TIP3    H131577   4.649   2.733   5.901
10544TIP3    H231578   4.709   2.701   5.766
10545TIP3   OH231579   7.775   6.845   0.104
10545TIP3    H131580   7.699   6.903   0.108
10545TIP3    H231581   7.827   6.878   0.031
10546TIP3   OH231582   4.777   2.569   5.657
10546TIP3    H131583   4.748   2.579   5.566
10546TIP3    H231584   4.872   2.574   5.652
10547TIP3   OH231585   8.293   7.246   0.240
10547TIP3    H131586   8.368   7.220   0.187
10547TIP3    H231587   8.290   7.181   0.311
10548TIP3   OH231588   5.592   2.898   5.324
10548TIP3    H131589   5.574   2.852   5.241
10548TIP3    H231590   5.563   2.988   5.309
10549TIP3   OH231591   7.898   6.636   0.232
10549TIP3    H131592   7.901   6.558   0.176
10549TIP3    H231593   7.857   6.703   0.177
10550TIP3   OH231594   7.900   6.421   0.042
10550TIP3    H131595   7.932   6.465  -0.037
10550TIP3    H231596   7.809   6.400   0.023
10551TIP3   OH231597   5.092   2.951   6.855
10551TIP3    H131598   5.178   2.963   6.815
10551TIP3    H231599   5.036   3.014   6.810
10552TIP3   OH231600   0.012   6.923   0.290
10552TIP3    H131601   0.059   6.840   0.298
10552TIP3    H231602   0.076   6.984   0.253
10553TIP3   OH231603   5.721   3.173   6.967
10553TIP3    H131604   5.663   3.226   6.912
10553TIP3    H231605   5.809   3.188   6.932
10554TIP3   OH231606   7.776   6.740   0.466
10554TIP3    H131607   7.710   6.672   0.479
10554TIP3    H231608   7.810   6.724   0.379
10555TIP3   OH231609   8.031   6.184   0.110
10555TIP3    H131610   7.985   6.265   0.087
10555TIP3    H231611   7.966   6.115   0.099
10556TIP3   OH231612   8.158   6.684   0.326
10556TIP3    H131613   8.148   6.671   0.420
10556TIP3    H231614   8.071   6.663   0.290
10557TIP3   OH231615   8.400   6.639   0.181
10557TIP3    H131616   8.326   6.640   0.241
10557TIP3    H231617   8.474   6.610   0.234
10558TIP3   OH231618   0.126   6.579   0.332
10558TIP3    H131619   0.139   6.485   0.345
10558TIP3    H231620   0.123   6.616   0.421
10559TIP3   OH231621   7.617   6.518   0.522
10559TIP3    H131622   7.621   6.431   0.483
10559TIP3    H231623   7.658   6.508   0.608
10560TIP3   OH231624   8.125   6.191   0.368
10560TIP3    H131625   8.192   6.123   0.364
10560TIP3    H231626   8.086   6.190   0.281
10561TIP3   OH231627   8.191   6.407   0.527
10561TIP3    H131628   8.173   6.337   0.464
10561TIP3    H231629   8.116   6.466   0.519
10562TIP3   OH231630   4.584   3.626   5.562
10562TIP3    H131631   4.679   3.620   5.547
10562TIP3    H231632   4.552   3.680   5.490
10563TIP3   OH231633   4.063   3.011   5.780
10563TIP3    H131634   4.155   3.035   5.767
10563TIP3    H231635   4.055   2.925   5.739
10564TIP3   OH231636   3.978   3.618   6.195
10564TIP3    H131637   3.912   3.561   6.156
10564TIP3    H231638   4.023   3.561   6.259
10565TIP3   OH231639   4.116   3.466   6.382
10565TIP3    H131640   4.098   3.400   6.448
10565TIP3    H231641   4.167   3.533   6.428
10566TIP3   OH231642   5.842   3.874   6.184
10566TIP3    H131643   5.867   3.908   6.271
10566TIP3    H231644   5.903   3.917   6.124
10567TIP3   OH231645   5.867   3.892   6.468
10567TIP3    H131646   5.821   3.809   6.459
10567TIP3    H231647   5.944   3.872   6.522
10568TIP3   OH231648   0.249   7.579   0.101
10568TIP3    H131649   0.177   7.588   0.164
10568TIP3    H231650   0.291   7.665   0.101
10569TIP3   OH231651   5.735   3.083   5.657
10569TIP3    H131652   5.796   3.150   5.625
10569TIP3    H231653   5.777   3.047   5.735
10570TIP3   OH231654   5.860   2.950   5.861
10570TIP3    H131655   5.794   2.912   5.919
10570TIP3    H231656   5.925   2.988   5.920
10571TIP3   OH231657   5.915   3.344   6.299
10571TIP3    H131658   5.972   3.277   6.261
10571TIP3    H231659   5.908   3.410   6.230
10572TIP3   OH231660   5.741   3.644   6.486
10572TIP3    H131661   5.670   3.685   6.535
10572TIP3    H231662   5.698   3.597   6.414
10573TIP3   OH231663   5.794   2.862   5.506
10573TIP3    H131664   5.726   2.862   5.438
10573TIP3    H231665   5.771   2.936   5.562
10574TIP3   OH231666   5.668   2.530   5.457
10574TIP3    H131667   5.621   2.573   5.385
10574TIP3    H231668   5.646   2.437   5.448
10575TIP3   OH231669   5.670   2.811   6.007
10575TIP3    H131670   5.680   2.716   6.000
10575TIP3    H231671   5.657   2.826   6.101
10576TIP3   OH231672   4.300   2.876   6.755
10576TIP3    H131673   4.294   2.847   6.664
10576TIP3    H231674   4.394   2.882   6.772
10577TIP3   OH231675   5.970   3.228   6.859
10577TIP3    H131676   6.046   3.170   6.855
10577TIP3    H231677   5.980   3.287   6.785
10578TIP3   OH231678   6.159   3.044   6.961
10578TIP3    H131679   6.077   2.994   6.960
10578TIP3    H231680   6.215   2.998   6.897
10579TIP3   OH231681   5.612   2.263   5.441
10579TIP3    H131682   5.682   2.235   5.499
10579TIP3    H231683   5.537   2.208   5.464
10580TIP3   OH231684   5.671   2.525   5.897
10580TIP3    H131685   5.710   2.438   5.913
10580TIP3    H231686   5.725   2.563   5.828
10581TIP3   OH231687   5.834   2.699   6.398
10581TIP3    H131688   5.914   2.724   6.352
10581TIP3    H231689   5.842   2.741   6.484
10582TIP3   OH231690   5.896   2.863   6.621
10582TIP3    H131691   5.817   2.885   6.671
10582TIP3    H231692   5.931   2.948   6.593
10583TIP3   OH231693   7.351   6.573   0.493
10583TIP3    H131694   7.447   6.569   0.491
10583TIP3    H231695   7.324   6.488   0.527
10584TIP3   OH231696   0.688   6.445   0.242
10584TIP3    H131697   0.746   6.380   0.201
10584TIP3    H231698   0.652   6.495   0.169
10585TIP3   OH231699   5.779   2.275   5.939
10585TIP3    H131700   5.827   2.262   6.020
10585TIP3    H231701   5.717   2.202   5.935
10586TIP3   OH231702   4.483   2.264   6.758
10586TIP3    H131703   4.544   2.192   6.773
10586TIP3    H231704   4.539   2.342   6.749
10587TIP3   OH231705   4.280   2.534   6.831
10587TIP3    H131706   4.328   2.531   6.748
10587TIP3    H231707   4.299   2.621   6.866
10588TIP3   OH231708   0.546   6.575   0.051
10588TIP3    H131709   0.464   6.623   0.065
10588TIP3    H231710   0.523   6.504  -0.009
10589TIP3   OH231711   5.857   2.208   5.573
10589TIP3    H131712   5.895   2.140   5.518
10589TIP3    H231713   5.920   2.280   5.571
10590TIP3   OH231714   4.274   2.043   6.341
10590TIP3    H131715   4.183   2.029   6.366
10590TIP3    H231716   4.269   2.092   6.258
10591TIP3   OH231717   5.426   3.743   5.838
10591TIP3    H131718   5.474   3.732   5.756
10591TIP3    H231719   5.473   3.811   5.886
10592TIP3   OH231720   7.314   6.124   0.205
10592TIP3    H131721   7.266   6.120   0.287
10592TIP3    H231722   7.253   6.164   0.143
10593TIP3   OH231723   7.347   7.567   0.289
10593TIP3    H131724   7.254   7.557   0.269
10593TIP3    H231725   7.360   7.515   0.369
10594TIP3   OH231726   4.706   3.586   6.768
10594TIP3    H131727   4.655   3.658   6.732
10594TIP3    H231728   4.792   3.594   6.726
10595TIP3   OH231729   5.143   3.825   6.909
10595TIP3    H131730   5.183   3.823   6.996
10595TIP3    H231731   5.205   3.875   6.855
10596TIP3   OH231732   5.325   3.977   6.772
10596TIP3    H131733   5.391   3.928   6.723
10596TIP3    H231734   5.374   4.033   6.831
10597TIP3   OH231735   6.120   2.334   6.866
10597TIP3    H131736   6.032   2.334   6.829
10597TIP3    H231737   6.151   2.244   6.855
10598TIP3   OH231738   4.375   3.836   6.798
10598TIP3    H131739   4.288   3.861   6.767
10598TIP3    H231740   4.392   3.893   6.873
10599TIP3   OH231741   4.612   3.815   6.652
10599TIP3    H131742   4.527   3.826   6.695
10599TIP3    H231743   4.599   3.849   6.563
10600TIP3   OH231744   5.038   3.842   6.453
10600TIP3    H131745   4.971   3.856   6.386
10600TIP3    H231746   5.052   3.929   6.491
10601TIP3   OH231747   5.308   3.782   6.506
10601TIP3    H131748   5.216   3.798   6.487
10601TIP3    H231749   5.355   3.851   6.459
10602TIP3   OH231750   5.514   3.972   6.413
10602TIP3    H131751   5.500   4.055   6.369
10602TIP3    H231752   5.541   3.912   6.343
10603TIP3   OH231753   4.288   3.624   6.538
10603TIP3    H131754   4.311   3.601   6.628
10603TIP3    H231755   4.359   3.589   6.484
10604TIP3   OH231756   4.486   3.501   6.400
10604TIP3    H131757   4.500   3.420   6.448
10604TIP3    H231758   4.573   3.540   6.394
10605TIP3   OH231759   4.751   3.591   6.405
10605TIP3    H131760   4.782   3.502   6.390
10605TIP3    H231761   4.796   3.619   6.485
10606TIP3   OH231762   5.331   2.254   6.494
10606TIP3    H131763   5.285   2.183   6.539
10606TIP3    H231764   5.401   2.210   6.445
10607TIP3   OH231765   5.844   2.129   6.388
10607TIP3    H131766   5.882   2.181   6.317
10607TIP3    H231767   5.751   2.152   6.387
10608TIP3   OH231768   5.945   2.229   6.153
10608TIP3    H131769   6.016   2.177   6.116
10608TIP3    H231770   5.973   2.320   6.142
10609TIP3   OH231771   4.566   1.925   6.438
10609TIP3    H131772   4.480   1.924   6.481
10609TIP3    H231773   4.617   1.860   6.486
10610TIP3   OH231774   5.022   1.991   6.392
10610TIP3    H131775   5.071   2.031   6.321
10610TIP3    H231776   5.057   2.031   6.472
10611TIP3   OH231777   5.559   2.138   6.367
10611TIP3    H131778   5.559   2.104   6.278
10611TIP3    H231779   5.548   2.061   6.423
10612TIP3   OH231780   5.592   2.064   5.931
10612TIP3    H131781   5.511   2.113   5.948
10612TIP3    H231782   5.578   1.979   5.973
10613TIP3   OH231783   4.074   3.407   5.929
10613TIP3    H131784   3.991   3.374   5.898
10613TIP3    H231785   4.073   3.501   5.908
10614TIP3   OH231786   4.468   2.009   5.892
10614TIP3    H131787   4.535   1.944   5.913
10614TIP3    H231788   4.485   2.082   5.951
10615TIP3   OH231789   5.016   2.177   5.999
10615TIP3    H131790   5.049   2.121   6.069
10615TIP3    H231791   5.030   2.266   6.032
10616TIP3   OH231792   4.853   3.584   5.512
10616TIP3    H131793   4.938   3.611   5.479
10616TIP3    H231794   4.826   3.512   5.454
10617TIP3   OH231795   5.569   3.709   5.605
10617TIP3    H131796   5.563   3.614   5.596
10617TIP3    H231797   5.524   3.743   5.528
10618TIP3   OH231798   7.615   6.244   0.456
10618TIP3    H131799   7.578   6.174   0.510
10618TIP3    H231800   7.707   6.247   0.481
10619TIP3   OH231801   7.863   6.246   0.575
10619TIP3    H131802   7.947   6.228   0.532
10619TIP3    H231803   7.854   6.176   0.640
10620TIP3   OH231804   4.151   3.419   5.567
10620TIP3    H131805   4.157   3.452   5.656
10620TIP3    H231806   4.237   3.379   5.551
10621TIP3   OH231807   0.193   6.308   0.361
10621TIP3    H131808   0.209   6.278   0.450
10621TIP3    H231809   0.279   6.304   0.318
10622TIP3   OH231810   5.789   3.852   6.794
10622TIP3    H131811   5.715   3.820   6.742
10622TIP3    H231812   5.774   3.947   6.799
10623TIP3   OH231813   7.060   3.228   5.554
10623TIP3    H131814   7.033   3.318   5.535
10623TIP3    H231815   6.986   3.175   5.524
10624TIP3   OH231816   7.064   3.223   5.943
10624TIP3    H131817   7.097   3.201   6.030
10624TIP3    H231818   7.018   3.145   5.913
10625TIP3   OH231819   6.357   3.121   6.286
10625TIP3    H131820   6.332   3.081   6.369
10625TIP3    H231821   6.436   3.171   6.307
10626TIP3   OH231822   7.307   3.530   5.624
10626TIP3    H131823   7.288   3.462   5.688
10626TIP3    H231824   7.336   3.605   5.676
10627TIP3   OH231825   6.335   3.531   6.028
10627TIP3    H131826   6.322   3.436   6.029
10627TIP3    H231827   6.430   3.542   6.022
10628TIP3   OH231828   6.037   2.729   5.809
10628TIP3    H131829   5.996   2.812   5.832
10628TIP3    H231830   5.967   2.680   5.765
10629TIP3   OH231831   6.099   3.015   5.983
10629TIP3    H131832   6.145   2.941   6.023
10629TIP3    H231833   6.163   3.054   5.924
10630TIP3   OH231834   6.958   3.989   5.639
10630TIP3    H131835   7.000   3.920   5.589
10630TIP3    H231836   6.942   3.951   5.725
10631TIP3   OH231837   6.862   3.452   5.987
10631TIP3    H131838   6.896   3.375   5.942
10631TIP3    H231839   6.940   3.501   6.014
10632TIP3   OH231840   7.876   2.771   5.984
10632TIP3    H131841   7.902   2.851   6.030
10632TIP3    H231842   7.903   2.785   5.893
10633TIP3   OH231843   7.272   2.949   6.016
10633TIP3    H131844   7.314   2.866   6.039
10633TIP3    H231845   7.240   2.935   5.927
10634TIP3   OH231846   6.613   2.611   5.981
10634TIP3    H131847   6.594   2.686   5.923
10634TIP3    H231848   6.565   2.538   5.942
10635TIP3   OH231849   7.310   2.703   5.605
10635TIP3    H131850   7.376   2.689   5.672
10635TIP3    H231851   7.359   2.739   5.531
10636TIP3   OH231852   6.244   2.810   6.093
10636TIP3    H131853   6.324   2.799   6.144
10636TIP3    H231854   6.257   2.757   6.015
10637TIP3   OH231855   6.687   3.009   5.878
10637TIP3    H131856   6.778   2.986   5.896
10637TIP3    H231857   6.646   2.927   5.850
10638TIP3   OH231858   7.938   2.976   6.166
10638TIP3    H131859   7.859   3.025   6.145
10638TIP3    H231860   7.978   3.025   6.237
10639TIP3   OH231861   6.604   2.595   6.421
10639TIP3    H131862   6.550   2.634   6.352
10639TIP3    H231863   6.554   2.610   6.502
10640TIP3   OH231864   6.952   3.450   5.422
10640TIP3    H131865   6.909   3.431   5.339
10640TIP3    H231866   6.908   3.529   5.454
10641TIP3   OH231867   6.714   3.375   6.212
10641TIP3    H131868   6.652   3.438   6.250
10641TIP3    H231869   6.753   3.422   6.138
10642TIP3   OH231870   7.513   2.709   5.786
10642TIP3    H131871   7.491   2.670   5.870
10642TIP3    H231872   7.564   2.787   5.808
10643TIP3   OH231873   6.481   2.711   6.202
10643TIP3    H131874   6.537   2.784   6.230
10643TIP3    H231875   6.529   2.671   6.129
10644TIP3   OH231876   6.540   3.570   6.314
10644TIP3    H131877   6.518   3.655   6.276
10644TIP3    H231878   6.464   3.546   6.366
10645TIP3   OH231879   5.932   3.258   5.546
10645TIP3    H131880   5.891   3.284   5.464
10645TIP3    H231881   5.964   3.341   5.584
10646TIP3   OH231882   7.372   3.775   5.786
10646TIP3    H131883   7.286   3.763   5.827
10646TIP3    H231884   7.366   3.859   5.742
10647TIP3   OH231885   7.668   2.664   6.148
10647TIP3    H131886   7.582   2.696   6.120
10647TIP3    H231887   7.729   2.699   6.083
10648TIP3   OH231888   6.958   2.310   6.139
10648TIP3    H131889   6.943   2.217   6.152
10648TIP3    H231890   6.885   2.353   6.183
10649TIP3   OH231891   7.077   3.815   5.458
10649TIP3    H131892   7.123   3.732   5.443
10649TIP3    H231893   7.135   3.882   5.421
10650TIP3   OH231894   7.220   3.599   5.371
10650TIP3    H131895   7.170   3.524   5.340
10650TIP3    H231896   7.259   3.569   5.453
10651TIP3   OH231897   7.599   3.682   6.130
10651TIP3    H131898   7.587   3.605   6.074
10651TIP3    H231899   7.581   3.757   6.073
10652TIP3   OH231900   6.891   3.077   5.390
10652TIP3    H131901   6.812   3.128   5.374
10652TIP3    H231902   6.936   3.076   5.306
10653TIP3   OH231903   6.852   2.864   5.102
10653TIP3    H131904   6.914   2.917   5.152
10653TIP3    H231905   6.907   2.801   5.054
10654TIP3   OH231906   7.791   3.318   5.973
10654TIP3    H131907   7.711   3.370   5.977
10654TIP3    H231908   7.831   3.341   5.889
10655TIP3   OH231909   7.241   3.160   5.362
10655TIP3    H131910   7.185   3.184   5.436
10655TIP3    H231911   7.324   3.136   5.402
10656TIP3   OH231912   7.470   3.198   6.278
10656TIP3    H131913   7.471   3.282   6.325
10656TIP3    H231914   7.386   3.198   6.231
10657TIP3   OH231915   6.473   3.152   5.777
10657TIP3    H131916   6.432   3.098   5.710
10657TIP3    H231917   6.549   3.102   5.805
10658TIP3   OH231918   6.604   3.570   5.924
10658TIP3    H131919   6.580   3.534   5.839
10658TIP3    H231920   6.691   3.534   5.941
10659TIP3   OH231921   6.628   3.124   6.131
10659TIP3    H131922   6.651   3.108   6.039
10659TIP3    H231923   6.659   3.213   6.148
10660TIP3   OH231924   7.135   3.766   5.911
10660TIP3    H131925   7.120   3.846   5.962
10660TIP3    H231926   7.117   3.695   5.972
10661TIP3   OH231927   6.743   3.684   6.460
10661TIP3    H131928   6.684   3.746   6.503
10661TIP3    H231929   6.685   3.629   6.407
10662TIP3   OH231930   7.081   3.019   5.186
10662TIP3    H131931   7.136   3.078   5.237
10662TIP3    H231932   7.104   3.038   5.095
10663TIP3   OH231933   6.506   3.247   6.549
10663TIP3    H131934   6.505   3.331   6.596
10663TIP3    H231935   6.422   3.207   6.568
10664TIP3   OH231936   6.827   3.694   5.462
10664TIP3    H131937   6.905   3.747   5.472
10664TIP3    H231938   6.763   3.752   5.421
10665TIP3   OH231939   6.538   3.851   6.545
10665TIP3    H131940   6.506   3.855   6.455
10665TIP3    H231941   6.461   3.828   6.597
10666TIP3   OH231942   7.592   2.258   5.237
10666TIP3    H131943   7.513   2.279   5.287
10666TIP3    H231944   7.611   2.338   5.187
10667TIP3   OH231945   6.339   2.999   5.575
10667TIP3    H131946   6.272   3.046   5.525
10667TIP3    H231947   6.298   2.915   5.597
10668TIP3   OH231948   7.399   3.626   4.784
10668TIP3    H131949   7.405   3.720   4.771
10668TIP3    H231950   7.488   3.594   4.772
10669TIP3   OH231951   6.121   3.364   6.495
10669TIP3    H131952   6.052   3.356   6.429
10669TIP3    H231953   6.151   3.274   6.510
10670TIP3   OH231954   5.973   3.579   6.118
10670TIP3    H131955   6.068   3.568   6.113
10670TIP3    H231956   5.960   3.655   6.176
10671TIP3   OH231957   7.834   4.029   6.181
10671TIP3    H131958   7.837   3.934   6.192
10671TIP3    H231959   7.753   4.056   6.224
10672TIP3   OH231960   6.942   3.812   6.319
10672TIP3    H131961   6.941   3.904   6.345
10672TIP3    H231962   6.871   3.771   6.368
10673TIP3   OH231963   6.709   3.945   5.265
10673TIP3    H131964   6.659   3.926   5.186
10673TIP3    H231965   6.675   4.029   5.295
10674TIP3   OH231966   6.144   3.788   5.653
10674TIP3    H131967   6.190   3.782   5.736
10674TIP3    H231968   6.088   3.711   5.651
10675TIP3   OH231969   6.910   3.846   4.904
10675TIP3    H131970   6.965   3.776   4.869
10675TIP3    H231971   6.938   3.856   4.995
10676TIP3   OH231972   6.956   3.890   5.175
10676TIP3    H131973   6.868   3.902   5.211
10676TIP3    H231974   7.007   3.852   5.247
10677TIP3   OH231975   7.719   3.151   6.457
10677TIP3    H131976   7.642   3.166   6.402
10677TIP3    H231977   7.738   3.058   6.448
10678TIP3   OH231978   6.318   3.562   6.474
10678TIP3    H131979   6.369   3.550   6.554
10678TIP3    H231980   6.248   3.496   6.480
10679TIP3   OH231981   6.720   2.391   6.267
10679TIP3    H131982   6.636   2.358   6.236
10679TIP3    H231983   6.699   2.471   6.314
10680TIP3   OH231984   7.257   2.503   6.460
10680TIP3    H131985   7.324   2.474   6.522
10680TIP3    H231986   7.174   2.485   6.505
10681TIP3   OH231987   7.493   2.933   6.375
10681TIP3    H131988   7.443   2.931   6.457
10681TIP3    H231989   7.472   3.018   6.337
10682TIP3   OH231990   7.157   3.059   4.929
10682TIP3    H131991   7.120   3.037   4.844
10682TIP3    H231992   7.239   3.105   4.909
10683TIP3   OH231993   6.866   2.434   5.237
10683TIP3    H131994   6.834   2.435   5.327
10683TIP3    H231995   6.828   2.355   5.198
10684TIP3   OH231996   6.656   2.906   6.287
10684TIP3    H131997   6.607   2.924   6.367
10684TIP3    H231998   6.643   2.985   6.233
10685TIP3   OH231999   6.537   2.789   5.794
10685TIP3    H132000   6.446   2.768   5.816
10685TIP3    H232001   6.550   2.751   5.708
10686TIP3   OH232002   7.029   2.877   5.524
10686TIP3    H132003   6.978   2.947   5.483
10686TIP3    H232004   7.084   2.844   5.453
10687TIP3   OH232005   7.205   3.152   6.612
10687TIP3    H132006   7.179   3.082   6.671
10687TIP3    H232007   7.299   3.164   6.628
10688TIP3   OH232008   7.184   2.902   5.759
10688TIP3    H132009   7.121   2.935   5.694
10688TIP3    H232010   7.221   2.824   5.718
10689TIP3   OH232011   6.492   2.925   6.506
10689TIP3    H132012   6.425   2.986   6.537
10689TIP3    H232013   6.473   2.843   6.551
10690TIP3   OH232014   6.522   2.413   5.201
10690TIP3    H132015   6.514   2.411   5.297
10690TIP3    H232016   6.449   2.467   5.172
10691TIP3   OH232017   6.069   2.452   6.074
10691TIP3    H132018   6.139   2.488   6.128
10691TIP3    H232019   6.112   2.430   5.991
10692TIP3   OH232020   6.031   2.439   5.588
10692TIP3    H132021   6.078   2.471   5.511
10692TIP3    H232022   5.971   2.509   5.612
10693TIP3   OH232023   7.197   3.147   6.183
10693TIP3    H132024   7.230   3.080   6.123
10693TIP3    H232025   7.164   3.097   6.258
10694TIP3   OH232026   6.869   2.608   5.857
10694TIP3    H132027   6.787   2.610   5.906
10694TIP3    H232028   6.937   2.611   5.924
10695TIP3   OH232029   6.299   2.671   5.863
10695TIP3    H132030   6.207   2.680   5.836
10695TIP3    H232031   6.322   2.581   5.840
10696TIP3   OH232032   6.566   2.663   5.553
10696TIP3    H132033   6.658   2.681   5.532
10696TIP3    H232034   6.518   2.686   5.474
10697TIP3   OH232035   7.355   2.687   6.059
10697TIP3    H132036   7.327   2.703   6.149
10697TIP3    H232037   7.288   2.629   6.023
10698TIP3   OH232038   6.417   2.697   5.328
10698TIP3    H132039   6.345   2.654   5.283
10698TIP3    H232040   6.468   2.737   5.258
10699TIP3   OH232041   7.533   4.379   6.278
10699TIP3    H132042   7.526   4.402   6.185
10699TIP3    H232043   7.609   4.428   6.309
10700TIP3   OH232044   6.484   3.495   6.696
10700TIP3    H132045   6.563   3.521   6.744
10700TIP3    H232046   6.419   3.480   6.765
10701TIP3   OH232047   6.949   2.941   5.955
10701TIP3    H132048   7.024   2.904   5.908
10701TIP3    H232049   6.952   2.900   6.041
10702TIP3   OH232050   6.468   2.427   5.837
10702TIP3    H132051   6.431   2.353   5.886
10702TIP3    H232052   6.511   2.388   5.762
10703TIP3   OH232053   6.924   2.843   6.244
10703TIP3    H132054   6.834   2.875   6.256
10703TIP3    H232055   6.978   2.905   6.292
10704TIP3   OH232056   6.661   3.227   5.342
10704TIP3    H132057   6.591   3.164   5.326
10704TIP3    H232058   6.643   3.263   5.429
10705TIP3   OH232059   7.559   3.467   5.963
10705TIP3    H132060   7.585   3.516   5.885
10705TIP3    H232061   7.477   3.424   5.939
10706TIP3   OH232062   7.118   2.540   5.205
10706TIP3    H132063   7.024   2.520   5.214
10706TIP3    H232064   7.126   2.632   5.230
10707TIP3   OH232065   7.064   3.552   6.335
10707TIP3    H132066   7.081   3.529   6.426
10707TIP3    H232067   7.022   3.638   6.340
10708TIP3   OH232068   7.188   2.790   5.307
10708TIP3    H132069   7.282   2.797   5.323
10708TIP3    H232070   7.167   2.869   5.257
10709TIP3   OH232071   6.359   3.256   6.014
10709TIP3    H132072   6.400   3.219   5.936
10709TIP3    H232073   6.383   3.196   6.084
10710TIP3   OH232074   6.804   3.380   5.164
10710TIP3    H132075   6.759   3.464   5.164
10710TIP3    H232076   6.752   3.325   5.222
10711TIP3   OH232077   6.959   3.286   6.649
10711TIP3    H132078   6.890   3.229   6.615
10711TIP3    H232079   7.040   3.249   6.614
10712TIP3   OH232080   7.219   3.810   6.236
10712TIP3    H132081   7.124   3.805   6.245
10712TIP3    H232082   7.248   3.862   6.311
10713TIP3   OH232083   7.624   2.884   5.137
10713TIP3    H132084   7.565   2.836   5.078
10713TIP3    H232085   7.625   2.973   5.103
10714TIP3   OH232086   7.848   3.744   6.216
10714TIP3    H132087   7.753   3.735   6.213
10714TIP3    H232088   7.879   3.713   6.131
10715TIP3   OH232089   7.337   3.699   5.053
10715TIP3    H132090   7.303   3.636   5.116
10715TIP3    H232091   7.343   3.649   4.971
10716TIP3   OH232092   7.325   3.327   5.882
10716TIP3    H132093   7.233   3.305   5.897
10716TIP3    H232094   7.361   3.250   5.838
10717TIP3   OH232095   6.455   3.559   5.637
10717TIP3    H132096   6.452   3.638   5.584
10717TIP3    H232097   6.363   3.539   5.656
10718TIP3   OH232098   6.021   2.861   5.349
10718TIP3    H132099   6.066   2.944   5.366
10718TIP3    H232100   5.944   2.863   5.406
10719TIP3   OH232101   6.587   3.321   5.583
10719TIP3    H132102   6.555   3.410   5.599
10719TIP3    H232103   6.554   3.269   5.656
10720TIP3   OH232104   6.728   3.901   6.107
10720TIP3    H132105   6.765   3.973   6.056
10720TIP3    H232106   6.802   3.862   6.152
10721TIP3   OH232107   6.374   3.796   5.493
10721TIP3    H132108   6.289   3.803   5.537
10721TIP3    H232109   6.409   3.885   5.493
10722TIP3   OH232110   7.112   3.532   6.069
10722TIP3    H132111   7.101   3.533   6.164
10722TIP3    H232112   7.190   3.479   6.054
10723TIP3   OH232113   7.089   3.429   4.951
10723TIP3    H132114   7.143   3.404   5.027
10723TIP3    H232115   7.001   3.402   4.975
10724TIP3   OH232116   7.359   4.065   6.115
10724TIP3    H132117   7.281   4.010   6.112
10724TIP3    H232118   7.346   4.129   6.046
10725TIP3   OH232119   7.422   3.908   4.761
10725TIP3    H132120   7.410   3.950   4.676
10725TIP3    H232121   7.354   3.947   4.816
10726TIP3   OH232122   6.444   2.663   6.638
10726TIP3    H132123   6.350   2.676   6.653
10726TIP3    H232124   6.472   2.608   6.712
10727TIP3   OH232125   7.252   3.355   5.162
10727TIP3    H132126   7.238   3.294   5.236
10727TIP3    H232127   7.347   3.356   5.151
10728TIP3   OH232128   6.164   3.759   6.268
10728TIP3    H132129   6.214   3.685   6.303
10728TIP3    H232130   6.190   3.834   6.321
10729TIP3   OH232131   6.455   3.404   4.951
10729TIP3    H132132   6.465   3.313   4.924
10729TIP3    H232133   6.433   3.399   5.044
10730TIP3   OH232134   6.399   3.414   5.222
10730TIP3    H132135   6.468   3.386   5.282
10730TIP3    H232136   6.398   3.509   5.228
10731TIP3   OH232137   6.129   3.108   5.428
10731TIP3    H132138   6.064   3.149   5.485
10731TIP3    H232139   6.143   3.172   5.358
10732TIP3   OH232140   7.288   2.739   6.318
10732TIP3    H132141   7.367   2.780   6.355
10732TIP3    H232142   7.274   2.661   6.372
10733TIP3   OH232143   7.169   2.490   5.486
10733TIP3    H132144   7.153   2.510   5.395
10733TIP3    H232145   7.207   2.570   5.523
10734TIP3   OH232146   6.664   3.612   5.170
10734TIP3    H132147   6.578   3.629   5.208
10734TIP3    H232148   6.680   3.687   5.112
10735TIP3   OH232149   6.852   2.674   5.588
10735TIP3    H132150   6.913   2.746   5.569
10735TIP3    H232151   6.856   2.665   5.683
10736TIP3   OH232152   7.123   2.989   6.391
10736TIP3    H132153   7.143   3.042   6.468
10736TIP3    H232154   7.175   2.909   6.403
10737TIP3   OH232155   6.995   2.396   5.686
10737TIP3    H132156   6.981   2.472   5.743
10737TIP3    H232157   7.056   2.428   5.619
10738TIP3   OH232158   6.410   3.685   5.241
10738TIP3    H132159   6.382   3.752   5.179
10738TIP3    H232160   6.394   3.725   5.327
10739TIP3   OH232161   6.511   2.401   5.478
10739TIP3    H132162   6.503   2.490   5.514
10739TIP3    H232163   6.604   2.381   5.483
10740TIP3   OH232164   7.760   2.888   6.386
10740TIP3    H132165   7.665   2.882   6.383
10740TIP3    H232166   7.788   2.871   6.295
10741TIP3   OH232167   7.412   3.084   5.763
10741TIP3    H132168   7.336   3.027   5.775
10741TIP3    H232169   7.483   3.039   5.809
10742TIP3   OH232170   6.128   3.309   5.229
10742TIP3    H132171   6.190   3.381   5.240
10742TIP3    H232172   6.169   3.252   5.164
10743TIP3   OH232173   6.066   2.590   5.364
10743TIP3    H132174   6.073   2.686   5.364
10743TIP3    H232175   5.984   2.572   5.319
10744TIP3   OH232176   7.384   4.045   5.708
10744TIP3    H132177   7.338   4.088   5.636
10744TIP3    H232178   7.477   4.061   5.690
10745TIP3   OH232179   6.459   2.307   6.234
10745TIP3    H132180   6.428   2.277   6.149
10745TIP3    H232181   6.447   2.232   6.293
10746TIP3   OH232182   5.988   3.524   5.612
10746TIP3    H132183   5.932   3.555   5.683
10746TIP3    H232184   5.956   3.569   5.534
10747TIP3   OH232185   6.157   4.072   6.691
10747TIP3    H132186   6.241   4.073   6.736
10747TIP3    H232187   6.132   3.980   6.688
10748TIP3   OH232188   6.634   4.024   6.739
10748TIP3    H132189   6.729   4.015   6.736
10748TIP3    H232190   6.602   3.969   6.668
10749TIP3   OH232191   6.616   3.606   4.859
10749TIP3    H132192   6.558   3.540   4.898
10749TIP3    H232193   6.691   3.556   4.826
10750TIP3   OH232194   7.272   3.943   6.472
10750TIP3    H132195   7.266   3.874   6.538
10750TIP3    H232196   7.348   3.995   6.498
10751TIP3   OH232197   7.053   3.647   4.776
10751TIP3    H132198   7.088   3.580   4.835
10751TIP3    H232199   7.107   3.641   4.697
10752TIP3   OH232200   6.281   3.478   6.891
10752TIP3    H132201   6.311   3.388   6.887
10752TIP3    H232202   6.198   3.478   6.844
10753TIP3   OH232203   6.266   3.124   5.085
10753TIP3    H132204   6.319   3.097   5.160
10753TIP3    H232205   6.329   3.130   5.013
10754TIP3   OH232206   6.889   3.562   6.663
10754TIP3    H132207   6.846   3.585   6.580
10754TIP3    H232208   6.916   3.471   6.651
10755TIP3   OH232209   6.781   3.325   4.895
10755TIP3    H132210   6.779   3.340   4.989
10755TIP3    H232211   6.778   3.230   4.885
10756TIP3   OH232212   7.385   3.577   6.273
10756TIP3    H132213   7.460   3.617   6.229
10756TIP3    H232214   7.313   3.638   6.258
10757TIP3   OH232215   6.415   3.248   6.872
10757TIP3    H132216   6.407   3.167   6.824
10757TIP3    H232217   6.447   3.222   6.959
10758TIP3   OH232218   6.467   3.032   5.304
10758TIP3    H132219   6.439   2.996   5.388
10758TIP3    H232220   6.504   2.957   5.257
10759TIP3   OH232221   6.756   3.113   6.546
10759TIP3    H132222   6.666   3.146   6.542
10759TIP3    H232223   6.795   3.139   6.463
10760TIP3   OH232224   6.573   2.826   5.143
10760TIP3    H132225   6.544   2.835   5.052
10760TIP3    H232226   6.668   2.830   5.139
10761TIP3   OH232227   7.261   3.499   6.671
10761TIP3    H132228   7.329   3.467   6.612
10761TIP3    H232229   7.250   3.429   6.735
10762TIP3   OH232230   7.389   3.156   4.809
10762TIP3    H132231   7.370   3.109   4.728
10762TIP3    H232232   7.358   3.245   4.794
10763TIP3   OH232233   6.866   2.887   6.653
10763TIP3    H132234   6.859   2.810   6.597
10763TIP3    H232235   6.822   2.956   6.605
10764TIP3   OH232236   6.864   2.670   6.464
10764TIP3    H132237   6.892   2.714   6.384
10764TIP3    H232238   6.771   2.650   6.450
10765TIP3   OH232239   6.894   3.210   6.336
10765TIP3    H132240   6.976   3.224   6.288
10765TIP3    H232241   6.832   3.270   6.295
10766TIP3   OH232242   7.477   3.171   6.721
10766TIP3    H132243   7.521   3.086   6.720
10766TIP3    H232244   7.539   3.230   6.679
10767TIP3   OH232245   7.514   3.431   6.457
10767TIP3    H132246   7.455   3.482   6.401
10767TIP3    H232247   7.601   3.447   6.422
10768TIP3   OH232248   6.750   2.987   6.900
10768TIP3    H132249   6.675   2.929   6.912
10768TIP3    H232250   6.772   2.979   6.807
10769TIP3   OH232251   6.993   2.434   6.537
10769TIP3    H132252   6.947   2.514   6.514
10769TIP3    H232253   6.928   2.365   6.526
10770TIP3   OH232254   7.119   2.934   6.752
10770TIP3    H132255   7.102   2.920   6.845
10770TIP3    H232256   7.035   2.915   6.709
10771TIP3   OH232257   7.361   2.892   6.609
10771TIP3    H132258   7.286   2.890   6.668
10771TIP3    H232259   7.434   2.862   6.662
10772TIP3   OH232260   7.592   2.837   6.757
10772TIP3    H132261   7.602   2.742   6.764
10772TIP3    H232262   7.588   2.868   6.847
10773TIP3   OH232263   0.908   6.779   0.009
10773TIP3    H132264   0.913   6.692  -0.030
10773TIP3    H232265   0.945   6.768   0.097
10774TIP3   OH232266   7.090   2.442   6.793
10774TIP3    H132267   7.154   2.370   6.787
10774TIP3    H232268   7.048   2.442   6.707
10775TIP3   OH232269   7.156   2.658   6.949
10775TIP3    H132270   7.136   2.588   6.887
10775TIP3    H232271   7.081   2.717   6.944
10776TIP3   OH232272   6.380   3.885   5.050
10776TIP3    H132273   6.474   3.878   5.032
10776TIP3    H232274   6.346   3.938   4.978
10777TIP3   OH232275   5.859   3.268   5.265
10777TIP3    H132276   5.951   3.291   5.253
10777TIP3    H232277   5.850   3.181   5.224
10778TIP3   OH232278   5.776   3.877   5.685
10778TIP3    H132279   5.709   3.821   5.644
10778TIP3    H232280   5.819   3.819   5.748
10779TIP3   OH232281   5.912   3.723   5.872
10779TIP3    H132282   5.897   3.655   5.937
10779TIP3    H232283   5.961   3.790   5.918
10780TIP3   OH232284   7.639   4.132   5.672
10780TIP3    H132285   7.662   4.163   5.759
10780TIP3    H232286   7.702   4.176   5.614
10781TIP3   OH232287   7.664   4.148   5.954
10781TIP3    H132288   7.617   4.065   5.947
10781TIP3    H232289   7.740   4.128   6.008
10782TIP3   OH232290   7.712   3.830   6.528
10782TIP3    H132291   7.640   3.838   6.590
10782TIP3    H232292   7.754   3.916   6.529
10783TIP3   OH232293   7.531   3.340   5.144
10783TIP3    H132294   7.595   3.405   5.113
10783TIP3    H232295   7.572   3.303   5.222
10784TIP3   OH232296   7.656   3.208   5.349
10784TIP3    H132297   7.591   3.169   5.407
10784TIP3    H232298   7.723   3.243   5.408
10785TIP3   OH232299   7.715   3.599   5.774
10785TIP3    H132300   7.770   3.535   5.729
10785TIP3    H232301   7.707   3.672   5.713
10786TIP3   OH232302   7.536   3.902   5.972
10786TIP3    H132303   7.467   3.944   6.023
10786TIP3    H232304   7.491   3.856   5.902
10787TIP3   OH232305   7.590   3.119   4.993
10787TIP3    H132306   7.522   3.118   4.926
10787TIP3    H232307   7.566   3.192   5.050
10788TIP3   OH232308   7.464   2.787   4.942
10788TIP3    H132309   7.416   2.827   4.869
10788TIP3    H232310   7.443   2.694   4.936
10789TIP3   OH232311   7.467   3.068   5.494
10789TIP3    H132312   7.476   2.973   5.486
10789TIP3    H232313   7.453   3.082   5.588
10790TIP3   OH232314   6.097   3.167   6.213
10790TIP3    H132315   6.092   3.123   6.129
10790TIP3    H232316   6.188   3.158   6.240
10791TIP3   OH232317   7.760   3.492   6.351
10791TIP3    H132318   7.829   3.425   6.344
10791TIP3    H232319   7.782   3.556   6.283
10792TIP3   OH232320   7.938   3.291   6.381
10792TIP3    H132321   7.862   3.242   6.413
10792TIP3    H232322   8.010   3.229   6.385
10793TIP3   OH232323   7.408   2.522   4.929
10793TIP3    H132324   7.478   2.491   4.986
10793TIP3    H232325   7.333   2.466   4.951
10794TIP3   OH232326   7.468   2.781   5.384
10794TIP3    H132327   7.506   2.695   5.400
10794TIP3    H232328   7.522   2.819   5.314
10795TIP3   OH232329   7.628   2.955   5.884
10795TIP3    H132330   7.709   2.978   5.839
10795TIP3    H232331   7.638   2.990   5.972
10796TIP3   OH232332   7.695   3.103   6.116
10796TIP3    H132333   7.617   3.136   6.160
10796TIP3    H232334   7.728   3.178   6.066
10797TIP3   OH232335   6.309   2.810   6.887
10797TIP3    H132336   6.404   2.814   6.898
10797TIP3    H232337   6.282   2.733   6.939
10798TIP3   OH232338   8.182   2.695   6.654
10798TIP3    H132339   8.198   2.611   6.611
10798TIP3    H232340   8.130   2.745   6.591
10799TIP3   OH232341   7.575   2.532   5.426
10799TIP3    H132342   7.623   2.519   5.507
10799TIP3    H232343   7.513   2.459   5.423
10800TIP3   OH232344   6.277   2.519   6.244
10800TIP3    H132345   6.337   2.444   6.253
10800TIP3    H232346   6.334   2.595   6.237
10801TIP3   OH232347   6.076   2.803   6.321
10801TIP3    H132348   6.123   2.800   6.238
10801TIP3    H232349   6.103   2.885   6.362
10802TIP3   OH232350   8.006   2.820   6.487
10802TIP3    H132351   7.925   2.870   6.494
10802TIP3    H232352   7.987   2.752   6.422
10803TIP3   OH232353   7.652   2.464   5.059
10803TIP3    H132354   7.692   2.396   5.005
10803TIP3    H232355   7.716   2.536   5.059
10804TIP3   OH232356   6.059   2.289   5.813
10804TIP3    H132357   5.970   2.288   5.847
10804TIP3    H232358   6.056   2.350   5.740
10805TIP3   OH232359   7.224   3.997   5.325
10805TIP3    H132360   7.277   3.990   5.246
10805TIP3    H232361   7.266   4.067   5.376
10806TIP3   OH232362   6.277   2.368   6.630
10806TIP3    H132363   6.230   2.369   6.714
10806TIP3    H232364   6.217   2.411   6.568
10807TIP3   OH232365   6.318   3.805   6.711
10807TIP3    H132366   6.229   3.780   6.686
10807TIP3    H232367   6.323   3.786   6.804
10808TIP3   OH232368   6.502   3.843   6.257
10808TIP3    H132369   6.449   3.914   6.221
10808TIP3    H232370   6.587   3.852   6.214
10809TIP3   OH232371   6.942   4.079   6.396
10809TIP3    H132372   6.981   4.080   6.484
10809TIP3    H232373   7.003   4.130   6.342
10810TIP3   OH232374   7.121   4.233   6.259
10810TIP3    H132375   7.187   4.183   6.211
10810TIP3    H232376   7.171   4.290   6.317
10811TIP3   OH232377   7.914   2.591   6.354
10811TIP3    H132378   7.827   2.588   6.315
10811TIP3    H232379   7.949   2.503   6.342
10812TIP3   OH232380   6.172   4.094   6.284
10812TIP3    H132381   6.085   4.122   6.256
10812TIP3    H232382   6.186   4.137   6.368
10813TIP3   OH232383   6.409   4.073   6.140
10813TIP3    H132384   6.324   4.085   6.184
10813TIP3    H232385   6.393   4.103   6.051
10814TIP3   OH232386   6.835   4.099   5.938
10814TIP3    H132387   6.766   4.113   5.873
10814TIP3    H232388   6.848   4.185   5.978
10815TIP3   OH232389   7.104   4.039   5.991
10815TIP3    H132390   7.011   4.054   5.973
10815TIP3    H232391   7.149   4.110   5.945
10816TIP3   OH232392   7.312   4.229   5.901
10816TIP3    H132393   7.297   4.313   5.857
10816TIP3    H232394   7.338   4.169   5.831
10817TIP3   OH232395   6.088   3.883   6.026
10817TIP3    H132396   6.108   3.857   6.116
10817TIP3    H232397   6.156   3.843   5.973
10818TIP3   OH232398   6.283   3.758   5.886
10818TIP3    H132399   6.294   3.676   5.935
10818TIP3    H232400   6.371   3.794   5.881
10819TIP3   OH232401   6.550   3.848   5.892
10819TIP3    H132402   6.576   3.757   5.879
10819TIP3    H232403   6.594   3.875   5.972
10820TIP3   OH232404   7.125   2.508   5.979
10820TIP3    H132405   7.080   2.439   6.027
10820TIP3    H232406   7.197   2.463   5.933
10821TIP3   OH232407   7.641   2.386   5.874
10821TIP3    H132408   7.679   2.439   5.803
10821TIP3    H232409   7.548   2.408   5.872
10822TIP3   OH232410   7.743   2.485   5.639
10822TIP3    H132411   7.814   2.433   5.601
10822TIP3    H232412   7.771   2.576   5.628
10823TIP3   OH232413   6.369   2.213   5.987
10823TIP3    H132414   6.277   2.186   5.991
10823TIP3    H232415   6.418   2.131   5.983
10824TIP3   OH232416   6.160   2.089   5.639
10824TIP3    H132417   6.188   2.144   5.566
10824TIP3    H232418   6.130   2.152   5.706
10825TIP3   OH232419   6.819   2.246   5.871
10825TIP3    H132420   6.871   2.295   5.807
10825TIP3    H232421   6.836   2.289   5.955
10826TIP3   OH232422   7.358   2.395   5.854
10826TIP3    H132423   7.356   2.360   5.765
10826TIP3    H232424   7.346   2.318   5.910
10827TIP3   OH232425   7.388   2.320   5.419
10827TIP3    H132426   7.307   2.368   5.434
10827TIP3    H232427   7.375   2.235   5.461
10828TIP3   OH232428   5.871   3.665   5.414
10828TIP3    H132429   5.787   3.630   5.384
10828TIP3    H232430   5.868   3.757   5.390
10829TIP3   OH232431   6.278   2.244   5.401
10829TIP3    H132432   6.324   2.183   5.342
10829TIP3    H232433   6.348   2.299   5.436
10830TIP3   OH232434   6.787   2.425   5.501
10830TIP3    H132435   6.845   2.376   5.559
10830TIP3    H232436   6.803   2.517   5.522
10831TIP3   OH232437   6.650   3.841   4.997
10831TIP3    H132438   6.734   3.869   4.962
10831TIP3    H232439   6.624   3.768   4.940
10832TIP3   OH232440   7.371   3.964   5.089
10832TIP3    H132441   7.364   3.869   5.086
10832TIP3    H232442   7.317   3.996   5.017
10833TIP3   OH232443   6.577   2.494   6.883
10833TIP3    H132444   6.540   2.425   6.938
10833TIP3    H232445   6.670   2.497   6.908
10834TIP3   OH232446   1.162   6.502   0.062
10834TIP3    H132447   1.244   6.477   0.019
10834TIP3    H232448   1.147   6.433   0.126
10835TIP3   OH232449   5.949   3.678   5.053
10835TIP3    H132450   5.949   3.708   5.144
10835TIP3    H232451   6.035   3.638   5.041
10836TIP3   OH232452   7.649   2.566   6.771
10836TIP3    H132453   7.659   2.533   6.860
10836TIP3    H232454   7.737   2.561   6.734
10837TIP3   OH232455   7.585   4.109   6.280
10837TIP3    H132456   7.511   4.076   6.229
10837TIP3    H232457   7.570   4.203   6.286
10838TIP3   OH232458   8.127   3.779   5.513
10838TIP3    H132459   8.118   3.684   5.519
10838TIP3    H232460   8.221   3.795   5.515
10839TIP3   OH232461   7.831   2.985   5.294
10839TIP3    H132462   7.791   3.069   5.318
10839TIP3    H232463   7.760   2.936   5.253
10840TIP3   OH232464   7.891   3.274   5.478
10840TIP3    H132465   7.934   3.195   5.512
10840TIP3    H232466   7.959   3.316   5.425
10841TIP3   OH232467   0.260   4.207   5.108
10841TIP3    H132468   0.353   4.184   5.108
10841TIP3    H232469   0.239   4.220   5.200
10842TIP3   OH232470   0.145   3.713   5.472
10842TIP3    H132471   0.161   3.658   5.395
10842TIP3    H232472   0.230   3.751   5.492
10843TIP3   OH232473   8.384   2.874   5.486
10843TIP3    H132474   8.396   2.943   5.420
10843TIP3    H232475   8.344   2.801   5.438
10844TIP3   OH232476   8.030   3.065   5.578
10844TIP3    H132477   8.108   3.099   5.622
10844TIP3    H232478   8.064   3.012   5.505
10845TIP3   OH232479   8.474   3.267   5.334
10845TIP3    H132480   8.558   3.240   5.370
10845TIP3    H232481   8.424   3.186   5.324
10846TIP3   OH232482   8.410   2.859   5.918
10846TIP3    H132483   8.358   2.897   5.847
10846TIP3    H232484   8.359   2.876   5.997
10847TIP3   OH232485   0.032   3.637   5.725
10847TIP3    H132486  -0.049   3.680   5.753
10847TIP3    H232487   0.049   3.671   5.637
10848TIP3   OH232488   8.269   2.968   5.716
10848TIP3    H132489   8.276   3.064   5.720
10848TIP3    H232490   8.317   2.945   5.636
10849TIP3   OH232491   8.335   3.826   5.799
10849TIP3    H132492   8.314   3.912   5.763
10849TIP3    H232493   8.259   3.802   5.852
10850TIP3   OH232494   7.729   3.515   5.034
10850TIP3    H132495   7.688   3.541   4.951
10850TIP3    H232496   7.763   3.596   5.071
10851TIP3   OH232497   8.259   3.416   5.263
10851TIP3    H132498   8.223   3.358   5.196
10851TIP3    H232499   8.337   3.370   5.295
10852TIP3   OH232500   8.394   3.834   5.408
10852TIP3    H132501   8.370   3.790   5.326
10852TIP3    H232502   8.478   3.795   5.432
10853TIP3   OH232503   8.536   3.937   5.952
10853TIP3    H132504   8.476   4.000   5.991
10853TIP3    H232505   8.480   3.883   5.896
10854TIP3   OH232506   8.311   3.506   6.071
10854TIP3    H132507   8.291   3.593   6.104
10854TIP3    H232508   8.230   3.477   6.029
10855TIP3   OH232509   0.140   3.994   4.970
10855TIP3    H132510   0.162   4.078   5.011
10855TIP3    H232511   0.070   4.016   4.907
10856TIP3   OH232512   8.332   4.110   6.031
10856TIP3    H132513   8.301   4.112   5.940
10856TIP3    H232514   8.254   4.088   6.082
10857TIP3   OH232515   8.137   3.252   5.056
10857TIP3    H132516   8.067   3.295   5.007
10857TIP3    H232517   8.097   3.173   5.091
10858TIP3   OH232518   7.914   3.644   5.975
10858TIP3    H132519   7.849   3.619   5.908
10858TIP3    H232520   7.949   3.561   6.007
10859TIP3   OH232521   7.771   3.835   5.606
10859TIP3    H132522   7.866   3.825   5.598
10859TIP3    H232523   7.759   3.911   5.663
10860TIP3   OH232524   0.224   4.058   5.796
10860TIP3    H132525   0.230   4.148   5.828
10860TIP3    H232526   0.156   4.017   5.849
10861TIP3   OH232527   8.502   4.197   4.752
10861TIP3    H132528   8.459   4.182   4.668
10861TIP3    H232529   8.472   4.283   4.780
10862TIP3   OH232530   7.940   4.042   5.142
10862TIP3    H132531   7.988   4.040   5.225
10862TIP3    H232532   7.895   3.958   5.139
10863TIP3   OH232533   0.266   4.157   4.686
10863TIP3    H132534   0.176   4.176   4.713
10863TIP3    H232535   0.279   4.065   4.711
10864TIP3   OH232536   8.118   3.827   5.963
10864TIP3    H132537   8.167   3.812   6.044
10864TIP3    H232538   8.045   3.764   5.967
10865TIP3   OH232539   8.500   2.631   5.775
10865TIP3    H132540   8.412   2.614   5.739
10865TIP3    H232541   8.496   2.721   5.807
10866TIP3   OH232542   8.333   3.041   5.275
10866TIP3    H132543   8.245   3.015   5.302
10866TIP3    H232544   8.345   3.000   5.189
10867TIP3   OH232545   8.300   2.622   4.672
10867TIP3    H132546   8.299   2.643   4.765
10867TIP3    H232547   8.247   2.691   4.632
10868TIP3   OH232548   7.866   2.707   5.559
10868TIP3    H132549   7.931   2.748   5.617
10868TIP3    H232550   7.915   2.687   5.479
10869TIP3   OH232551   7.828   2.695   5.075
10869TIP3    H132552   7.874   2.730   4.998
10869TIP3    H232553   7.767   2.765   5.100
10870TIP3   OH232554   8.095   2.930   5.345
10870TIP3    H132555   8.002   2.936   5.323
10870TIP3    H232556   8.116   2.837   5.331
10871TIP3   OH232557   8.371   2.923   5.030
10871TIP3    H132558   8.454   2.951   4.991
10871TIP3    H232559   8.306   2.937   4.960
10872TIP3   OH232560   8.213   2.948   4.815
10872TIP3    H132561   8.142   2.905   4.767
10872TIP3    H232562   8.266   2.988   4.747
10873TIP3   OH232563   8.274   3.759   6.191
10873TIP3    H132564   8.357   3.781   6.234
10873TIP3    H232565   8.212   3.751   6.263
10874TIP3   OH232566   8.252   2.685   5.323
10874TIP3    H132567   8.224   2.612   5.379
10874TIP3    H232568   8.305   2.644   5.255
10875TIP3   OH232569   0.186   3.116   5.797
10875TIP3    H132570   0.116   3.142   5.737
10875TIP3    H232571   0.258   3.175   5.777
10876TIP3   OH232572   8.426   3.511   4.824
10876TIP3    H132573   8.377   3.429   4.818
10876TIP3    H232574   8.432   3.529   4.918
10877TIP3   OH232575   0.336   3.792   5.857
10877TIP3    H132576   0.344   3.772   5.950
10877TIP3    H232577   0.301   3.882   5.855
10878TIP3   OH232578   8.163   3.501   5.516
10878TIP3    H132579   8.195   3.470   5.432
10878TIP3    H232580   8.198   3.439   5.580
10879TIP3   OH232581   0.065   3.632   4.623
10879TIP3    H132582   0.040   3.722   4.644
10879TIP3    H232583   0.035   3.580   4.697
10880TIP3   OH232584   8.020   3.441   6.123
10880TIP3    H132585   8.063   3.426   6.207
10880TIP3    H232586   7.969   3.362   6.107
10881TIP3   OH232587   0.250   3.543   6.135
10881TIP3    H132588   0.190   3.491   6.082
10881TIP3    H232589   0.337   3.511   6.112
10882TIP3   OH232590   8.253   3.814   5.124
10882TIP3    H132591   8.250   3.893   5.070
10882TIP3    H232592   8.161   3.792   5.139
10883TIP3   OH232593   7.816   3.118   4.835
10883TIP3    H132594   7.862   3.199   4.854
10883TIP3    H232595   7.740   3.118   4.893
10884TIP3   OH232596   8.398   3.579   5.086
10884TIP3    H132597   8.358   3.666   5.094
10884TIP3    H232598   8.354   3.526   5.152
10885TIP3   OH232599   0.020   4.155   5.596
10885TIP3    H132600   0.055   4.230   5.547
10885TIP3    H232601   0.096   4.118   5.641
10886TIP3   OH232602   8.169   4.056   4.978
10886TIP3    H132603   8.086   4.062   5.026
10886TIP3    H232604   8.204   4.145   4.980
10887TIP3   OH232605   8.252   2.906   6.135
10887TIP3    H132606   8.164   2.943   6.135
10887TIP3    H232607   8.254   2.849   6.213
10888TIP3   OH232608   7.961   4.015   5.754
10888TIP3    H132609   8.012   3.943   5.790
10888TIP3    H232610   7.985   4.091   5.806
10889TIP3   OH232611   8.245   3.659   4.441
10889TIP3    H132612   8.251   3.568   4.415
10889TIP3    H232613   8.228   3.657   4.535
10890TIP3   OH232614   8.198   3.667   4.710
10890TIP3    H132615   8.276   3.633   4.754
10890TIP3    H232616   8.203   3.762   4.724
10891TIP3   OH232617   7.925   3.362   4.914
10891TIP3    H132618   7.859   3.402   4.971
10891TIP3    H232619   7.942   3.428   4.847
10892TIP3   OH232620   8.459   3.879   4.663
10892TIP3    H132621   8.370   3.897   4.695
10892TIP3    H232622   8.484   3.959   4.618
10893TIP3   OH232623   8.200   3.944   4.727
10893TIP3    H132624   8.170   4.011   4.666
10893TIP3    H232625   8.188   3.983   4.814
10894TIP3   OH232626   8.319   2.664   4.955
10894TIP3    H132627   8.294   2.740   5.008
10894TIP3    H232628   8.399   2.690   4.910
10895TIP3   OH232629   7.929   3.566   4.715
10895TIP3    H132630   7.997   3.632   4.730
10895TIP3    H232631   7.967   3.508   4.649
10896TIP3   OH232632   7.865   2.847   4.850
10896TIP3    H132633   7.868   2.942   4.852
10896TIP3    H232634   7.782   2.826   4.807
10897TIP3   OH232635   8.237   2.566   5.721
10897TIP3    H132636   8.221   2.531   5.634
10897TIP3    H232637   8.233   2.490   5.779
10898TIP3   OH232638   7.792   3.787   5.100
10898TIP3    H132639   7.726   3.812   5.165
10898TIP3    H232640   7.760   3.824   5.018
10899TIP3   OH232641   7.953   4.329   6.179
10899TIP3    H132642   8.038   4.330   6.222
10899TIP3    H232643   7.929   4.237   6.174
10900TIP3   OH232644   8.432   4.286   6.218
10900TIP3    H132645   8.524   4.261   6.227
10900TIP3    H232646   8.398   4.230   6.148
10901TIP3   OH232647   8.405   3.861   4.349
10901TIP3    H132648   8.344   3.794   4.382
10901TIP3    H232649   8.491   3.830   4.378
10902TIP3   OH232650   8.076   3.732   6.380
10902TIP3    H132651   8.094   3.639   6.387
10902TIP3    H232652   7.993   3.737   6.332
10903TIP3   OH232653   8.068   3.380   4.571
10903TIP3    H132654   8.117   3.352   4.648
10903TIP3    H232655   8.135   3.387   4.502
10904TIP3   OH232656   0.200   3.821   6.145
10904TIP3    H132657   0.145   3.838   6.068
10904TIP3    H232658   0.214   3.726   6.144
10905TIP3   OH232659   0.054   3.561   4.367
10905TIP3    H132660   0.074   3.597   4.454
10905TIP3    H232661  -0.023   3.506   4.382
10906TIP3   OH232662   8.201   3.466   6.355
10906TIP3    H132663   8.281   3.433   6.314
10906TIP3    H232664   8.229   3.495   6.442
10907TIP3   OH232665   8.257   3.285   4.787
10907TIP3    H132666   8.232   3.252   4.873
10907TIP3    H232667   8.302   3.211   4.745
10908TIP3   OH232668   8.513   3.336   6.045
10908TIP3    H132669   8.438   3.391   6.067
10908TIP3    H232670   8.526   3.349   5.951
10909TIP3   OH232671   8.372   3.076   4.629
10909TIP3    H132672   8.331   3.087   4.543
10909TIP3    H232673   8.463   3.054   4.610
10910TIP3   OH232674   0.165   3.135   6.143
10910TIP3    H132675   0.160   3.054   6.093
10910TIP3    H232676   0.109   3.197   6.096
10911TIP3   OH232677   0.174   2.907   5.968
10911TIP3    H132678   0.175   2.974   5.900
10911TIP3    H232679   0.086   2.870   5.964
10912TIP3   OH232680   0.188   3.464   5.854
10912TIP3    H132681   0.166   3.400   5.787
10912TIP3    H232682   0.134   3.541   5.834
10913TIP3   OH232683   8.494   3.271   6.356
10913TIP3    H132684   8.440   3.194   6.371
10913TIP3    H232685   8.527   3.261   6.266
10914TIP3   OH232686   8.362   3.035   6.420
10914TIP3    H132687   8.367   2.946   6.387
10914TIP3    H232688   8.407   3.033   6.504
10915TIP3   OH232689   8.165   4.145   4.537
10915TIP3    H132690   8.260   4.138   4.531
10915TIP3    H232691   8.140   4.197   4.460
10916TIP3   OH232692   7.657   3.527   4.750
10916TIP3    H132693   7.749   3.549   4.738
10916TIP3    H232694   7.647   3.440   4.712
10917TIP3   OH232695   7.576   4.129   5.156
10917TIP3    H132696   7.501   4.076   5.130
10917TIP3    H232697   7.617   4.080   5.228
10918TIP3   OH232698   7.701   3.990   5.358
10918TIP3    H132699   7.686   3.918   5.419
10918TIP3    H232700   7.755   4.052   5.406
10919TIP3   OH232701   7.912   3.393   5.728
10919TIP3    H132702   7.892   3.359   5.640
10919TIP3    H232703   8.007   3.392   5.734
10920TIP3   OH232704   8.096   3.069   6.389
10920TIP3    H132705   8.191   3.076   6.389
10920TIP3    H232706   8.077   2.990   6.441
10921TIP3   OH232707   8.065   2.779   5.737
10921TIP3    H132708   8.124   2.704   5.741
10921TIP3    H232709   8.123   2.855   5.731
10922TIP3   OH232710   7.871   3.048   5.804
10922TIP3    H132711   7.917   3.038   5.720
10922TIP3    H232712   7.913   3.124   5.845
10923TIP3   OH232713   7.855   2.540   5.297
10923TIP3    H132714   7.767   2.542   5.334
10923TIP3    H232715   7.852   2.604   5.225
10924TIP3   OH232716   8.070   2.625   6.118
10924TIP3    H132717   8.021   2.628   6.200
10924TIP3    H232718   8.013   2.669   6.055
10925TIP3   OH232719   8.113   4.067   6.195
10925TIP3    H132720   8.023   4.039   6.176
10925TIP3    H232721   8.129   4.037   6.285
10926TIP3   OH232722   8.296   4.099   5.744
10926TIP3    H132723   8.245   4.171   5.708
10926TIP3    H232724   8.381   4.105   5.701
10927TIP3   OH232725   0.228   4.324   5.888
10927TIP3    H132726   0.275   4.330   5.972
10927TIP3    H232727   0.277   4.380   5.829
10928TIP3   OH232728   0.373   4.488   5.707
10928TIP3    H132729   0.417   4.480   5.623
10928TIP3    H232730   0.405   4.570   5.744
10929TIP3   OH232731   7.967   4.349   5.771
10929TIP3    H132732   7.880   4.379   5.745
10929TIP3    H232733   7.984   4.392   5.854
10930TIP3   OH232734   8.202   4.328   5.626
10930TIP3    H132735   8.118   4.340   5.670
10930TIP3    H232736   8.187   4.361   5.537
10931TIP3   OH232737   0.102   4.365   5.427
10931TIP3    H132738   0.030   4.374   5.365
10931TIP3    H232739   0.116   4.454   5.460
10932TIP3   OH232740   0.353   4.264   5.408
10932TIP3    H132741   0.263   4.297   5.415
10932TIP3    H232742   0.408   4.339   5.432
10933TIP3   OH232743   7.885   4.140   5.512
10933TIP3    H132744   7.905   4.115   5.602
10933TIP3    H232745   7.954   4.099   5.460
10934TIP3   OH232746   8.080   4.012   5.374
10934TIP3    H132747   8.091   3.929   5.420
10934TIP3    H232748   8.168   4.049   5.369
10935TIP3   OH232749   8.346   4.105   5.378
10935TIP3    H132750   8.369   4.013   5.367
10935TIP3    H232751   8.390   4.131   5.459
10936TIP3   OH232752   8.173   2.462   5.468
10936TIP3    H132753   8.082   2.434   5.476
10936TIP3    H232754   8.222   2.380   5.454
10937TIP3   OH232755   7.955   2.345   5.111
10937TIP3    H132756   7.983   2.407   5.043
10937TIP3    H232757   7.928   2.401   5.184
10938TIP3   OH232758   7.667   3.917   4.898
10938TIP3    H132759   7.589   3.895   4.848
10938TIP3    H232760   7.644   3.995   4.947
10939TIP3   OH232761   8.072   2.503   4.890
10939TIP3    H132762   8.113   2.446   4.825
10939TIP3    H232763   8.143   2.559   4.921
10940TIP3   OH232764   8.434   4.099   4.492
10940TIP3    H132765   8.524   4.113   4.465
10940TIP3    H232766   8.402   4.029   4.435
10941TIP3   OH232767   8.373   2.755   6.372
10941TIP3    H132768   8.356   2.695   6.445
10941TIP3    H232769   8.466   2.742   6.351
10942TIP3   OH232770   7.754   3.937   4.551
10942TIP3    H132771   7.763   3.934   4.646
10942TIP3    H232772   7.834   3.895   4.518
10943TIP3   OH232773   1.309   4.272   6.731
10943TIP3    H132774   1.282   4.362   6.713
10943TIP3    H232775   1.234   4.219   6.703
10944TIP3   OH232776   6.976   0.262   0.181
10944TIP3    H132777   7.012   0.241   0.267
10944TIP3    H232778   6.934   0.181   0.152
10945TIP3   OH232779   6.306   0.134   0.500
10945TIP3    H132780   6.273   0.091   0.579
10945TIP3    H232781   6.341   0.218   0.530
10946TIP3   OH232782   1.553   4.577   6.801
10946TIP3    H132783   1.539   4.506   6.864
10946TIP3    H232784   1.585   4.650   6.854
10947TIP3   OH232785   6.258   0.550   0.216
10947TIP3    H132786   6.235   0.459   0.230
10947TIP3    H232787   6.349   0.557   0.245
10948TIP3   OH232788   6.037   0.050   0.174
10948TIP3    H132789   6.058   0.017   0.261
10948TIP3    H232790   6.072   0.139   0.172
10949TIP3   OH232791   1.207   5.033   6.818
10949TIP3    H132792   1.248   4.965   6.763
10949TIP3    H232793   1.197   4.992   6.904
10950TIP3   OH232794   6.779   0.487   0.223
10950TIP3    H132795   6.815   0.408   0.184
10950TIP3    H232796   6.856   0.537   0.251
10951TIP3   OH232797   4.957   7.823   0.220
10951TIP3    H132798   4.986   7.903   0.263
10951TIP3    H232799   4.984   7.834   0.129
10952TIP3   OH232800   4.353   8.001   0.252
10952TIP3    H132801   4.397   7.920   0.277
10952TIP3    H232802   4.321   7.985   0.163
10953TIP3   OH232803   3.694   7.661   0.218
10953TIP3    H132804   3.679   7.735   0.160
10953TIP3    H232805   3.648   7.588   0.177
10954TIP3   OH232806   1.558   3.747   6.780
10954TIP3    H132807   1.623   3.733   6.849
10954TIP3    H232808   1.608   3.782   6.706
10955TIP3   OH232809   3.326   7.851   0.341
10955TIP3    H132810   3.409   7.857   0.389
10955TIP3    H232811   3.352   7.822   0.253
10956TIP3   OH232812   6.607   0.046   0.106
10956TIP3    H132813   6.697   0.025   0.130
10956TIP3    H232814   6.567  -0.038   0.083
10957TIP3   OH232815   7.861   0.017   0.394
10957TIP3    H132816   7.779   0.060   0.372
10957TIP3    H232817   7.882   0.048   0.482
10958TIP3   OH232818   3.684   7.634   0.654
10958TIP3    H132819   3.634   7.684   0.589
10958TIP3    H232820   3.649   7.662   0.738
10959TIP3   OH232821   1.198   4.494   6.600
10959TIP3    H132822   1.157   4.476   6.515
10959TIP3    H232823   1.156   4.574   6.631
10960TIP3   OH232824   6.626   0.416   0.451
10960TIP3    H132825   6.567   0.478   0.492
10960TIP3    H232826   6.666   0.465   0.379
10961TIP3   OH232827   4.591   7.763   0.021
10961TIP3    H132828   4.583   7.713   0.102
10961TIP3    H232829   4.645   7.839   0.044
10962TIP3   OH232830   3.573   7.761   0.440
10962TIP3    H132831   3.626   7.837   0.467
10962TIP3    H232832   3.621   7.724   0.366
10963TIP3   OH232833   6.440   0.591   0.571
10963TIP3    H132834   6.397   0.661   0.522
10963TIP3    H232835   6.371   0.552   0.624
10964TIP3   OH232836   7.286   0.813   0.024
10964TIP3    H132837   7.200   0.800   0.063
10964TIP3    H232838   7.280   0.897  -0.021
10965TIP3   OH232839   4.749   7.723   0.386
10965TIP3    H132840   4.663   7.750   0.355
10965TIP3    H232841   4.810   7.754   0.319
10966TIP3   OH232842   4.038   7.355   0.368
10966TIP3    H132843   4.030   7.262   0.390
10966TIP3    H232844   3.965   7.397   0.413
10967TIP3   OH232845   1.324   4.860   6.633
10967TIP3    H132846   1.370   4.778   6.619
10967TIP3    H232847   1.382   4.927   6.596
10968TIP3   OH232848   1.468   4.644   6.548
10968TIP3    H132849   1.423   4.567   6.515
10968TIP3    H232850   1.507   4.616   6.631
10969TIP3   OH232851   7.514   0.719   0.367
10969TIP3    H132852   7.503   0.642   0.311
10969TIP3    H232853   7.498   0.794   0.309
10970TIP3   OH232854   1.139   4.121   6.566
10970TIP3    H132855   1.061   4.173   6.548
10970TIP3    H232856   1.187   4.120   6.483
10971TIP3   OH232857   1.102   3.908   6.278
10971TIP3    H132858   1.164   3.962   6.327
10971TIP3    H232859   1.157   3.843   6.234
10972TIP3   OH232860   7.707   0.360   0.212
10972TIP3    H132861   7.626   0.410   0.218
10972TIP3    H232862   7.742   0.381   0.125
10973TIP3   OH232863   1.489   4.204   6.538
10973TIP3    H132864   1.434   4.228   6.613
10973TIP3    H232865   1.573   4.180   6.577
10974TIP3   OH232866   7.386   0.238   0.513
10974TIP3    H132867   7.385   0.320   0.562
10974TIP3    H232868   7.302   0.237   0.466
10975TIP3   OH232869   0.726   4.194   6.952
10975TIP3    H132870   0.685   4.138   6.887
10975TIP3    H232871   0.804   4.146   6.980
10976TIP3   OH232872   6.537   0.619   0.156
10976TIP3    H132873   6.504   0.573   0.079
10976TIP3    H232874   6.622   0.578   0.174
10977TIP3   OH232875   6.576   0.158   0.363
10977TIP3    H132876   6.581   0.150   0.268
10977TIP3    H232877   6.587   0.251   0.380
10978TIP3   OH232878   7.047   0.804   0.147
10978TIP3    H132879   7.037   0.883   0.200
10978TIP3    H232880   7.032   0.732   0.208
10979TIP3   OH232881   6.657   0.720   0.693
10979TIP3    H132882   6.602   0.780   0.744
10979TIP3    H232883   6.594   0.662   0.650
10980TIP3   OH232884   1.329   4.065   6.361
10980TIP3    H132885   1.385   4.122   6.413
10980TIP3    H232886   1.352   4.084   6.270
10981TIP3   OH232887   6.392   0.255   0.774
10981TIP3    H132888   6.420   0.334   0.822
10981TIP3    H232889   6.299   0.270   0.756
10982TIP3   OH232890   1.075   4.740   6.636
10982TIP3    H132891   1.156   4.790   6.647
10982TIP3    H232892   1.013   4.802   6.599
10983TIP3   OH232893   6.442   0.882   0.770
10983TIP3    H132894   6.414   0.891   0.679
10983TIP3    H232895   6.364   0.848   0.815
10984TIP3   OH232896   1.842   3.304   6.412
10984TIP3    H132897   1.763   3.322   6.463
10984TIP3    H232898   1.858   3.384   6.363
10985TIP3   OH232899   0.601   4.034   6.751
10985TIP3    H132900   0.538   4.082   6.697
10985TIP3    H232901   0.553   3.957   6.781
10986TIP3   OH232902   1.644   4.675   5.950
10986TIP3    H132903   1.657   4.770   5.941
10986TIP3    H232904   1.732   4.638   5.941
10987TIP3   OH232905   7.749   1.067   0.418
10987TIP3    H132906   7.752   0.972   0.428
10987TIP3    H232907   7.668   1.094   0.462
10988TIP3   OH232908   6.855   0.849   0.550
10988TIP3    H132909   6.855   0.940   0.579
10988TIP3    H232910   6.786   0.808   0.602
10989TIP3   OH232911   0.956   4.989   6.442
10989TIP3    H132912   0.905   4.976   6.362
10989TIP3    H232913   0.927   5.074   6.475
10990TIP3   OH232914   1.157   4.886   6.082
10990TIP3    H132915   1.215   4.817   6.050
10990TIP3    H232916   1.186   4.901   6.172
10991TIP3   OH232917   1.205   4.937   6.350
10991TIP3    H132918   1.118   4.948   6.388
10991TIP3    H232919   1.257   4.899   6.421
10992TIP3   OH232920   7.637   0.193   0.692
10992TIP3    H132921   7.558   0.205   0.639
10992TIP3    H232922   7.657   0.100   0.682
10993TIP3   OH232923   3.801   7.442   0.491
10993TIP3    H132924   3.716   7.409   0.463
10993TIP3    H232925   3.781   7.521   0.541
10994TIP3   OH232926   4.342   7.563   0.678
10994TIP3    H132927   4.414   7.530   0.733
10994TIP3    H232928   4.263   7.540   0.726
10995TIP3   OH232929   7.409  -0.027   0.610
10995TIP3    H132930   7.363  -0.032   0.694
10995TIP3    H232931   7.385   0.059   0.575
10996TIP3   OH232932   1.402   4.105   6.103
10996TIP3    H132933   1.369   4.081   6.016
10996TIP3    H232934   1.487   4.146   6.086
10997TIP3   OH232935   1.115   3.480   6.414
10997TIP3    H132936   1.084   3.481   6.504
10997TIP3    H232937   1.079   3.400   6.376
10998TIP3   OH232938   3.737   7.957   0.523
10998TIP3    H132939   3.688   7.980   0.602
10998TIP3    H232940   3.733   8.035   0.468
10999TIP3   OH232941   3.622   7.839   0.031
10999TIP3    H132942   3.529   7.825   0.050
10999TIP3    H232943   3.634   7.802  -0.057
11000TIP3   OH232944   1.276   3.920   6.699
11000TIP3    H132945   1.227   3.991   6.658
11000TIP3    H232946   1.333   3.887   6.629
11001TIP3   OH232947   7.132   0.202   0.841
11001TIP3    H132948   7.103   0.123   0.886
11001TIP3    H232949   7.225   0.208   0.860
11002TIP3   OH232950   1.432   3.945   6.935
11002TIP3    H132951   1.370   3.977   6.869
11002TIP3    H232952   1.470   3.867   6.895
11003TIP3   OH232953   3.566   7.978   0.747
11003TIP3    H132954   3.592   8.067   0.772
11003TIP3    H232955   3.486   7.962   0.797
11004TIP3   OH232956   0.771   3.456   6.376
11004TIP3    H132957   0.764   3.457   6.472
11004TIP3    H232958   0.694   3.505   6.346
11005TIP3   OH232959   3.191   7.512   0.313
11005TIP3    H132960   3.229   7.552   0.391
11005TIP3    H232961   3.267   7.483   0.263
11006TIP3   OH232962   0.326   3.541   6.806
11006TIP3    H132963   0.358   3.528   6.716
11006TIP3    H232964   0.296   3.632   6.807
11007TIP3   OH232965   7.113   0.186   0.417
11007TIP3    H132966   7.146   0.119   0.357
11007TIP3    H232967   7.081   0.137   0.493
11008TIP3   OH232968   3.952   7.668   0.094
11008TIP3    H132969   3.875   7.665   0.152
11008TIP3    H232970   4.026   7.655   0.153
11009TIP3   OH232971   3.384   7.710   0.099
11009TIP3    H132972   3.300   7.697   0.055
11009TIP3    H232973   3.433   7.630   0.080
11010TIP3   OH232974   0.812   3.707   6.730
11010TIP3    H132975   0.905   3.723   6.715
11010TIP3    H232976   0.770   3.733   6.648
11011TIP3   OH232977   4.440   7.742   0.299
11011TIP3    H132978   4.408   7.758   0.388
11011TIP3    H232979   4.377   7.681   0.262
11012TIP3   OH232980   0.662   3.745   6.500
11012TIP3    H132981   0.598   3.700   6.445
11012TIP3    H232982   0.720   3.790   6.438
11013TIP3   OH232983   7.449   1.417   0.515
11013TIP3    H132984   7.443   1.439   0.422
11013TIP3    H232985   7.526   1.464   0.546
11014TIP3   OH232986   6.417   0.486   0.913
11014TIP3    H132987   6.489   0.542   0.942
11014TIP3    H232988   6.348   0.500   0.978
11015TIP3   OH232989   4.031   7.995   0.191
11015TIP3    H132990   4.105   7.956   0.143
11015TIP3    H232991   4.033   7.953   0.276
11016TIP3   OH232992   3.543   7.482   0.070
11016TIP3    H132993   3.518   7.402   0.116
11016TIP3    H232994   3.600   7.453  -0.000
11017TIP3   OH232995   4.006   7.897   0.477
11017TIP3    H132996   3.918   7.933   0.490
11017TIP3    H232997   4.064   7.956   0.525
11018TIP3   OH232998   0.909   4.273   6.515
11018TIP3    H132999   0.839   4.209   6.501
11018TIP3    H233000   0.893   4.307   6.603
11019TIP3   OH233001   7.474   0.505   0.200
11019TIP3    H133002   7.500   0.554   0.122
11019TIP3    H233003   7.393   0.462   0.174
11020TIP3   OH233004   1.363   3.592   6.364
11020TIP3    H133005   1.273   3.569   6.386
11020TIP3    H233006   1.376   3.678   6.402
11021TIP3   OH233007   6.976   0.589   0.573
11021TIP3    H133008   6.998   0.568   0.664
11021TIP3    H233009   6.938   0.676   0.577
11022TIP3   OH233010   1.438   3.833   6.482
11022TIP3    H133011   1.532   3.837   6.500
11022TIP3    H233012   1.420   3.913   6.433
11023TIP3   OH233013   6.273   0.276   0.252
11023TIP3    H133014   6.319   0.236   0.178
11023TIP3    H233015   6.287   0.216   0.325
11024TIP3   OH233016   1.052   4.425   6.338
11024TIP3    H133017   1.006   4.509   6.339
11024TIP3    H233018   1.001   4.369   6.397
11025TIP3   OH233019   6.880   0.325   0.863
11025TIP3    H133020   6.816   0.265   0.825
11025TIP3    H233021   6.965   0.290   0.836
11026TIP3   OH233022   7.133   0.847   0.468
11026TIP3    H133023   7.039   0.842   0.481
11026TIP3    H233024   7.165   0.900   0.542
11027TIP3   OH233025   1.871   3.929   6.316
11027TIP3    H133026   1.811   3.882   6.257
11027TIP3    H233027   1.875   4.018   6.280
11028TIP3   OH233028   7.763   0.780   0.453
11028TIP3    H133029   7.668   0.772   0.449
11028TIP3    H233030   7.794   0.750   0.368
11029TIP3   OH233031   1.576   4.744   6.224
11029TIP3    H133032   1.554   4.682   6.294
11029TIP3    H233033   1.592   4.689   6.147
11030TIP3   OH233034   7.241   0.365   0.117
11030TIP3    H133035   7.149   0.343   0.132
11030TIP3    H233036   7.277   0.287   0.075
11031TIP3   OH233037   0.704   4.601   6.811
11031TIP3    H133038   0.696   4.680   6.757
11031TIP3    H233039   0.624   4.599   6.863
11032TIP3   OH233040   0.275   3.915   6.536
11032TIP3    H133041   0.334   3.988   6.552
11032TIP3    H233042   0.187   3.953   6.544
11033TIP3   OH233043   0.836   4.364   6.758
11033TIP3    H133044   0.802   4.452   6.773
11033TIP3    H233045   0.805   4.312   6.832
11034TIP3   OH233046   6.650   0.939   0.346
11034TIP3    H133047   6.689   1.009   0.294
11034TIP3    H233048   6.724   0.899   0.393
11035TIP3   OH233049   0.618   4.846   6.674
11035TIP3    H133050   0.541   4.864   6.727
11035TIP3    H233051   0.663   4.930   6.667
11036TIP3   OH233052   7.027   0.571   0.307
11036TIP3    H133053   7.015   0.571   0.402
11036TIP3    H233054   7.104   0.517   0.292
11037TIP3   OH233055   1.334   4.479   6.135
11037TIP3    H133056   1.392   4.454   6.207
11037TIP3    H233057   1.249   4.444   6.160
11038TIP3   OH233058   7.275   1.103   0.352
11038TIP3    H133059   7.198   1.047   0.350
11038TIP3    H233060   7.261   1.167   0.282
11039TIP3   OH233061   1.675   4.962   5.940
11039TIP3    H133062   1.730   5.039   5.925
11039TIP3    H233063   1.595   4.996   5.979
11040TIP3   OH233064   1.501   4.400   6.339
11040TIP3    H133065   1.486   4.339   6.411
11040TIP3    H233066   1.596   4.401   6.327
11041TIP3   OH233067   0.703   4.447   6.125
11041TIP3    H133068   0.715   4.356   6.100
11041TIP3    H233069   0.683   4.444   6.219
11042TIP3   OH233070   0.652   4.460   6.399
11042TIP3    H133071   0.724   4.431   6.456
11042TIP3    H233072   0.653   4.555   6.405
11043TIP3   OH233073   0.398   4.146   6.609
11043TIP3    H133074   0.344   4.192   6.673
11043TIP3    H233075   0.411   4.210   6.538
11044TIP3   OH233076   4.366   7.803   0.557
11044TIP3    H133077   4.450   7.837   0.587
11044TIP3    H233078   4.355   7.720   0.604
11045TIP3   OH233079   1.414   3.538   6.662
11045TIP3    H133080   1.405   3.562   6.570
11045TIP3    H233081   1.455   3.615   6.703
11046TIP3   OH233082   0.911   4.658   6.345
11046TIP3    H133083   0.827   4.676   6.387
11046TIP3    H233084   0.930   4.736   6.293
11047TIP3   OH233085   1.094   3.722   6.766
11047TIP3    H133086   1.157   3.791   6.745
11047TIP3    H233087   1.102   3.709   6.860
11048TIP3   OH233088   7.036   0.023   0.620
11048TIP3    H133089   7.054   0.068   0.703
11048TIP3    H233090   7.088  -0.057   0.625
11049TIP3   OH233091   1.244   3.440   6.860
11049TIP3    H133092   1.246   3.508   6.927
11049TIP3    H233093   1.303   3.472   6.792
11050TIP3   OH233094   0.658   4.731   6.421
11050TIP3    H133095   0.631   4.797   6.357
11050TIP3    H233096   0.639   4.772   6.506
11051TIP3   OH233097   0.759   3.446   6.654
11051TIP3    H133098   0.756   3.535   6.688
11051TIP3    H233099   0.851   3.421   6.659
11052TIP3   OH233100   4.840   7.943   0.610
11052TIP3    H133101   4.745   7.943   0.617
11052TIP3    H233102   4.858   7.897   0.529
11053TIP3   OH233103   7.328   0.122  -0.000
11053TIP3    H133104   7.252   0.064   0.012
11053TIP3    H233105   7.399   0.078   0.046
11054TIP3   OH233106   0.385   4.359   6.442
11054TIP3    H133107   0.460   4.419   6.437
11054TIP3    H233108   0.391   4.308   6.361
11055TIP3   OH233109   0.286   3.635   6.549
11055TIP3    H133110   0.296   3.730   6.548
11055TIP3    H233111   0.265   3.613   6.458
11056TIP3   OH233112   1.632   5.091   6.884
11056TIP3    H133113   1.587   5.134   6.812
11056TIP3    H233114   1.725   5.107   6.867
11057TIP3   OH233115   3.537   7.356   0.470
11057TIP3    H133116   3.512   7.323   0.384
11057TIP3    H233117   3.532   7.279   0.528
11058TIP3   OH233118   6.527   1.086   0.944
11058TIP3    H133119   6.611   1.077   0.990
11058TIP3    H233120   6.525   1.011   0.884
11059TIP3   OH233121   0.863   4.650   6.034
11059TIP3    H133122   0.806   4.584   6.074
11059TIP3    H233123   0.940   4.601   6.004
11060TIP3   OH233124   7.191   0.986   0.696
11060TIP3    H133125   7.179   0.912   0.756
11060TIP3    H233126   7.266   1.034   0.733
11061TIP3   OH233127   1.310   4.684   5.962
11061TIP3    H133128   1.317   4.619   6.031
11061TIP3    H233129   1.395   4.680   5.917
11062TIP3   OH233130   0.513   4.172   6.268
11062TIP3    H133131   0.570   4.148   6.341
11062TIP3    H233132   0.571   4.176   6.193
11063TIP3   OH233133   6.831   0.602   0.879
11063TIP3    H133134   6.779   0.624   0.802
11063TIP3    H233135   6.850   0.509   0.870
11064TIP3   OH233136   1.027   4.369   6.070
11064TIP3    H133137   1.026   4.385   6.164
11064TIP3    H233138   1.026   4.274   6.061
11065TIP3   OH233139   7.299   0.615   0.508
11065TIP3    H133140   7.375   0.654   0.464
11065TIP3    H233141   7.228   0.678   0.493
11066TIP3   OH233142   0.714   4.077   6.480
11066TIP3    H133143   0.695   4.039   6.566
11066TIP3    H233144   0.753   4.005   6.430
11067TIP3   OH233145   6.656   0.139   0.770
11067TIP3    H133146   6.576   0.190   0.767
11067TIP3    H233147   6.706   0.167   0.693
11068TIP3   OH233148   0.824   3.874   6.321
11068TIP3    H133149   0.795   3.880   6.230
11068TIP3    H233150   0.919   3.875   6.316
11069TIP3   OH233151   7.178   0.529   0.907
11069TIP3    H133152   7.245   0.501   0.845
11069TIP3    H233153   7.169   0.456   0.968
11070TIP3   OH233154   1.633   4.200   5.986
11070TIP3    H133155   1.621   4.153   5.904
11070TIP3    H233156   1.602   4.289   5.967
11071TIP3   OH233157   3.938   7.929   0.892
11071TIP3    H133158   3.929   7.856   0.831
11071TIP3    H233159   3.883   7.998   0.853
11072TIP3   OH233160   3.938   7.730   0.693
11072TIP3    H133161   3.967   7.778   0.616
11072TIP3    H233162   3.847   7.707   0.673
11073TIP3   OH233163   6.805   0.247   0.575
11073TIP3    H133164   6.889   0.257   0.529
11073TIP3    H233165   6.746   0.307   0.530
11074TIP3   OH233166   7.399   0.200   0.949
11074TIP3    H133167   7.432   0.111   0.964
11074TIP3    H233168   7.471   0.245   0.905
11075TIP3   OH233169   7.428   0.468   0.691
11075TIP3    H133170   7.370   0.520   0.636
11075TIP3    H233171   7.515   0.484   0.657
11076TIP3   OH233172   4.077   7.492   0.733
11076TIP3    H133173   4.032   7.576   0.724
11076TIP3    H233174   4.009   7.427   0.719
11077TIP3   OH233175   4.192   7.986   0.944
11077TIP3    H133176   4.178   8.027   1.030
11077TIP3    H233177   4.106   7.956   0.918
11078TIP3   OH233178   4.453   7.944   0.847
11078TIP3    H133179   4.368   7.938   0.889
11078TIP3    H233180   4.516   7.919   0.915
11079TIP3   OH233181   4.664   7.906   1.034
11079TIP3    H133182   4.693   7.816   1.021
11079TIP3    H233183   4.656   7.916   1.129
11080TIP3   OH233184   4.093   7.339   0.965
11080TIP3    H133185   4.147   7.382   1.032
11080TIP3    H233186   4.101   7.395   0.888
11081TIP3   OH233187   0.630   4.923   6.225
11081TIP3    H133188   0.724   4.923   6.206
11081TIP3    H233189   0.593   4.982   6.159
11082TIP3   OH233190   1.885   5.180   6.847
11082TIP3    H133191   1.912   5.209   6.935
11082TIP3    H233192   1.952   5.216   6.789
11083TIP3   OH233193   7.579   1.187   0.191
11083TIP3    H133194   7.532   1.104   0.184
11083TIP3    H233195   7.657   1.167   0.243
11084TIP3   OH233196   7.627   0.867   0.768
11084TIP3    H133197   7.552   0.876   0.826
11084TIP3    H233198   7.668   0.954   0.768
11085TIP3   OH233199   1.779   4.388   6.320
11085TIP3    H133200   1.844   4.451   6.288
11085TIP3    H233201   1.820   4.350   6.398
11086TIP3   OH233202   1.903   4.255   6.526
11086TIP3    H133203   1.839   4.215   6.584
11086TIP3    H233204   1.971   4.289   6.584
11087TIP3   OH233205   1.961   4.647   6.952
11087TIP3    H133206   2.014   4.579   6.911
11087TIP3    H233207   1.957   4.718   6.888
11088TIP3   OH233208   7.452   0.940   0.209
11088TIP3    H133209   7.382   0.981   0.260
11088TIP3    H233210   7.407   0.894   0.139
11089TIP3   OH233211   1.837   4.164   6.169
11089TIP3    H133212   1.769   4.165   6.101
11089TIP3    H233213   1.814   4.237   6.226
11090TIP3   OH233214   1.704   3.832   6.125
11090TIP3    H133215   1.672   3.872   6.044
11090TIP3    H233216   1.685   3.739   6.116
11091TIP3   OH233217   1.714   4.112   6.671
11091TIP3    H133218   1.726   4.018   6.662
11091TIP3    H233219   1.701   4.126   6.765
11092TIP3   OH233220   7.676   0.530   0.589
11092TIP3    H133221   7.744   0.463   0.580
11092TIP3    H233222   7.697   0.594   0.521
11093TIP3   OH233223   7.855   0.328   0.606
11093TIP3    H133224   7.779   0.280   0.640
11093TIP3    H233225   7.929   0.269   0.618
11094TIP3   OH233226   1.660   3.564   6.105
11094TIP3    H133227   1.738   3.543   6.157
11094TIP3    H233228   1.592   3.506   6.140
11095TIP3   OH233229   1.715   3.825   6.559
11095TIP3    H133230   1.753   3.739   6.576
11095TIP3    H233231   1.771   3.863   6.491
11096TIP3   OH233232   7.543  -0.006   0.120
11096TIP3    H133233   7.625   0.016   0.075
11096TIP3    H233234   7.554   0.027   0.209
11097TIP3   OH233235   7.612   0.140   0.350
11097TIP3    H133236   7.535   0.172   0.397
11097TIP3    H233237   7.646   0.218   0.304
11098TIP3   OH233238   5.229   7.747   0.902
11098TIP3    H133239   5.292   7.687   0.862
11098TIP3    H233240   5.200   7.804   0.831
11099TIP3   OH233241   1.821   3.576   6.604
11099TIP3    H133242   1.871   3.563   6.684
11099TIP3    H233243   1.761   3.501   6.601
11100TIP3   OH233244   3.375   7.576   0.497
11100TIP3    H133245   3.434   7.500   0.497
11100TIP3    H233246   3.432   7.649   0.473
11101TIP3   OH233247   5.094   7.879   0.704
11101TIP3    H133248   5.010   7.922   0.721
11101TIP3    H233249   5.072   7.806   0.646
11102TIP3   OH233250   1.901   3.511   6.232
11102TIP3    H133251   1.942   3.441   6.183
11102TIP3    H233252   1.967   3.580   6.235
11103TIP3   OH233253   3.076   7.389   0.071
11103TIP3    H133254   3.057   7.302   0.036
11103TIP3    H233255   3.118   7.436  -0.002
11104TIP3   OH233256   1.470   5.044   6.499
11104TIP3    H133257   1.523   5.036   6.420
11104TIP3    H233258   1.515   5.110   6.552
11105TIP3   OH233259   6.412   0.896   0.480
11105TIP3    H133260   6.389   0.985   0.453
11105TIP3    H233261   6.501   0.883   0.447
11106TIP3   OH233262   6.858   1.113   0.627
11106TIP3    H133263   6.894   1.113   0.715
11106TIP3    H233264   6.919   1.167   0.576
11107TIP3   OH233265   7.038   1.273   0.494
11107TIP3    H133266   7.105   1.219   0.451
11107TIP3    H233267   7.086   1.329   0.554
11108TIP3   OH233268   4.999   7.638   0.582
11108TIP3    H133269   4.908   7.629   0.553
11108TIP3    H233270   5.035   7.549   0.574
11109TIP3   OH233271   6.341   1.138   0.325
11109TIP3    H133272   6.303   1.190   0.396
11109TIP3    H233273   6.266   1.117   0.268
11110TIP3   OH233274   6.754   1.137   0.177
11110TIP3    H133275   6.697   1.154   0.102
11110TIP3    H233276   6.766   1.223   0.218
11111TIP3   OH233277   7.022   1.076   0.227
11111TIP3    H133278   6.929   1.092   0.209
11111TIP3    H233279   7.067   1.149   0.183
11112TIP3   OH233280   7.226   1.267   0.137
11112TIP3    H133281   7.213   1.350   0.092
11112TIP3    H233282   7.253   1.206   0.068
11113TIP3   OH233283   6.203   0.796   0.113
11113TIP3    H133284   6.208   0.709   0.152
11113TIP3    H233285   6.293   0.828   0.114
11114TIP3   OH233286   6.478   0.890   0.126
11114TIP3    H133287   6.503   0.799   0.113
11114TIP3    H233288   6.521   0.915   0.208
11115TIP3   OH233289   4.195   7.552   0.200
11115TIP3    H133290   4.160   7.484   0.257
11115TIP3    H233291   4.275   7.514   0.164
11116TIP3   OH233292   4.722   7.443   0.112
11116TIP3    H133293   4.759   7.491   0.038
11116TIP3    H233294   4.628   7.461   0.107
11117TIP3   OH233295   1.989   3.533   6.816
11117TIP3    H133296   2.059   3.478   6.781
11117TIP3    H233297   2.020   3.623   6.804
11118TIP3   OH233298   3.444   7.261   0.226
11118TIP3    H133299   3.356   7.225   0.227
11118TIP3    H233300   3.502   7.185   0.224
11119TIP3   OH233301   0.435   3.124   6.815
11119TIP3    H133302   0.467   3.175   6.741
11119TIP3    H233303   0.344   3.153   6.826
11120TIP3   OH233304   3.895   7.308   0.113
11120TIP3    H133305   3.949   7.349   0.046
11120TIP3    H233306   3.936   7.333   0.196
11121TIP3   OH233307   4.435   7.444   0.092
11121TIP3    H133308   4.447   7.404   0.005
11121TIP3    H233309   4.426   7.370   0.151
11122TIP3   OH233310   1.636   3.363   6.595
11122TIP3    H133311   1.553   3.407   6.612
11122TIP3    H233312   1.628   3.278   6.639
11123TIP3   OH233313   0.531   3.281   6.592
11123TIP3    H133314   0.570   3.222   6.528
11123TIP3    H233315   0.603   3.337   6.621
11124TIP3   OH233316   1.035   3.471   6.677
11124TIP3    H133317   1.093   3.420   6.733
11124TIP3    H233318   1.053   3.562   6.700
11125TIP3   OH233319   0.897   4.885   6.173
11125TIP3    H133320   0.985   4.910   6.142
11125TIP3    H233321   0.873   4.811   6.117
11126TIP3   OH233322   1.615   5.009   6.264
11126TIP3    H133323   1.606   4.914   6.259
11126TIP3    H233324   1.563   5.042   6.191
11127TIP3   OH233325   4.774   7.652   1.018
11127TIP3    H133326   4.803   7.590   1.085
11127TIP3    H233327   4.839   7.644   0.949
11128TIP3   OH233328   7.500   1.146   0.518
11128TIP3    H133329   7.427   1.114   0.466
11128TIP3    H233330   7.486   1.241   0.523
11129TIP3   OH233331   3.106   4.534   6.216
11129TIP3    H133332   3.073   4.621   6.193
11129TIP3    H233333   3.035   4.474   6.191
11130TIP3   OH233334   3.106   4.528   6.606
11130TIP3    H133335   3.123   4.489   6.692
11130TIP3    H233336   3.068   4.456   6.555
11131TIP3   OH233337   8.070   0.415   0.036
11131TIP3    H133338   8.095   0.348   0.100
11131TIP3    H233339   8.153   0.444  -0.002
11132TIP3   OH233340   3.363   4.827   6.289
11132TIP3    H133341   3.329   4.754   6.342
11132TIP3    H233342   3.367   4.901   6.350
11133TIP3   OH233343   2.379   4.828   6.690
11133TIP3    H133344   2.368   4.733   6.691
11133TIP3    H233345   2.474   4.841   6.683
11134TIP3   OH233346   2.079   4.030   6.472
11134TIP3    H133347   2.038   4.114   6.492
11134TIP3    H233348   2.009   3.979   6.430
11135TIP3   OH233349   2.141   4.318   6.652
11135TIP3    H133350   2.188   4.242   6.687
11135TIP3    H233351   2.204   4.360   6.594
11136TIP3   OH233352   3.004   5.290   6.305
11136TIP3    H133353   3.043   5.222   6.250
11136TIP3    H233354   2.991   5.248   6.390
11137TIP3   OH233355   2.906   4.752   6.653
11137TIP3    H133356   2.938   4.670   6.615
11137TIP3    H233357   2.986   4.800   6.675
11138TIP3   OH233358   3.927   4.067   6.647
11138TIP3    H133359   3.954   4.150   6.685
11138TIP3    H233360   3.967   4.066   6.560
11139TIP3   OH233361   3.335   4.258   6.680
11139TIP3    H133362   3.365   4.168   6.693
11139TIP3    H233363   3.258   4.249   6.622
11140TIP3   OH233364   2.652   3.910   6.646
11140TIP3    H133365   2.643   3.986   6.589
11140TIP3    H233366   2.605   3.840   6.601
11141TIP3   OH233367   3.356   3.990   6.266
11141TIP3    H133368   3.421   3.980   6.335
11141TIP3    H233369   3.402   4.038   6.196
11142TIP3   OH233370   2.290   4.112   6.754
11142TIP3    H133371   2.369   4.096   6.805
11142TIP3    H233372   2.301   4.061   6.674
11143TIP3   OH233373   2.712   4.313   6.557
11143TIP3    H133374   2.804   4.298   6.580
11143TIP3    H233375   2.683   4.230   6.520
11144TIP3   OH233376   3.993   4.279   6.824
11144TIP3    H133377   3.911   4.322   6.799
11144TIP3    H233378   4.018   4.320   6.906
11145TIP3   OH233379   5.482   7.904   0.144
11145TIP3    H133380   5.429   7.940   0.073
11145TIP3    H233381   5.432   7.923   0.223
11146TIP3   OH233382   2.989   4.750   6.090
11146TIP3    H133383   2.956   4.732   6.002
11146TIP3    H233384   2.944   4.831   6.117
11147TIP3   OH233385   2.761   4.673   6.873
11147TIP3    H133386   2.701   4.739   6.909
11147TIP3    H233387   2.803   4.716   6.799
11148TIP3   OH233388   3.556   4.006   6.450
11148TIP3    H133389   3.527   3.974   6.535
11148TIP3    H233390   3.606   4.085   6.470
11149TIP3   OH233391   2.518   4.003   6.865
11149TIP3    H133392   2.572   4.077   6.893
11149TIP3    H233393   2.566   3.965   6.791
11150TIP3   OH233394   8.252   0.865   0.036
11150TIP3    H133395   8.229   0.949  -0.002
11150TIP3    H233396   8.177   0.841   0.090
11151TIP3   OH233397   1.977   4.560   6.211
11151TIP3    H133398   1.941   4.586   6.126
11151TIP3    H233399   2.012   4.641   6.248
11152TIP3   OH233400   3.420   5.077   6.450
11152TIP3    H133401   3.336   5.063   6.493
11152TIP3    H233402   3.411   5.161   6.406
11153TIP3   OH233403   3.712   3.970   6.814
11153TIP3    H133404   3.624   3.992   6.784
11153TIP3    H233405   3.770   4.002   6.745
11154TIP3   OH233406   3.002   3.608   6.801
11154TIP3    H133407   2.986   3.515   6.817
11154TIP3    H233408   2.929   3.653   6.844
11155TIP3   OH233409   3.119   5.117   6.121
11155TIP3    H133410   3.163   5.034   6.105
11155TIP3    H233411   3.178   5.183   6.084
11156TIP3   OH233412   3.262   4.902   6.040
11156TIP3    H133413   3.235   4.824   5.990
11156TIP3    H233414   3.302   4.866   6.119
11157TIP3   OH233415   3.649   4.981   6.792
11157TIP3    H133416   3.633   4.903   6.738
11157TIP3    H233417   3.627   5.055   6.735
11158TIP3   OH233418   2.936   4.381   6.052
11158TIP3    H133419   2.858   4.432   6.032
11158TIP3    H233420   2.983   4.375   5.969
11159TIP3   OH233421   2.898   4.162   5.770
11159TIP3    H133422   2.961   4.217   5.817
11159TIP3    H233423   2.951   4.100   5.722
11160TIP3   OH233424   3.843   4.623   6.652
11160TIP3    H133425   3.762   4.673   6.643
11160TIP3    H233426   3.877   4.617   6.563
11161TIP3   OH233427   3.286   4.462   6.025
11161TIP3    H133428   3.231   4.485   6.099
11161TIP3    H233429   3.369   4.435   6.065
11162TIP3   OH233430   3.521   4.499   6.939
11162TIP3    H133431   3.515   4.583   6.984
11162TIP3    H233432   3.436   4.487   6.897
11163TIP3   OH233433   2.515   4.460   6.440
11163TIP3    H133434   2.476   4.401   6.375
11163TIP3    H233435   2.588   4.410   6.477
11164TIP3   OH233436   2.647   4.869   6.588
11164TIP3    H133437   2.626   4.834   6.501
11164TIP3    H233438   2.734   4.834   6.608
11165TIP3   OH233439   2.638   4.434   6.799
11165TIP3    H133440   2.674   4.397   6.718
11165TIP3    H233441   2.692   4.511   6.816
11166TIP3   OH233442   3.186   5.067   6.575
11166TIP3    H133443   3.169   5.144   6.629
11166TIP3    H233444   3.167   4.993   6.633
11167TIP3   OH233445   8.456   0.979   0.181
11167TIP3    H133446   8.398   1.040   0.226
11167TIP3    H233447   8.397   0.925   0.129
11168TIP3   OH233448   3.124   4.322   5.851
11168TIP3    H133449   3.181   4.378   5.903
11168TIP3    H233450   3.148   4.340   5.760
11169TIP3   OH233451   8.216   0.538   0.294
11169TIP3    H133452   8.216   0.625   0.331
11169TIP3    H233453   8.123   0.514   0.287
11170TIP3   OH233454   2.868   5.000   6.129
11170TIP3    H133455   2.951   5.048   6.134
11170TIP3    H233456   2.810   5.058   6.080
11171TIP3   OH233457   8.249   1.146   0.266
11171TIP3    H133458   8.218   1.148   0.176
11171TIP3    H233459   8.171   1.124   0.317
11172TIP3   OH233460   3.637   3.559   5.899
11172TIP3    H133461   3.559   3.582   5.950
11172TIP3    H233462   3.657   3.639   5.849
11173TIP3   OH233463   2.381   4.301   6.246
11173TIP3    H133464   2.315   4.342   6.191
11173TIP3    H233465   2.351   4.211   6.257
11174TIP3   OH233466   3.444   4.926   5.451
11174TIP3    H133467   3.449   5.020   5.432
11174TIP3    H233468   3.533   4.894   5.438
11175TIP3   OH233469   7.828   0.679   0.212
11175TIP3    H133470   7.765   0.657   0.145
11175TIP3    H233471   7.867   0.595   0.237
11176TIP3   OH233472   2.020   4.880   6.783
11176TIP3    H133473   2.115   4.866   6.773
11176TIP3    H233474   2.013   4.955   6.842
11177TIP3   OH233475   3.877   5.325   6.847
11177TIP3    H133476   3.882   5.230   6.861
11177TIP3    H233477   3.797   5.352   6.891
11178TIP3   OH233478   0.149   1.110   0.037
11178TIP3    H133479   0.151   1.201   0.068
11178TIP3    H233480   0.081   1.068   0.090
11179TIP3   OH233481   2.750   5.242   5.929
11179TIP3    H133482   2.706   5.221   5.847
11179TIP3    H233483   2.717   5.328   5.953
11180TIP3   OH233484   2.186   5.089   6.320
11180TIP3    H133485   2.236   5.085   6.401
11180TIP3    H233486   2.139   5.006   6.317
11181TIP3   OH233487   2.952   5.145   5.568
11181TIP3    H133488   3.006   5.076   5.530
11181TIP3    H233489   2.985   5.155   5.657
11182TIP3   OH233490   3.002   5.194   5.840
11182TIP3    H133491   2.914   5.203   5.878
11182TIP3    H233492   3.053   5.150   5.908
11183TIP3   OH233493   0.931   0.448   0.176
11183TIP3    H133494   0.852   0.462   0.124
11183TIP3    H233495   0.949   0.354   0.166
11184TIP3   OH233496   8.033   0.862   0.200
11184TIP3    H133497   8.084   0.845   0.280
11184TIP3    H233498   7.960   0.800   0.204
11185TIP3   OH233499   2.764   3.689   6.929
11185TIP3    H133500   2.678   3.659   6.899
11185TIP3    H233501   2.746   3.772   6.973
11186TIP3   OH233502   6.136   7.811   0.184
11186TIP3    H133503   6.202   7.783   0.247
11186TIP3    H233504   6.053   7.794   0.227
11187TIP3   OH233505   0.710   0.229   0.105
11187TIP3    H133506   0.656   0.228   0.185
11187TIP3    H233507   0.684   0.309   0.060
11188TIP3   OH233508   3.204   4.364   5.597
11188TIP3    H133509   3.163   4.341   5.514
11188TIP3    H233510   3.288   4.404   5.572
11189TIP3   OH233511   2.912   3.734   5.903
11189TIP3    H133512   2.880   3.734   5.993
11189TIP3    H233513   2.872   3.657   5.863
11190TIP3   OH233514   8.346   0.190   0.009
11190TIP3    H133515   8.314   0.233   0.088
11190TIP3    H233516   8.365   0.262  -0.052
11191TIP3   OH233517   2.580   4.088   6.457
11191TIP3    H133518   2.491   4.064   6.479
11191TIP3    H233519   2.596   4.049   6.371
11192TIP3   OH233520   3.065   4.171   6.180
11192TIP3    H133521   3.020   4.246   6.142
11192TIP3    H233522   3.127   4.143   6.112
11193TIP3   OH233523   0.422   0.453   0.348
11193TIP3    H133524   0.396   0.379   0.403
11193TIP3    H233525   0.516   0.461   0.363
11194TIP3   OH233526   3.252   4.221   6.400
11194TIP3    H133527   3.165   4.239   6.366
11194TIP3    H233528   3.269   4.130   6.374
11195TIP3   OH233529   8.171   0.236   0.228
11195TIP3    H133530   8.227   0.291   0.282
11195TIP3    H233531   8.171   0.151   0.271
11196TIP3   OH233532   2.567   3.714   5.864
11196TIP3    H133533   2.559   3.714   5.960
11196TIP3    H233534   2.494   3.767   5.834
11197TIP3   OH233535   2.114   3.754   6.735
11197TIP3    H133536   2.183   3.789   6.791
11197TIP3    H233537   2.159   3.729   6.654
11198TIP3   OH233538   2.074   3.738   6.253
11198TIP3    H133539   2.122   3.769   6.176
11198TIP3    H233540   2.015   3.810   6.276
11199TIP3   OH233541   3.265   4.451   6.852
11199TIP3    H133542   3.287   4.385   6.787
11199TIP3    H233543   3.219   4.402   6.921
11200TIP3   OH233544   2.917   3.915   6.525
11200TIP3    H133545   2.837   3.910   6.578
11200TIP3    H233546   2.971   3.981   6.570
11201TIP3   OH233547   2.342   3.970   6.527
11201TIP3    H133548   2.251   3.976   6.498
11201TIP3    H233549   2.369   3.881   6.504
11202TIP3   OH233550   2.610   3.963   6.216
11202TIP3    H133551   2.702   3.981   6.201
11202TIP3    H233552   2.567   3.988   6.134
11203TIP3   OH233553   3.401   3.985   6.726
11203TIP3    H133554   3.370   4.007   6.814
11203TIP3    H233555   3.332   3.931   6.689
11204TIP3   OH233556   2.458   4.002   5.989
11204TIP3    H133557   2.392   3.955   5.939
11204TIP3    H233558   2.513   4.043   5.923
11205TIP3   OH233559   3.577   5.682   6.943
11205TIP3    H133560   3.573   5.704   6.850
11205TIP3    H233561   3.656   5.726   6.974
11206TIP3   OH233562   8.195   0.787   0.425
11206TIP3    H133563   8.276   0.813   0.468
11206TIP3    H233564   8.131   0.783   0.496
11207TIP3   OH233565   2.507   3.730   6.497
11207TIP3    H133566   2.475   3.654   6.546
11207TIP3    H233567   2.560   3.693   6.427
11208TIP3   OH233568   2.700   4.531   6.001
11208TIP3    H133569   2.632   4.465   5.987
11208TIP3    H233570   2.684   4.564   6.089
11209TIP3   OH233571   3.604   4.763   6.621
11209TIP3    H133572   3.603   4.818   6.542
11209TIP3    H233573   3.522   4.713   6.615
11210TIP3   OH233574   3.163   3.842   5.867
11210TIP3    H133575   3.069   3.825   5.877
11210TIP3    H233576   3.173   3.934   5.892
11211TIP3   OH233577   0.286   0.855   0.054
11211TIP3    H133578   0.294   0.813   0.140
11211TIP3    H233579   0.234   0.933   0.070
11212TIP3   OH233580   3.235   4.091   5.968
11212TIP3    H133581   3.329   4.097   5.986
11212TIP3    H233582   3.216   4.170   5.917
11213TIP3   OH233583   2.401   4.549   6.673
11213TIP3    H133584   2.434   4.527   6.586
11213TIP3    H233585   2.458   4.502   6.733
11214TIP3   OH233586   2.852   4.682   5.831
11214TIP3    H133587   2.806   4.765   5.831
11214TIP3    H233588   2.799   4.625   5.887
11215TIP3   OH233589   7.942   0.471   0.356
11215TIP3    H133590   7.967   0.454   0.446
11215TIP3    H233591   7.882   0.400   0.333
11216TIP3   OH233592   0.178   0.581   0.369
11216TIP3    H133593   0.121   0.539   0.304
11216TIP3    H233594   0.265   0.548   0.349
11217TIP3   OH233595   3.265   5.126   6.891
11217TIP3    H133596   3.172   5.107   6.904
11217TIP3    H233597   3.292   5.169   6.972
11218TIP3   OH233598   3.668   4.185   5.802
11218TIP3    H133599   3.609   4.137   5.743
11218TIP3    H233600   3.669   4.274   5.766
11219TIP3   OH233601   3.903   5.034   6.874
11219TIP3    H133602   3.808   5.026   6.859
11219TIP3    H233603   3.941   4.968   6.817
11220TIP3   OH233604   3.381   4.997   5.715
11220TIP3    H133605   3.350   4.925   5.770
11220TIP3    H233606   3.392   4.958   5.629
11221TIP3   OH233607   3.370   4.626   6.548
11221TIP3    H133608   3.280   4.602   6.568
11221TIP3    H233609   3.408   4.550   6.505
11222TIP3   OH233610   2.502   4.862   6.308
11222TIP3    H133611   2.503   4.939   6.250
11222TIP3    H233612   2.409   4.836   6.312
11223TIP3   OH233613   2.065   4.162   6.010
11223TIP3    H133614   2.112   4.243   6.029
11223TIP3    H233615   1.989   4.163   6.069
11224TIP3   OH233616   2.630   4.622   6.244
11224TIP3    H133617   2.600   4.711   6.266
11224TIP3    H233618   2.601   4.569   6.318
11225TIP3   OH233619   2.772   5.201   6.771
11225TIP3    H133620   2.812   5.272   6.721
11225TIP3    H233621   2.846   5.160   6.817
11226TIP3   OH233622   2.415   5.101   6.154
11226TIP3    H133623   2.332   5.107   6.202
11226TIP3    H233624   2.451   5.190   6.156
11227TIP3   OH233625   3.159   4.834   6.729
11227TIP3    H133626   3.149   4.837   6.824
11227TIP3    H233627   3.222   4.764   6.713
11228TIP3   OH233628   3.136   4.732   5.617
11228TIP3    H133629   3.188   4.708   5.694
11228TIP3    H233630   3.048   4.700   5.638
11229TIP3   OH233631   3.407   5.365   6.779
11229TIP3    H133632   3.332   5.306   6.782
11229TIP3    H233633   3.386   5.427   6.709
11230TIP3   OH233634   3.469   5.203   5.432
11230TIP3    H133635   3.509   5.270   5.376
11230TIP3    H233636   3.391   5.244   5.467
11231TIP3   OH233637   5.322   7.986   0.359
11231TIP3    H133638   5.226   7.988   0.365
11231TIP3    H233639   5.349   7.926   0.428
11232TIP3   OH233640   3.297   4.667   5.836
11232TIP3    H133641   3.282   4.599   5.902
11232TIP3    H233642   3.391   4.661   5.817
11233TIP3   OH233643   7.874   1.054  -0.009
11233TIP3    H133644   7.927   0.981   0.022
11233TIP3    H233645   7.904   1.129   0.043
11234TIP3   OH233646   2.494   4.709   5.618
11234TIP3    H133647   2.506   4.621   5.581
11234TIP3    H233648   2.473   4.694   5.710
11235TIP3   OH233649   2.437   4.714   5.894
11235TIP3    H133650   2.516   4.684   5.938
11235TIP3    H233651   2.443   4.810   5.897
11236TIP3   OH233652   2.173   4.405   6.090
11236TIP3    H133653   2.109   4.449   6.146
11236TIP3    H233654   2.194   4.469   6.022
11237TIP3   OH233655   0.497   0.037   0.048
11237TIP3    H133656   0.579   0.074   0.082
11237TIP3    H233657   0.485  -0.044   0.097
11238TIP3   OH233658   3.213   3.785   6.149
11238TIP3    H133659   3.197   3.810   6.058
11238TIP3    H233660   3.253   3.862   6.188
11239TIP3   OH233661   2.707   4.910   5.837
11239TIP3    H133662   2.622   4.936   5.872
11239TIP3    H233663   2.723   4.970   5.765
11240TIP3   OH233664   2.892   3.975   6.254
11240TIP3    H133665   2.953   4.045   6.231
11240TIP3    H233666   2.900   3.966   6.349
11241TIP3   OH233667   0.338   0.302   0.122
11241TIP3    H133668   0.373   0.341   0.202
11241TIP3    H233669   0.374   0.213   0.121
11242TIP3   OH233670   3.038   3.699   6.354
11242TIP3    H133671   3.023   3.773   6.412
11242TIP3    H233672   3.099   3.732   6.288
11243TIP3   OH233673   2.453   4.989   5.904
11243TIP3    H133674   2.426   5.056   5.841
11243TIP3    H233675   2.439   5.029   5.989
11244TIP3   OH233676   2.555   3.703   6.142
11244TIP3    H133677   2.549   3.791   6.178
11244TIP3    H233678   2.649   3.681   6.147
11245TIP3   OH233679   0.974   0.180   0.101
11245TIP3    H133680   0.879   0.181   0.110
11245TIP3    H233681   0.990   0.150   0.012
11246TIP3   OH233682   3.462   4.393   6.429
11246TIP3    H133683   3.383   4.338   6.431
11246TIP3    H233684   3.527   4.342   6.478
11247TIP3   OH233685   2.174   4.612   5.889
11247TIP3    H133686   2.245   4.674   5.904
11247TIP3    H233687   2.209   4.550   5.826
11248TIP3   OH233688   2.109   3.891   6.032
11248TIP3    H133689   2.119   3.986   6.030
11248TIP3    H233690   2.037   3.873   5.973
11249TIP3   OH233691   3.427   5.347   6.371
11249TIP3    H133692   3.382   5.393   6.300
11249TIP3    H233693   3.520   5.359   6.352
11250TIP3   OH233694   2.499   3.609   6.900
11250TIP3    H133695   2.472   3.578   6.813
11250TIP3    H233696   2.491   3.533   6.957
11251TIP3   OH233697   2.040   4.829   6.279
11251TIP3    H133698   1.976   4.858   6.344
11251TIP3    H233699   2.010   4.869   6.197
11252TIP3   OH233700   7.869   1.368   0.416
11252TIP3    H133701   7.954   1.371   0.459
11252TIP3    H233702   7.847   1.275   0.410
11253TIP3   OH233703   8.344   1.323   0.457
11253TIP3    H133704   8.438   1.308   0.465
11253TIP3    H233705   8.316   1.265   0.386
11254TIP3   OH233706   2.661   4.910   5.530
11254TIP3    H133707   2.609   4.837   5.563
11254TIP3    H233708   2.734   4.868   5.484
11255TIP3   OH233709   0.483   1.237   0.196
11255TIP3    H133710   0.475   1.167   0.260
11255TIP3    H233711   0.560   1.287   0.222
11256TIP3   OH233712   3.098   4.950   5.440
11256TIP3    H133713   3.136   4.884   5.497
11256TIP3    H233714   3.151   4.945   5.360
11257TIP3   OH233715   7.992   0.769   0.615
11257TIP3    H133716   8.012   0.676   0.618
11257TIP3    H233717   7.909   0.774   0.567
11258TIP3   OH233718   2.307   4.423   5.750
11258TIP3    H133719   2.364   4.394   5.822
11258TIP3    H233720   2.366   4.429   5.675
11259TIP3   OH233721   0.099   0.856   0.388
11259TIP3    H133722   0.060   0.876   0.302
11259TIP3    H233723   0.130   0.766   0.378
11260TIP3   OH233724   2.821   4.623   5.563
11260TIP3    H133725   2.823   4.638   5.657
11260TIP3    H233726   2.823   4.528   5.553
11261TIP3   OH233727   3.433   4.876   6.939
11261TIP3    H133728   3.503   4.924   6.896
11261TIP3    H233729   3.354   4.928   6.922
11262TIP3   OH233730   8.115   0.511   0.599
11262TIP3    H133731   8.190   0.465   0.562
11262TIP3    H233732   8.144   0.539   0.685
11263TIP3   OH233733   2.509   4.332   5.965
11263TIP3    H133734   2.489   4.292   6.050
11263TIP3    H233735   2.550   4.262   5.914
11264TIP3   OH233736   8.436   0.380   0.252
11264TIP3    H133737   8.367   0.446   0.260
11264TIP3    H233738   8.498   0.418   0.190
11265TIP3   OH233739   2.619   4.129   5.809
11265TIP3    H133740   2.590   4.133   5.718
11265TIP3    H233741   2.714   4.131   5.804
11266TIP3   OH233742   0.471   0.793   0.392
11266TIP3    H133743   0.541   0.759   0.335
11266TIP3    H233744   0.461   0.726   0.459
11267TIP3   OH233745   3.432   4.457   5.474
11267TIP3    H133746   3.416   4.409   5.393
11267TIP3    H233747   3.402   4.546   5.457
11268TIP3   OH233748   0.074   0.181   0.378
11268TIP3    H133749   0.077   0.103   0.322
11268TIP3    H233750   0.030   0.247   0.324
11269TIP3   OH233751   5.740   7.987   0.184
11269TIP3    H133752   5.764   8.036   0.105
11269TIP3    H233753   5.648   7.962   0.170
11270TIP3   OH233754   0.099   0.511   0.089
11270TIP3    H133755   0.162   0.463   0.036
11270TIP3    H233756   0.051   0.566   0.027
11271TIP3   OH233757   0.687   0.467   0.445
11271TIP3    H133758   0.731   0.382   0.445
11271TIP3    H233759   0.750   0.526   0.403
11272TIP3   OH233760   0.724   0.726   0.187
11272TIP3    H133761   0.667   0.775   0.129
11272TIP3    H233762   0.812   0.738   0.151
11273TIP3   OH233763   8.453   0.283   0.615
11273TIP3    H133764   8.386   0.217   0.631
11273TIP3    H233765   8.485   0.265   0.527
11274TIP3   OH233766   5.870   7.747   0.261
11274TIP3    H133767   5.825   7.827   0.233
11274TIP3    H233768   5.806   7.677   0.248
11275TIP3   OH233769   0.331   0.227   0.476
11275TIP3    H133770   0.314   0.214   0.569
11275TIP3    H233771   0.247   0.209   0.433
11276TIP3   OH233772   0.575   0.189   0.336
11276TIP3    H133773   0.498   0.185   0.393
11276TIP3    H233774   0.646   0.154   0.390
11277TIP3   OH233775   0.810   0.124   0.484
11277TIP3    H133776   0.817   0.030   0.498
11277TIP3    H233777   0.801   0.160   0.572
11278TIP3   OH233778   8.290   0.064   0.672
11278TIP3    H133779   8.293  -0.024   0.635
11278TIP3    H233780   8.327   0.054   0.760
11279TIP3   OH233781   5.968   7.749   0.517
11279TIP3    H133782   6.032   7.678   0.511
11279TIP3    H233783   5.926   7.751   0.431
11280TIP3   OH233784   6.033   7.967   0.673
11280TIP3    H133785   6.014   7.896   0.612
11280TIP3    H233786   5.958   8.025   0.666
11281TIP3   OH233787   2.427   5.192   5.715
11281TIP3    H133788   2.520   5.179   5.700
11281TIP3    H233789   2.397   5.242   5.639
11282TIP3   OH233790   1.903   4.570   5.931
11282TIP3    H133791   1.994   4.594   5.917
11282TIP3    H233792   1.894   4.483   5.893
11283TIP3   OH233793   1.820   5.176   6.346
11283TIP3    H133794   1.752   5.119   6.310
11283TIP3    H233795   1.864   5.123   6.412
11284TIP3   OH233796   1.952   5.028   6.537
11284TIP3    H133797   1.941   4.957   6.600
11284TIP3    H233798   2.006   5.093   6.583
11285TIP3   OH233799   3.691   5.412   6.337
11285TIP3    H133800   3.706   5.451   6.423
11285TIP3    H233801   3.731   5.474   6.275
11286TIP3   OH233802   3.708   5.451   6.617
11286TIP3    H133803   3.662   5.367   6.614
11286TIP3    H233804   3.783   5.435   6.675
11287TIP3   OH233805   0.922   1.126   0.248
11287TIP3    H133806   0.851   1.132   0.312
11287TIP3    H233807   0.966   1.211   0.251
11288TIP3   OH233808   3.573   4.643   5.808
11288TIP3    H133809   3.638   4.705   5.774
11288TIP3    H233810   3.615   4.606   5.886
11289TIP3   OH233811   3.698   4.517   6.017
11289TIP3    H133812   3.635   4.472   6.073
11289TIP3    H233813   3.769   4.541   6.076
11290TIP3   OH233814   3.771   4.915   6.429
11290TIP3    H133815   3.791   4.822   6.413
11290TIP3    H233816   3.690   4.930   6.380
11291TIP3   OH233817   3.582   5.203   6.637
11291TIP3    H133818   3.516   5.247   6.691
11291TIP3    H233819   3.531   5.160   6.568
11292TIP3   OH233820   3.634   4.421   5.657
11292TIP3    H133821   3.567   4.418   5.588
11292TIP3    H233822   3.609   4.494   5.713
11293TIP3   OH233823   3.506   4.089   5.607
11293TIP3    H133824   3.463   4.129   5.531
11293TIP3    H233825   3.485   3.996   5.600
11294TIP3   OH233826   3.512   4.368   6.158
11294TIP3    H133827   3.519   4.273   6.147
11294TIP3    H233828   3.497   4.380   6.252
11295TIP3   OH233829   2.140   4.441   6.903
11295TIP3    H133830   2.137   4.407   6.814
11295TIP3    H233831   2.234   4.445   6.923
11296TIP3   OH233832   0.970   0.782   0.078
11296TIP3    H133833   1.039   0.716   0.070
11296TIP3    H233834   0.989   0.845   0.008
11297TIP3   OH233835   1.151   0.583   0.095
11297TIP3    H133836   1.075   0.535   0.127
11297TIP3    H233837   1.224   0.522   0.104
11298TIP3   OH233838   3.454   3.822   5.592
11298TIP3    H133839   3.526   3.794   5.648
11298TIP3    H233840   3.380   3.767   5.617
11299TIP3   OH233841   3.513   4.086   6.046
11299TIP3    H133842   3.550   3.999   6.064
11299TIP3    H233843   3.568   4.121   5.976
11300TIP3   OH233844   3.680   4.257   6.540
11300TIP3    H133845   3.760   4.277   6.492
11300TIP3    H233846   3.695   4.293   6.627
11301TIP3   OH233847   3.743   4.399   6.776
11301TIP3    H133848   3.665   4.428   6.823
11301TIP3    H233849   3.779   4.480   6.739
11302TIP3   OH233850   8.026   0.119   0.642
11302TIP3    H133851   8.121   0.116   0.641
11302TIP3    H233852   7.999   0.034   0.677
11303TIP3   OH233853   7.074   7.984   0.362
11303TIP3    H133854   7.031   7.903   0.335
11303TIP3    H233855   7.021   8.054   0.323
11304TIP3   OH233856   3.619   3.835   6.090
11304TIP3    H133857   3.668   3.822   6.171
11304TIP3    H233858   3.558   3.761   6.087
11305TIP3   OH233859   2.316   3.817   6.916
11305TIP3    H133860   2.374   3.741   6.921
11305TIP3    H233861   2.374   3.892   6.902
11306TIP3   OH233862   7.786   0.087   0.037
11306TIP3    H133863   7.835   0.080  -0.045
11306TIP3    H233864   7.819   0.167   0.078
11307TIP3   OH233865   1.220   0.113   0.217
11307TIP3    H133866   1.143   0.168   0.231
11307TIP3    H233867   1.195   0.052   0.149
11308TIP3   OH233868   3.697   3.766   5.723
11308TIP3    H133869   3.739   3.699   5.669
11308TIP3    H233870   3.759   3.839   5.724
11309TIP3   OH233871   2.104   3.591   6.479
11309TIP3    H133872   2.014   3.590   6.512
11309TIP3    H233873   2.101   3.651   6.405
11310TIP3   OH233874   3.269   5.302   5.990
11310TIP3    H133875   3.312   5.286   5.906
11310TIP3    H233876   3.320   5.371   6.031
11311TIP3   OH233877   5.159   7.689   0.356
11311TIP3    H133878   5.108   7.678   0.436
11311TIP3    H233879   5.096   7.722   0.292
11312TIP3   OH233880   8.028   1.103   0.431
11312TIP3    H133881   7.939   1.075   0.413
11312TIP3    H233882   8.043   1.078   0.523
11313TIP3   OH233883   2.545   5.145   6.919
11313TIP3    H133884   2.496   5.218   6.883
11313TIP3    H233885   2.631   5.151   6.878
11314TIP3   OH233886   0.152   1.377   0.121
11314TIP3    H133887   0.193   1.374   0.208
11314TIP3    H233888   0.215   1.426   0.067
11315TIP3   OH233889   3.165   5.537   6.921
11315TIP3    H133890   3.230   5.483   6.876
11315TIP3    H233891   3.217   5.592   6.980
11316TIP3   OH233892   6.791   7.897   0.078
11316TIP3    H133893   6.705   7.897   0.036
11316TIP3    H233894   6.824   7.808   0.066
11317TIP3   OH233895   7.882   1.388   0.006
11317TIP3    H133896   7.794   1.418  -0.018
11317TIP3    H233897   7.900   1.431   0.090
11318TIP3   OH233898   2.453   5.376   6.804
11318TIP3    H133899   2.368   5.386   6.847
11318TIP3    H233900   2.438   5.405   6.714
11319TIP3   OH233901   2.878   5.401   6.603
11319TIP3    H133902   2.811   5.416   6.536
11319TIP3    H233903   2.892   5.486   6.643
11320TIP3   OH233904   3.148   5.343   6.654
11320TIP3    H133905   3.055   5.356   6.635
11320TIP3    H233906   3.193   5.414   6.609
11321TIP3   OH233907   3.356   5.531   6.564
11321TIP3    H133908   3.342   5.615   6.519
11321TIP3    H233909   3.381   5.470   6.494
11322TIP3   OH233910   2.132   5.184   6.690
11322TIP3    H133911   2.154   5.159   6.780
11322TIP3    H233912   2.201   5.144   6.636
11323TIP3   OH233913   2.328   5.059   6.551
11323TIP3    H133914   2.340   4.975   6.597
11323TIP3    H233915   2.417   5.095   6.544
11324TIP3   OH233916   2.595   5.149   6.556
11324TIP3    H133917   2.622   5.059   6.539
11324TIP3    H233918   2.641   5.174   6.636
11325TIP3   OH233919   3.193   3.808   6.656
11325TIP3    H133920   3.128   3.745   6.686
11325TIP3    H233921   3.253   3.757   6.602
11326TIP3   OH233922   3.687   3.689   6.541
11326TIP3    H133923   3.725   3.740   6.470
11326TIP3    H233924   3.593   3.709   6.539
11327TIP3   OH233925   3.786   3.783   6.303
11327TIP3    H133926   3.857   3.731   6.266
11327TIP3    H233927   3.815   3.874   6.293
11328TIP3   OH233928   2.413   3.513   6.652
11328TIP3    H133929   2.322   3.485   6.656
11328TIP3    H233930   2.463   3.432   6.648
11329TIP3   OH233931   2.198   3.392   6.299
11329TIP3    H133932   2.232   3.445   6.228
11329TIP3    H233933   2.175   3.455   6.368
11330TIP3   OH233934   2.861   3.551   6.535
11330TIP3    H133935   2.913   3.598   6.470
11330TIP3    H233936   2.883   3.592   6.619
11331TIP3   OH233937   3.409   3.692   6.514
11331TIP3    H133938   3.402   3.660   6.424
11331TIP3    H233939   3.394   3.614   6.568
11332TIP3   OH233940   3.432   3.622   6.081
11332TIP3    H133941   3.352   3.671   6.097
11332TIP3    H233942   3.419   3.538   6.125
11333TIP3   OH233943   1.919   4.959   6.078
11333TIP3    H133944   1.837   4.925   6.043
11333TIP3    H233945   1.907   5.054   6.079
11334TIP3   OH233946   2.323   3.546   6.065
11334TIP3    H133947   2.368   3.485   6.006
11334TIP3    H233948   2.394   3.601   6.099
11335TIP3   OH233949   2.832   3.725   6.168
11335TIP3    H133950   2.893   3.678   6.225
11335TIP3    H233951   2.847   3.817   6.188
11336TIP3   OH233952   2.693   5.145   5.660
11336TIP3    H133953   2.779   5.170   5.628
11336TIP3    H233954   2.667   5.071   5.605
11337TIP3   OH233955   3.408   5.264   5.756
11337TIP3    H133956   3.404   5.169   5.747
11337TIP3    H233957   3.365   5.297   5.677
11338TIP3   OH233958   5.456   7.803   0.608
11338TIP3    H133959   5.419   7.732   0.661
11338TIP3    H233960   5.548   7.806   0.633
11339TIP3   OH233961   5.706   7.802   0.726
11339TIP3    H133962   5.788   7.779   0.683
11339TIP3    H233963   5.693   7.734   0.793
11340TIP3   OH233964   2.011   5.006   5.730
11340TIP3    H133965   2.017   4.997   5.825
11340TIP3    H233966   2.083   4.952   5.696
11341TIP3   OH233967   6.534   7.864   0.512
11341TIP3    H133968   6.548   7.835   0.602
11341TIP3    H233969   6.620   7.854   0.471
11342TIP3   OH233970   3.631   5.412   6.942
11342TIP3    H133971   3.556   5.379   6.892
11342TIP3    H233972   3.616   5.506   6.950
11343TIP3   OH233973   4.900   4.782   5.707
11343TIP3    H133974   4.875   4.873   5.690
11343TIP3    H233975   4.828   4.730   5.673
11344TIP3   OH233976   4.897   4.782   6.096
11344TIP3    H133977   4.933   4.758   6.181
11344TIP3    H233978   4.856   4.702   6.063
11345TIP3   OH233979   4.206   4.696   6.463
11345TIP3    H133980   4.210   4.609   6.503
11345TIP3    H233981   4.289   4.705   6.416
11346TIP3   OH233982   5.150   5.086   5.768
11346TIP3    H133983   5.134   5.020   5.836
11346TIP3    H233984   5.216   5.143   5.806
11347TIP3   OH233985   4.163   5.068   6.205
11347TIP3    H133986   4.170   4.975   6.184
11347TIP3    H233987   4.253   5.100   6.203
11348TIP3   OH233988   3.869   4.289   5.966
11348TIP3    H133989   3.826   4.373   5.982
11348TIP3    H233990   3.804   4.237   5.919
11349TIP3   OH233991   3.938   4.564   6.146
11349TIP3    H133992   3.973   4.493   6.200
11349TIP3    H233993   4.001   4.574   6.075
11350TIP3   OH233994   4.804   5.542   5.797
11350TIP3    H133995   4.838   5.478   5.735
11350TIP3    H233996   4.803   5.495   5.881
11351TIP3   OH233997   4.701   5.012   6.141
11351TIP3    H133998   4.736   4.935   6.098
11351TIP3    H233999   4.778   5.065   6.163
11352TIP3   OH234000   5.719   4.329   6.136
11352TIP3    H134001   5.746   4.411   6.178
11352TIP3    H234002   5.737   4.342   6.043
11353TIP3   OH234003   5.114   4.506   6.167
11353TIP3    H134004   5.156   4.423   6.189
11353TIP3    H234005   5.080   4.493   6.079
11354TIP3   OH234006   4.470   4.162   6.128
11354TIP3    H134007   4.430   4.246   6.106
11354TIP3    H234008   4.410   4.097   6.091
11355TIP3   OH234009   5.151   4.262   5.755
11355TIP3    H134010   5.218   4.248   5.821
11355TIP3    H234011   5.199   4.297   5.680
11356TIP3   OH234012   4.521   4.569   6.048
11356TIP3    H134013   4.614   4.548   6.055
11356TIP3    H234014   4.481   4.491   6.012
11357TIP3   OH234015   5.789   4.539   6.309
11357TIP3    H134016   5.708   4.583   6.282
11357TIP3    H234017   5.807   4.573   6.396
11358TIP3   OH234018   4.438   4.167   6.558
11358TIP3    H134019   4.388   4.211   6.489
11358TIP3    H234020   4.388   4.182   6.638
11359TIP3   OH234021   4.784   5.000   5.577
11359TIP3    H134022   4.753   4.988   5.488
11359TIP3    H234023   4.742   5.081   5.607
11360TIP3   OH234024   4.554   4.930   6.361
11360TIP3    H134025   4.496   4.997   6.397
11360TIP3    H234026   4.599   4.973   6.289
11361TIP3   OH234027   5.354   4.267   5.935
11361TIP3    H134028   5.334   4.224   6.019
11361TIP3    H234029   5.404   4.345   5.959
11362TIP3   OH234030   4.379   5.126   6.480
11362TIP3    H134031   4.344   5.208   6.446
11362TIP3    H234032   4.326   5.108   6.558
11363TIP3   OH234033   3.770   4.814   5.695
11363TIP3    H134034   3.733   4.835   5.609
11363TIP3    H234035   3.803   4.898   5.728
11364TIP3   OH234036   5.508   4.227   6.300
11364TIP3    H134037   5.421   4.253   6.270
11364TIP3    H234038   5.568   4.260   6.233
11365TIP3   OH234039   4.804   3.870   6.291
11365TIP3    H134040   4.785   3.776   6.297
11365TIP3    H234041   4.729   3.912   6.333
11366TIP3   OH234042   4.908   5.377   5.598
11366TIP3    H134043   4.954   5.294   5.586
11366TIP3    H234044   4.969   5.443   5.565
11367TIP3   OH234045   5.050   5.159   5.523
11367TIP3    H134046   5.029   5.079   5.477
11367TIP3    H234047   5.088   5.130   5.606
11368TIP3   OH234048   5.440   5.238   6.277
11368TIP3    H134049   5.432   5.161   6.220
11368TIP3    H234050   5.428   5.312   6.217
11369TIP3   OH234051   4.732   4.637   5.540
11369TIP3    H134052   4.654   4.688   5.520
11369TIP3    H234053   4.779   4.632   5.457
11370TIP3   OH234054   4.694   4.421   5.254
11370TIP3    H134055   4.757   4.475   5.301
11370TIP3    H234056   4.749   4.358   5.205
11371TIP3   OH234057   5.638   4.882   6.142
11371TIP3    H134058   5.553   4.925   6.142
11371TIP3    H234059   5.672   4.894   6.054
11372TIP3   OH234060   5.081   4.718   5.512
11372TIP3    H134061   5.026   4.741   5.587
11372TIP3    H234062   5.165   4.694   5.551
11373TIP3   OH234063   5.312   4.756   6.427
11373TIP3    H134064   5.312   4.840   6.472
11373TIP3    H234065   5.229   4.755   6.379
11374TIP3   OH234066   4.313   4.715   5.928
11374TIP3    H134067   4.271   4.658   5.863
11374TIP3    H234068   4.386   4.662   5.962
11375TIP3   OH234069   4.432   5.121   6.082
11375TIP3    H134070   4.413   5.091   5.993
11375TIP3    H234071   4.520   5.090   6.100
11376TIP3   OH234072   4.431   4.688   6.288
11376TIP3    H134073   4.465   4.654   6.205
11376TIP3    H234074   4.484   4.766   6.305
11377TIP3   OH234075   4.914   5.334   6.065
11377TIP3    H134076   4.964   5.402   6.110
11377TIP3    H234077   4.941   5.252   6.108
11378TIP3   OH234078   4.589   5.245   6.609
11378TIP3    H134079   4.528   5.304   6.653
11378TIP3    H234080   4.533   5.189   6.556
11379TIP3   OH234081   4.920   4.578   5.336
11379TIP3    H134082   4.977   4.636   5.387
11379TIP3    H234083   4.943   4.596   5.245
11380TIP3   OH234084   4.346   4.797   6.729
11380TIP3    H134085   4.348   4.885   6.765
11380TIP3    H234086   4.256   4.785   6.699
11381TIP3   OH234087   4.662   5.256   5.617
11381TIP3    H134088   4.747   5.300   5.621
11381TIP3    H234089   4.606   5.315   5.567
11382TIP3   OH234090   4.378   5.409   6.693
11382TIP3    H134091   4.348   5.418   6.603
11382TIP3    H234092   4.299   5.391   6.744
11383TIP3   OH234093   5.435   3.815   5.388
11383TIP3    H134094   5.355   3.837   5.436
11383TIP3    H234095   5.454   3.894   5.337
11384TIP3   OH234096   4.179   4.559   5.734
11384TIP3    H134097   4.109   4.592   5.679
11384TIP3    H234098   4.153   4.469   5.755
11385TIP3   OH234099   5.240   5.182   4.937
11385TIP3    H134100   5.247   5.276   4.919
11385TIP3    H234101   5.329   5.149   4.924
11386TIP3   OH234102   3.900   5.146   6.320
11386TIP3    H134103   3.939   5.183   6.241
11386TIP3    H234104   3.842   5.215   6.352
11387TIP3   OH234105   5.677   5.589   6.333
11387TIP3    H134106   5.676   5.493   6.337
11387TIP3    H234107   5.595   5.615   6.375
11388TIP3   OH234108   4.784   5.373   6.467
11388TIP3    H134109   4.782   5.465   6.495
11388TIP3    H234110   4.716   5.330   6.519
11389TIP3   OH234111   4.545   5.497   5.416
11389TIP3    H134112   4.503   5.476   5.333
11389TIP3    H234113   4.512   5.584   5.439
11390TIP3   OH234114   3.983   5.348   5.804
11390TIP3    H134115   4.033   5.339   5.885
11390TIP3    H234116   3.935   5.266   5.797
11391TIP3   OH234117   4.749   5.402   5.056
11391TIP3    H134118   4.804   5.333   5.018
11391TIP3    H234119   4.781   5.411   5.145
11392TIP3   OH234120   4.798   5.451   5.327
11392TIP3    H134121   4.710   5.459   5.365
11392TIP3    H234122   4.850   5.411   5.397
11393TIP3   OH234123   5.565   4.714   6.604
11393TIP3    H134124   5.484   4.729   6.554
11393TIP3    H234125   5.582   4.620   6.595
11394TIP3   OH234126   4.566   3.948   6.416
11394TIP3    H134127   4.481   3.914   6.386
11394TIP3    H234128   4.546   4.036   6.447
11395TIP3   OH234129   5.099   4.061   6.610
11395TIP3    H134130   5.167   4.033   6.672
11395TIP3    H234131   5.017   4.043   6.655
11396TIP3   OH234132   5.335   4.493   6.528
11396TIP3    H134133   5.285   4.491   6.609
11396TIP3    H234134   5.313   4.578   6.489
11397TIP3   OH234135   4.998   4.620   5.081
11397TIP3    H134136   4.961   4.596   4.996
11397TIP3    H234137   5.083   4.659   5.060
11398TIP3   OH234138   4.707   3.991   5.387
11398TIP3    H134139   4.674   3.992   5.477
11398TIP3    H234140   4.668   3.913   5.348
11399TIP3   OH234141   4.511   4.472   6.445
11399TIP3    H134142   4.439   4.470   6.508
11399TIP3    H234143   4.482   4.536   6.379
11400TIP3   OH234144   4.385   4.357   5.939
11400TIP3    H134145   4.295   4.330   5.960
11400TIP3    H234146   4.404   4.311   5.857
11401TIP3   OH234147   4.870   4.436   5.674
11401TIP3    H134148   4.819   4.506   5.633
11401TIP3    H234149   4.925   4.402   5.603
11402TIP3   OH234150   5.047   4.710   6.762
11402TIP3    H134151   5.022   4.638   6.820
11402TIP3    H234152   5.139   4.725   6.780
11403TIP3   OH234153   5.025   4.461   5.909
11403TIP3    H134154   4.963   4.494   5.844
11403TIP3    H234155   5.061   4.381   5.869
11404TIP3   OH234156   4.314   4.492   6.639
11404TIP3    H134157   4.354   4.553   6.701
11404TIP3    H234158   4.300   4.412   6.690
11405TIP3   OH234159   4.364   3.971   5.352
11405TIP3    H134160   4.355   3.971   5.448
11405TIP3    H234161   4.290   4.023   5.321
11406TIP3   OH234162   3.907   4.007   6.224
11406TIP3    H134163   3.963   4.062   6.278
11406TIP3    H234164   3.953   4.000   6.140
11407TIP3   OH234165   3.870   3.994   5.738
11407TIP3    H134166   3.920   4.026   5.663
11407TIP3    H234167   3.813   4.067   5.762
11408TIP3   OH234168   5.036   4.703   6.333
11408TIP3    H134169   5.070   4.637   6.273
11408TIP3    H234170   5.005   4.653   6.409
11409TIP3   OH234171   4.714   4.162   6.004
11409TIP3    H134172   4.627   4.165   6.045
11409TIP3    H234173   4.775   4.173   6.077
11410TIP3   OH234174   4.148   4.238   5.970
11410TIP3    H134175   4.055   4.249   5.990
11410TIP3    H234176   4.165   4.145   5.982
11411TIP3   OH234177   4.409   4.219   5.702
11411TIP3    H134178   4.501   4.238   5.679
11411TIP3    H234179   4.360   4.243   5.623
11412TIP3   OH234180   5.197   4.245   6.212
11412TIP3    H134181   5.167   4.262   6.302
11412TIP3    H234182   5.130   4.186   6.176
11413TIP3   OH234183   4.257   4.259   5.478
11413TIP3    H134184   4.187   4.212   5.432
11413TIP3    H234185   4.310   4.297   5.408
11414TIP3   OH234186   5.373   5.939   6.429
11414TIP3    H134187   5.369   5.956   6.335
11414TIP3    H234188   5.453   5.983   6.457
11415TIP3   OH234189   4.333   5.050   6.845
11415TIP3    H134190   4.409   5.079   6.896
11415TIP3    H234191   4.260   5.052   6.907
11416TIP3   OH234192   4.790   4.500   6.105
11416TIP3    H134193   4.862   4.463   6.055
11416TIP3    H234194   4.794   4.455   6.190
11417TIP3   OH234195   4.309   3.984   5.993
11417TIP3    H134196   4.274   3.907   6.038
11417TIP3    H234197   4.348   3.950   5.913
11418TIP3   OH234198   4.770   4.398   6.397
11418TIP3    H134199   4.680   4.430   6.410
11418TIP3    H234200   4.824   4.461   6.443
11419TIP3   OH234201   4.497   4.787   5.490
11419TIP3    H134202   4.429   4.721   5.476
11419TIP3    H234203   4.481   4.821   5.577
11420TIP3   OH234204   5.396   5.005   6.127
11420TIP3    H134205   5.404   5.068   6.055
11420TIP3    H234206   5.314   4.960   6.110
11421TIP3   OH234207   4.960   4.095   5.361
11421TIP3    H134208   4.866   4.078   5.365
11421TIP3    H234209   4.968   4.189   5.379
11422TIP3   OH234210   4.899   5.104   6.487
11422TIP3    H134211   4.933   5.089   6.575
11422TIP3    H234212   4.867   5.195   6.489
11423TIP3   OH234213   5.029   4.350   5.458
11423TIP3    H134214   5.124   4.355   5.471
11423TIP3    H234215   5.008   4.427   5.405
11424TIP3   OH234216   4.191   4.805   6.157
11424TIP3    H134217   4.227   4.783   6.071
11424TIP3    H234218   4.232   4.744   6.217
11425TIP3   OH234219   4.648   4.937   5.316
11425TIP3    H134220   4.602   5.021   5.318
11425TIP3    H234221   4.596   4.881   5.374
11426TIP3   OH234222   4.042   4.778   6.796
11426TIP3    H134223   4.086   4.739   6.871
11426TIP3    H234224   3.998   4.705   6.753
11427TIP3   OH234225   4.803   4.843   6.797
11427TIP3    H134226   4.737   4.789   6.753
11427TIP3    H234227   4.887   4.809   6.767
11428TIP3   OH234228   5.061   5.365   6.387
11428TIP3    H134229   4.966   5.364   6.390
11428TIP3    H234230   5.087   5.421   6.460
11429TIP3   OH234231   5.467   4.443   5.287
11429TIP3    H134232   5.406   4.396   5.231
11429TIP3    H234233   5.468   4.532   5.252
11430TIP3   OH234234   5.689   5.297   6.363
11430TIP3    H134235   5.594   5.293   6.359
11430TIP3    H234236   5.718   5.267   6.277
11431TIP3   OH234237   5.172   5.257   5.200
11431TIP3    H134238   5.147   5.187   5.261
11431TIP3    H234239   5.186   5.212   5.117
11432TIP3   OH234240   5.162   4.876   6.047
11432TIP3    H134241   5.069   4.857   6.052
11432TIP3    H234242   5.199   4.803   5.996
11433TIP3   OH234243   4.295   5.121   5.801
11433TIP3    H134244   4.302   5.197   5.744
11433TIP3    H234245   4.208   5.086   5.783
11434TIP3   OH234246   3.861   4.418   5.498
11434TIP3    H134247   3.908   4.499   5.517
11434TIP3    H234248   3.786   4.419   5.557
11435TIP3   OH234249   4.424   4.880   5.732
11435TIP3    H134250   4.400   4.969   5.757
11435TIP3    H234251   4.394   4.826   5.805
11436TIP3   OH234252   4.569   5.456   6.258
11436TIP3    H134253   4.607   5.526   6.206
11436TIP3    H234254   4.643   5.413   6.300
11437TIP3   OH234255   4.213   5.358   5.642
11437TIP3    H134256   4.129   5.365   5.687
11437TIP3    H234257   4.249   5.447   5.643
11438TIP3   OH234258   4.956   5.090   6.215
11438TIP3    H134259   4.946   5.087   6.310
11438TIP3    H234260   5.033   5.035   6.198
11439TIP3   OH234261   4.931   4.989   5.104
11439TIP3    H134262   4.985   4.965   5.180
11439TIP3    H234263   4.843   4.956   5.126
11440TIP3   OH234264   5.190   5.640   6.282
11440TIP3    H134265   5.119   5.578   6.268
11440TIP3    H234266   5.187   5.697   6.206
11441TIP3   OH234267   5.267   5.461   4.918
11441TIP3    H134268   5.307   5.532   4.868
11441TIP3    H234269   5.187   5.498   4.954
11442TIP3   OH234270   4.283   4.236   6.784
11442TIP3    H134271   4.187   4.239   6.789
11442TIP3    H234272   4.308   4.174   6.852
11443TIP3   OH234273   5.093   4.920   5.320
11443TIP3    H134274   5.079   4.853   5.387
11443TIP3    H234275   5.187   4.917   5.303
11444TIP3   OH234276   4.291   4.966   5.105
11444TIP3    H134277   4.305   4.879   5.069
11444TIP3    H234278   4.269   4.951   5.197
11445TIP3   OH234279   4.235   4.971   5.381
11445TIP3    H134280   4.315   4.941   5.424
11445TIP3    H234281   4.241   5.067   5.383
11446TIP3   OH234282   3.969   4.661   5.577
11446TIP3    H134283   3.904   4.704   5.633
11446TIP3    H234284   3.989   4.726   5.509
11447TIP3   OH234285   5.128   4.300   6.472
11447TIP3    H134286   5.209   4.338   6.506
11447TIP3    H234287   5.115   4.221   6.523
11448TIP3   OH234288   5.010   4.047   5.637
11448TIP3    H134289   4.993   4.066   5.545
11448TIP3    H234290   5.047   4.128   5.672
11449TIP3   OH234291   4.504   5.166   5.324
11449TIP3    H134292   4.419   5.193   5.359
11449TIP3    H234293   4.519   5.224   5.250
11450TIP3   OH234294   4.694   4.232   5.736
11450TIP3    H134295   4.755   4.303   5.717
11450TIP3    H234296   4.697   4.222   5.831
11451TIP3   OH234297   4.964   4.546   6.543
11451TIP3    H134298   4.988   4.598   6.620
11451TIP3    H234299   5.017   4.466   6.551
11452TIP3   OH234300   4.835   3.954   5.837
11452TIP3    H134301   4.815   4.031   5.891
11452TIP3    H234302   4.897   3.987   5.772
11453TIP3   OH234303   4.251   5.246   5.390
11453TIP3    H134304   4.222   5.312   5.327
11453TIP3    H234305   4.236   5.286   5.476
11454TIP3   OH234306   4.350   3.958   5.629
11454TIP3    H134307   4.343   4.047   5.665
11454TIP3    H234308   4.444   3.938   5.634
11455TIP3   OH234309   5.600   4.447   6.526
11455TIP3    H134310   5.505   4.447   6.535
11455TIP3    H234311   5.617   4.412   6.439
11456TIP3   OH234312   5.253   4.641   5.914
11456TIP3    H134313   5.178   4.583   5.924
11456TIP3    H234314   5.324   4.596   5.960
11457TIP3   OH234315   3.973   4.868   5.379
11457TIP3    H134316   4.044   4.931   5.391
11457TIP3    H234317   4.006   4.806   5.314
11458TIP3   OH234318   3.908   4.147   5.515
11458TIP3    H134319   3.917   4.243   5.514
11458TIP3    H234320   3.826   4.130   5.469
11459TIP3   OH234321   5.221   5.628   5.871
11459TIP3    H134322   5.177   5.664   5.794
11459TIP3    H234323   5.314   5.630   5.848
11460TIP3   OH234324   4.307   3.868   6.381
11460TIP3    H134325   4.270   3.842   6.296
11460TIP3    H234326   4.286   3.795   6.439
11461TIP3   OH234327   3.835   5.098   5.769
11461TIP3    H134328   3.755   5.121   5.817
11461TIP3    H234329   3.820   5.130   5.680
11462TIP3   OH234330   4.000   5.634   6.842
11462TIP3    H134331   4.083   5.640   6.889
11462TIP3    H234332   3.982   5.540   6.836
11463TIP3   OH234333   4.474   5.587   6.884
11463TIP3    H134334   4.568   5.574   6.894
11463TIP3    H234335   4.449   5.528   6.813
11464TIP3   OH234336   4.460   5.165   5.016
11464TIP3    H134337   4.404   5.095   5.049
11464TIP3    H234338   4.533   5.119   4.974
11465TIP3   OH234339   5.107   5.503   6.625
11465TIP3    H134340   5.103   5.432   6.689
11465TIP3    H234341   5.187   5.551   6.648
11466TIP3   OH234342   4.896   5.207   4.928
11466TIP3    H134343   4.932   5.141   4.987
11466TIP3    H234344   4.950   5.201   4.850
11467TIP3   OH234345   1.294   1.028   0.099
11467TIP3    H134346   1.316   0.935   0.103
11467TIP3    H234347   1.210   1.031   0.053
11468TIP3   OH234348   4.104   4.681   5.236
11468TIP3    H134349   4.158   4.651   5.309
11468TIP3    H234350   4.165   4.688   5.162
11469TIP3   OH234351   4.730   5.119   6.815
11469TIP3    H134352   4.694   5.141   6.729
11469TIP3    H234353   4.761   5.029   6.805
11470TIP3   OH234354   4.620   4.882   5.048
11470TIP3    H134355   4.621   4.895   5.142
11470TIP3    H234356   4.620   4.787   5.036
11471TIP3   OH234357   5.227   5.138   6.423
11471TIP3    H134358   5.303   5.172   6.377
11471TIP3    H234359   5.157   5.202   6.406
11472TIP3   OH234360   1.411   0.766   0.088
11472TIP3    H134361   1.487   0.725   0.047
11472TIP3    H234362   1.442   0.796   0.173
11473TIP3   OH234363   4.307   4.588   5.454
11473TIP3    H134364   4.282   4.550   5.538
11473TIP3    H234365   4.346   4.516   5.405
11474TIP3   OH234366   4.585   4.660   6.694
11474TIP3    H134367   4.506   4.713   6.695
11474TIP3    H234368   4.629   4.683   6.612
11475TIP3   OH234369   4.415   4.386   5.292
11475TIP3    H134370   4.387   4.393   5.201
11475TIP3    H234371   4.510   4.388   5.288
11476TIP3   OH234372   5.100   5.055   6.819
11476TIP3    H134373   5.171   5.024   6.763
11476TIP3    H234374   5.093   4.989   6.888
11477TIP3   OH234375   5.228   4.713   4.963
11477TIP3    H134376   5.218   4.664   4.881
11477TIP3    H234377   5.196   4.801   4.942
11478TIP3   OH234378   4.703   4.441   6.805
11478TIP3    H134379   4.702   4.365   6.746
11478TIP3    H234380   4.662   4.511   6.754
11479TIP3   OH234381   4.701   4.228   6.614
11479TIP3    H134382   4.734   4.272   6.536
11479TIP3    H234383   4.609   4.211   6.595
11480TIP3   OH234384   4.732   4.767   6.494
11480TIP3    H134385   4.816   4.775   6.449
11480TIP3    H234386   4.675   4.829   6.449
11481TIP3   OH234387   5.315   4.730   6.869
11481TIP3    H134388   5.361   4.646   6.875
11481TIP3    H234389   5.378   4.790   6.830
11482TIP3   OH234390   5.353   4.989   6.608
11482TIP3    H134391   5.295   5.041   6.552
11482TIP3    H234392   5.441   5.005   6.573
11483TIP3   OH234393   1.751   0.541   0.103
11483TIP3    H134394   1.680   0.478   0.117
11483TIP3    H234395   1.780   0.526   0.014
11484TIP3   OH234396   4.834   3.993   6.688
11484TIP3    H134397   4.788   4.073   6.662
11484TIP3    H234398   4.770   3.923   6.673
11485TIP3   OH234399   4.960   4.491   6.901
11485TIP3    H134400   4.947   4.479   6.995
11485TIP3    H234401   4.875   4.469   6.862
11486TIP3   OH234402   5.203   4.447   6.760
11486TIP3    H134403   5.128   4.448   6.819
11486TIP3    H234404   5.276   4.417   6.814
11487TIP3   OH234405   2.601   0.380  -0.031
11487TIP3    H134406   2.613   0.286  -0.017
11487TIP3    H234407   2.596   0.417   0.058
11488TIP3   OH234408   1.583   0.326   0.158
11488TIP3    H134409   1.592   0.241   0.114
11488TIP3    H234410   1.623   0.314   0.243
11489TIP3   OH234411   4.924   4.000   6.945
11489TIP3    H134412   4.991   3.932   6.944
11489TIP3    H234413   4.887   3.999   6.857
11490TIP3   OH234414   2.163   0.208   0.163
11490TIP3    H134415   2.144   0.139   0.100
11490TIP3    H234416   2.089   0.268   0.156
11491TIP3   OH234417   4.223   5.451   5.203
11491TIP3    H134418   4.317   5.438   5.186
11491TIP3    H234419   4.191   5.497   5.126
11492TIP3   OH234420   3.702   4.825   5.419
11492TIP3    H134421   3.793   4.849   5.403
11492TIP3    H234422   3.692   4.739   5.379
11493TIP3   OH234423   3.609   5.443   5.826
11493TIP3    H134424   3.546   5.382   5.788
11493TIP3    H234425   3.657   5.390   5.890
11494TIP3   OH234426   3.745   5.301   6.013
11494TIP3    H134427   3.726   5.221   6.062
11494TIP3    H234428   3.800   5.353   6.072
11495TIP3   OH234429   5.476   5.719   5.816
11495TIP3    H134430   5.510   5.721   5.905
11495TIP3    H234431   5.554   5.715   5.760
11496TIP3   OH234432   5.510   5.713   6.104
11496TIP3    H134433   5.454   5.635   6.100
11496TIP3    H234434   5.588   5.684   6.152
11497TIP3   OH234435   5.554   5.388   6.680
11497TIP3    H134436   5.481   5.396   6.741
11497TIP3    H234437   5.595   5.474   6.680
11498TIP3   OH234438   5.370   4.900   5.294
11498TIP3    H134439   5.434   4.964   5.262
11498TIP3    H234440   5.413   4.861   5.371
11499TIP3   OH234441   5.497   4.765   5.498
11499TIP3    H134442   5.431   4.727   5.556
11499TIP3    H234443   5.561   4.804   5.557
11500TIP3   OH234444   5.386   5.477   6.126
11500TIP3    H134445   5.291   5.481   6.140
11500TIP3    H234446   5.396   5.415   6.053
11501TIP3   OH234447   5.430   4.676   5.143
11501TIP3    H134448   5.363   4.674   5.074
11501TIP3    H234449   5.407   4.750   5.198
11502TIP3   OH234450   5.301   4.346   5.099
11502TIP3    H134451   5.281   4.389   5.016
11502TIP3    H234452   5.276   4.254   5.085
11503TIP3   OH234453   5.307   4.626   5.645
11503TIP3    H134454   5.316   4.532   5.635
11503TIP3    H234455   5.293   4.640   5.738
11504TIP3   OH234456   3.957   4.737   6.361
11504TIP3    H134457   3.942   4.673   6.291
11504TIP3    H234458   4.039   4.709   6.401
11505TIP3   OH234459   5.600   5.050   6.503
11505TIP3    H134460   5.669   4.984   6.490
11505TIP3    H234461   5.616   5.114   6.434
11506TIP3   OH234462   5.782   4.847   6.512
11506TIP3    H134463   5.706   4.803   6.550
11506TIP3    H234464   5.855   4.787   6.528
11507TIP3   OH234465   5.251   4.076   5.077
11507TIP3    H134466   5.318   4.049   5.139
11507TIP3    H234467   5.174   4.024   5.100
11508TIP3   OH234468   5.309   4.340   5.535
11508TIP3    H134469   5.348   4.254   5.550
11508TIP3    H234470   5.362   4.377   5.464
11509TIP3   OH234471   5.471   4.512   6.035
11509TIP3    H134472   5.552   4.535   5.991
11509TIP3    H234473   5.479   4.549   6.122
11510TIP3   OH234474   5.538   4.659   6.264
11510TIP3    H134475   5.460   4.691   6.310
11510TIP3    H234476   5.574   4.737   6.222
11511TIP3   OH234477   1.314   0.367   0.126
11511TIP3    H134478   1.410   0.370   0.125
11511TIP3    H234479   1.293   0.285   0.172
11512TIP3   OH234480   5.992   4.253   6.818
11512TIP3    H134481   6.049   4.188   6.777
11512TIP3    H234482   5.957   4.304   6.744
11513TIP3   OH234483   5.416   4.089   5.577
11513TIP3    H134484   5.463   4.075   5.658
11513TIP3    H234485   5.354   4.017   5.572
11514TIP3   OH234486   4.096   4.079   6.428
11514TIP3    H134487   4.179   4.039   6.403
11514TIP3    H234488   4.103   4.170   6.397
11515TIP3   OH234489   5.852   4.384   6.624
11515TIP3    H134490   5.771   4.431   6.641
11515TIP3    H234491   5.827   4.312   6.566
11516TIP3   OH234492   5.496   4.021   5.213
11516TIP3    H134493   5.533   3.955   5.155
11516TIP3    H234494   5.557   4.094   5.208
11517TIP3   OH234495   3.899   3.840   5.959
11517TIP3    H134496   3.812   3.845   5.998
11517TIP3    H234497   3.897   3.904   5.888
11518TIP3   OH234498   5.060   5.565   5.475
11518TIP3    H134499   5.108   5.548   5.394
11518TIP3    H234500   5.121   5.616   5.528
11519TIP3   OH234501   4.121   3.932   6.786
11519TIP3    H134502   4.066   3.930   6.865
11519TIP3    H234503   4.064   3.970   6.719
11520TIP3   OH234504   4.154   5.365   6.851
11520TIP3    H134505   4.062   5.339   6.843
11520TIP3    H234506   4.180   5.336   6.939
11521TIP3   OH234507   4.340   5.397   6.407
11521TIP3    H134508   4.294   5.472   6.371
11521TIP3    H234509   4.427   5.401   6.366
11522TIP3   OH234510   4.782   5.641   6.548
11522TIP3    H134511   4.823   5.637   6.634
11522TIP3    H234512   4.844   5.690   6.493
11523TIP3   OH234513   4.959   5.795   6.407
11523TIP3    H134514   5.021   5.743   6.356
11523TIP3    H234515   5.015   5.847   6.466
11524TIP3   OH234516   5.756   4.148   6.504
11524TIP3    H134517   5.668   4.144   6.466
11524TIP3    H234518   5.790   4.059   6.495
11525TIP3   OH234519   4.003   5.643   6.416
11525TIP3    H134520   3.915   5.679   6.406
11525TIP3    H234521   4.030   5.670   6.504
11526TIP3   OH234522   4.248   5.628   6.291
11526TIP3    H134523   4.163   5.642   6.332
11526TIP3    H234524   4.238   5.661   6.202
11527TIP3   OH234525   4.673   5.656   6.094
11527TIP3    H134526   4.613   5.674   6.021
11527TIP3    H234527   4.691   5.741   6.132
11528TIP3   OH234528   4.950   5.605   6.151
11528TIP3    H134529   4.858   5.606   6.125
11528TIP3    H234530   4.993   5.667   6.091
11529TIP3   OH234531   5.157   5.802   6.061
11529TIP3    H134532   5.139   5.881   6.010
11529TIP3    H234533   5.183   5.737   5.996
11530TIP3   OH234534   3.932   5.443   6.173
11530TIP3    H134535   3.972   5.476   6.254
11530TIP3    H234536   4.004   5.401   6.126
11531TIP3   OH234537   4.128   5.312   6.038
11531TIP3    H134538   4.151   5.225   6.071
11531TIP3    H234539   4.213   5.356   6.028
11532TIP3   OH234540   4.390   5.409   6.043
11532TIP3    H134541   4.421   5.322   6.019
11532TIP3    H234542   4.439   5.432   6.122
11533TIP3   OH234543   4.974   4.068   6.137
11533TIP3    H134544   4.923   3.999   6.180
11533TIP3    H234545   5.039   4.021   6.084
11534TIP3   OH234546   5.482   3.948   6.028
11534TIP3    H134547   5.519   3.997   5.955
11534TIP3    H234548   5.388   3.965   6.023
11535TIP3   OH234549   5.581   4.042   5.791
11535TIP3    H134550   5.652   3.990   5.753
11535TIP3    H234551   5.610   4.133   5.780
11536TIP3   OH234552   4.208   3.769   6.140
11536TIP3    H134553   4.116   3.741   6.143
11536TIP3    H234554   4.257   3.687   6.135
11537TIP3   OH234555   3.999   3.645   5.787
11537TIP3    H134556   4.029   3.701   5.715
11537TIP3    H234557   3.970   3.707   5.854
11538TIP3   OH234558   4.662   3.801   6.021
11538TIP3    H134559   4.714   3.850   5.957
11538TIP3    H234560   4.666   3.854   6.101
11539TIP3   OH234561   5.201   3.952   6.003
11539TIP3    H134562   5.197   3.917   5.914
11539TIP3    H234563   5.188   3.875   6.059
11540TIP3   OH234564   5.230   3.879   5.569
11540TIP3    H134565   5.148   3.927   5.584
11540TIP3    H234566   5.216   3.794   5.611
11541TIP3   OH234567   3.710   5.222   5.565
11541TIP3    H134568   3.627   5.184   5.535
11541TIP3    H234569   3.705   5.314   5.537
11542TIP3   OH234570   4.119   3.800   5.552
11542TIP3    H134571   4.165   3.741   5.492
11542TIP3    H234572   4.188   3.857   5.587
11543TIP3   OH234573   4.628   3.981   5.652
11543TIP3    H134574   4.687   3.934   5.710
11543TIP3    H234575   4.644   4.074   5.672
11544TIP3   OH234576   4.489   5.402   5.146
11544TIP3    H134577   4.576   5.427   5.115
11544TIP3    H234578   4.463   5.329   5.090
11545TIP3   OH234579   5.205   5.522   5.243
11545TIP3    H134580   5.201   5.427   5.236
11545TIP3    H234581   5.161   5.554   5.164
11546TIP3   OH234582   1.598   0.055   0.086
11546TIP3    H134583   1.552   0.015   0.160
11546TIP3    H234584   1.691   0.043   0.106
11547TIP3   OH234585   1.860   0.019   0.215
11547TIP3    H134586   1.919   0.043   0.144
11547TIP3    H234587   1.902  -0.056   0.257
11548TIP3   OH234588   3.795   5.238   5.203
11548TIP3    H134589   3.800   5.257   5.297
11548TIP3    H234590   3.877   5.194   5.182
11549TIP3   OH234591   2.664   0.109  -0.003
11549TIP3    H134592   2.680   0.080   0.087
11549TIP3    H234593   2.749   0.104  -0.045
11550TIP3   OH234594   5.426   5.667   6.431
11550TIP3    H134595   5.354   5.632   6.378
11550TIP3    H234596   5.409   5.761   6.436
11551TIP3   OH234597   6.689   5.041   5.200
11551TIP3    H134598   6.670   5.132   5.177
11551TIP3    H234599   6.617   4.991   5.161
11552TIP3   OH234600   6.704   5.050   5.580
11552TIP3    H134601   6.727   5.004   5.661
11552TIP3    H234602   6.659   4.984   5.527
11553TIP3   OH234603   6.007   4.936   5.939
11553TIP3    H134604   6.032   4.867   6.001
11553TIP3    H234605   6.086   4.988   5.927
11554TIP3   OH234606   6.936   5.343   5.262
11554TIP3    H134607   6.930   5.263   5.315
11554TIP3    H234608   6.990   5.402   5.314
11555TIP3   OH234609   5.979   5.347   5.666
11555TIP3    H134610   5.966   5.252   5.668
11555TIP3    H234611   6.073   5.357   5.647
11556TIP3   OH234612   5.672   4.542   5.448
11556TIP3    H134613   5.632   4.626   5.469
11556TIP3    H234614   5.604   4.493   5.402
11557TIP3   OH234615   5.734   4.834   5.622
11557TIP3    H134616   5.781   4.760   5.661
11557TIP3    H234617   5.792   4.867   5.554
11558TIP3   OH234618   6.592   5.810   5.274
11558TIP3    H134619   6.634   5.738   5.225
11558TIP3    H234620   6.570   5.771   5.359
11559TIP3   OH234621   6.490   5.262   5.623
11559TIP3    H134622   6.493   5.198   5.552
11559TIP3    H234623   6.577   5.260   5.662
11560TIP3   OH234624   7.514   4.581   5.624
11560TIP3    H134625   7.539   4.662   5.669
11560TIP3    H234626   7.544   4.593   5.534
11561TIP3   OH234627   6.909   4.763   5.652
11561TIP3    H134628   6.949   4.679   5.674
11561TIP3    H234629   6.874   4.751   5.564
11562TIP3   OH234630   6.251   4.425   5.616
11562TIP3    H134631   6.231   4.499   5.559
11562TIP3    H234632   6.204   4.352   5.577
11563TIP3   OH234633   6.947   4.518   5.246
11563TIP3    H134634   7.017   4.504   5.310
11563TIP3    H234635   6.992   4.553   5.169
11564TIP3   OH234636   5.882   4.626   5.729
11564TIP3    H134637   5.962   4.610   5.778
11564TIP3    H234638   5.892   4.575   5.649
11565TIP3   OH234639   6.319   4.824   5.528
11565TIP3    H134640   6.412   4.803   5.537
11565TIP3    H234641   6.280   4.744   5.492
11566TIP3   OH234642   7.583   4.793   5.793
11566TIP3    H134643   7.513   4.848   5.759
11566TIP3    H234644   7.596   4.824   5.882
11567TIP3   OH234645   6.240   4.411   6.058
11567TIP3    H134646   6.186   4.447   5.988
11567TIP3    H234647   6.190   4.428   6.138
11568TIP3   OH234648   6.602   5.270   5.068
11568TIP3    H134649   6.544   5.207   5.025
11568TIP3    H234650   6.546   5.346   5.085
11569TIP3   OH234651   6.349   5.190   5.851
11569TIP3    H134652   6.288   5.253   5.890
11569TIP3    H234653   6.384   5.236   5.775
11570TIP3   OH234654   7.154   4.523   5.423
11570TIP3    H134655   7.125   4.485   5.505
11570TIP3    H234656   7.205   4.600   5.448
11571TIP3   OH234657   6.120   4.524   5.838
11571TIP3    H134658   6.177   4.596   5.864
11571TIP3    H234659   6.165   4.483   5.763
11572TIP3   OH234660   6.176   5.383   5.952
11572TIP3    H134661   6.155   5.466   5.910
11572TIP3    H234662   6.100   5.363   6.006
11573TIP3   OH234663   5.568   5.073   5.184
11573TIP3    H134664   5.530   5.096   5.099
11573TIP3    H234665   5.603   5.156   5.217
11574TIP3   OH234666   6.995   5.586   5.421
11574TIP3    H134667   6.899   5.594   5.422
11574TIP3    H234668   7.025   5.663   5.373
11575TIP3   OH234669   7.303   4.482   5.787
11575TIP3    H134670   7.216   4.510   5.759
11575TIP3    H234671   7.363   4.515   5.720
11576TIP3   OH234672   6.597   4.126   5.778
11576TIP3    H134673   6.581   4.032   5.788
11576TIP3    H234674   6.522   4.167   5.821
11577TIP3   OH234675   6.721   5.629   5.109
11577TIP3    H134676   6.761   5.546   5.086
11577TIP3    H234677   6.775   5.695   5.064
11578TIP3   OH234678   6.854   5.415   5.008
11578TIP3    H134679   6.796   5.346   4.976
11578TIP3    H234680   6.888   5.381   5.091
11579TIP3   OH234681   6.477   4.686   4.736
11579TIP3    H134682   6.508   4.741   4.807
11579TIP3    H234683   6.554   4.638   4.706
11580TIP3   OH234684   6.874   4.988   5.003
11580TIP3    H134685   6.811   5.001   5.075
11580TIP3    H234686   6.954   4.958   5.046
11581TIP3   OH234687   7.111   5.010   5.920
11581TIP3    H134688   7.105   5.088   5.976
11581TIP3    H234689   7.028   5.008   5.874
11582TIP3   OH234690   6.101   4.966   5.418
11582TIP3    H134691   6.058   4.911   5.352
11582TIP3    H234692   6.180   4.917   5.441
11583TIP3   OH234693   6.239   5.382   5.549
11583TIP3    H134694   6.218   5.340   5.465
11583TIP3    H234695   6.324   5.346   5.573
11584TIP3   OH234696   6.254   4.940   5.774
11584TIP3    H134697   6.276   4.915   5.684
11584TIP3    H234698   6.290   5.028   5.784
11585TIP3   OH234699   6.818   5.558   5.633
11585TIP3    H134700   6.795   5.651   5.642
11585TIP3    H234701   6.734   5.513   5.638
11586TIP3   OH234702   6.378   5.494   6.102
11586TIP3    H134703   6.321   5.558   6.144
11586TIP3    H234704   6.319   5.442   6.047
11587TIP3   OH234705   6.751   4.806   4.816
11587TIP3    H134706   6.750   4.882   4.875
11587TIP3    H234707   6.755   4.844   4.728
11588TIP3   OH234708   6.138   5.050   6.205
11588TIP3    H134709   6.145   5.139   6.241
11588TIP3    H234710   6.045   5.030   6.210
11589TIP3   OH234711   6.464   5.512   5.101
11589TIP3    H134712   6.541   5.567   5.109
11589TIP3    H234713   6.400   5.567   5.054
11590TIP3   OH234714   6.175   5.666   6.182
11590TIP3    H134715   6.146   5.667   6.091
11590TIP3    H234716   6.097   5.643   6.232
11591TIP3   OH234717   7.222   4.065   4.880
11591TIP3    H134718   7.148   4.075   4.940
11591TIP3    H234719   7.216   4.140   4.821
11592TIP3   OH234720   5.964   4.815   5.230
11592TIP3    H134721   5.907   4.859   5.168
11592TIP3    H234722   5.940   4.722   5.223
11593TIP3   OH234723   7.035   5.440   4.419
11593TIP3    H134724   7.041   5.534   4.406
11593TIP3    H234725   7.125   5.408   4.409
11594TIP3   OH234726   5.754   5.198   6.121
11594TIP3    H134727   5.687   5.187   6.054
11594TIP3    H234728   5.789   5.110   6.134
11595TIP3   OH234729   5.621   5.417   5.732
11595TIP3    H134730   5.686   5.347   5.737
11595TIP3    H234731   5.555   5.393   5.797
11596TIP3   OH234732   7.468   5.836   5.822
11596TIP3    H134733   7.475   5.746   5.856
11596TIP3    H234734   7.390   5.871   5.864
11597TIP3   OH234735   6.554   5.629   5.939
11597TIP3    H134736   6.572   5.715   5.977
11597TIP3    H234737   6.496   5.586   6.002
11598TIP3   OH234738   6.344   5.757   4.902
11598TIP3    H134739   6.295   5.735   4.822
11598TIP3    H234740   6.310   5.842   4.928
11599TIP3   OH234741   5.781   5.603   5.289
11599TIP3    H134742   5.824   5.597   5.375
11599TIP3    H234743   5.732   5.522   5.281
11600TIP3   OH234744   6.544   5.658   4.541
11600TIP3    H134745   6.599   5.589   4.505
11600TIP3    H234746   6.575   5.669   4.630
11601TIP3   OH234747   6.594   5.708   4.809
11601TIP3    H134748   6.507   5.717   4.849
11601TIP3    H234749   6.645   5.662   4.875
11602TIP3   OH234750   7.370   4.976   6.083
11602TIP3    H134751   7.289   4.986   6.033
11602TIP3    H234752   7.388   4.882   6.080
11603TIP3   OH234753   5.961   5.381   6.118
11603TIP3    H134754   6.009   5.360   6.198
11603TIP3    H234755   5.887   5.320   6.118
11604TIP3   OH234756   6.358   4.205   5.902
11604TIP3    H134757   6.273   4.172   5.872
11604TIP3    H234758   6.336   4.286   5.950
11605TIP3   OH234759   6.894   4.318   6.097
11605TIP3    H134760   6.961   4.290   6.159
11605TIP3    H234761   6.811   4.300   6.142
11606TIP3   OH234762   7.133   4.747   6.017
11606TIP3    H134763   7.081   4.746   6.097
11606TIP3    H234764   7.112   4.831   5.976
11607TIP3   OH234765   6.785   4.875   4.555
11607TIP3    H134766   6.756   4.853   4.467
11607TIP3    H234767   6.866   4.924   4.542
11608TIP3   OH234768   6.506   4.243   4.875
11608TIP3    H134769   6.471   4.247   4.964
11608TIP3    H234770   6.464   4.167   4.836
11609TIP3   OH234771   6.295   4.719   5.923
11609TIP3    H134772   6.243   4.736   6.001
11609TIP3    H234773   6.283   4.797   5.869
11610TIP3   OH234774   6.176   4.605   5.431
11610TIP3    H134775   6.085   4.586   5.450
11610TIP3    H234776   6.191   4.568   5.344
11611TIP3   OH234777   6.655   4.702   5.159
11611TIP3    H134778   6.593   4.768   5.128
11611TIP3    H234779   6.705   4.677   5.082
11612TIP3   OH234780   6.842   4.964   6.247
11612TIP3    H134781   6.817   4.894   6.307
11612TIP3    H234782   6.934   4.981   6.267
11613TIP3   OH234783   6.819   4.720   5.392
11613TIP3    H134784   6.756   4.754   5.328
11613TIP3    H234785   6.854   4.640   5.351
11614TIP3   OH234786   6.116   4.748   6.128
11614TIP3    H134787   6.129   4.816   6.194
11614TIP3    H234788   6.100   4.668   6.178
11615TIP3   OH234789   6.160   4.228   4.840
11615TIP3    H134790   6.150   4.228   4.935
11615TIP3    H234791   6.088   4.282   4.808
11616TIP3   OH234792   5.705   4.265   5.713
11616TIP3    H134793   5.777   4.302   5.764
11616TIP3    H234794   5.744   4.246   5.628
11617TIP3   OH234795   5.669   4.254   5.226
11617TIP3    H134796   5.713   4.286   5.147
11617TIP3    H234797   5.608   4.324   5.249
11618TIP3   OH234798   6.849   4.959   5.827
11618TIP3    H134799   6.875   4.893   5.763
11618TIP3    H234800   6.809   4.909   5.898
11619TIP3   OH234801   6.508   4.419   5.497
11619TIP3    H134802   6.423   4.423   5.541
11619TIP3    H234803   6.572   4.426   5.567
11620TIP3   OH234804   5.935   4.486   5.500
11620TIP3    H134805   5.844   4.496   5.474
11620TIP3    H234806   5.958   4.396   5.476
11621TIP3   OH234807   6.207   4.483   5.189
11621TIP3    H134808   6.296   4.506   5.162
11621TIP3    H234809   6.154   4.500   5.111
11622TIP3   OH234810   6.992   4.502   5.696
11622TIP3    H134811   6.965   4.518   5.786
11622TIP3    H234812   6.925   4.442   5.662
11623TIP3   OH234813   6.057   4.499   4.966
11623TIP3    H134814   5.984   4.461   4.915
11623TIP3    H234815   6.108   4.548   4.902
11624TIP3   OH234816   7.163   6.194   5.903
11624TIP3    H134817   7.162   6.219   5.810
11624TIP3    H234818   7.233   6.247   5.941
11625TIP3   OH234819   6.123   5.302   6.339
11625TIP3    H134820   6.202   5.333   6.384
11625TIP3    H234821   6.056   5.300   6.408
11626TIP3   OH234822   6.586   4.755   5.595
11626TIP3    H134823   6.658   4.719   5.543
11626TIP3    H234824   6.593   4.711   5.679
11627TIP3   OH234825   6.108   4.241   5.474
11627TIP3    H134826   6.071   4.166   5.521
11627TIP3    H234827   6.140   4.204   5.391
11628TIP3   OH234828   6.562   4.655   5.881
11628TIP3    H134829   6.473   4.687   5.893
11628TIP3    H234830   6.616   4.718   5.929
11629TIP3   OH234831   7.122   5.351   5.606
11629TIP3    H134832   7.212   5.347   5.573
11629TIP3    H234833   7.086   5.264   5.587
11630TIP3   OH234834   6.754   4.353   4.833
11630TIP3    H134835   6.661   4.335   4.846
11630TIP3    H234836   6.765   4.442   4.865
11631TIP3   OH234837   6.718   5.377   5.963
11631TIP3    H134838   6.715   5.354   6.056
11631TIP3    H234839   6.675   5.462   5.958
11632TIP3   OH234840   6.834   4.591   4.946
11632TIP3    H134841   6.926   4.609   4.966
11632TIP3    H234842   6.805   4.668   4.897
11633TIP3   OH234843   5.998   5.073   5.651
11633TIP3    H134844   6.030   5.042   5.567
11633TIP3    H234845   6.025   5.005   5.713
11634TIP3   OH234846   6.441   5.181   4.784
11634TIP3    H134847   6.392   5.258   4.813
11634TIP3    H234848   6.428   5.117   4.854
11635TIP3   OH234849   5.874   4.978   6.263
11635TIP3    H134850   5.882   4.964   6.358
11635TIP3    H234851   5.800   4.925   6.236
11636TIP3   OH234852   6.600   5.099   6.284
11636TIP3    H134853   6.534   5.044   6.242
11636TIP3    H234854   6.684   5.066   6.253
11637TIP3   OH234855   7.264   4.691   4.777
11637TIP3    H134856   7.210   4.642   4.715
11637TIP3    H234857   7.267   4.780   4.741
11638TIP3   OH234858   7.467   5.540   5.844
11638TIP3    H134859   7.375   5.565   5.842
11638TIP3    H234860   7.485   5.505   5.756
11639TIP3   OH234861   6.967   5.508   4.686
11639TIP3    H134862   6.940   5.440   4.748
11639TIP3    H234863   6.980   5.462   4.604
11640TIP3   OH234864   6.964   5.140   5.513
11640TIP3    H134865   6.874   5.119   5.537
11640TIP3    H234866   6.997   5.060   5.471
11641TIP3   OH234867   6.074   5.378   5.268
11641TIP3    H134868   6.072   5.458   5.216
11641TIP3    H234869   5.982   5.358   5.285
11642TIP3   OH234870   5.658   4.672   4.983
11642TIP3    H134871   5.705   4.754   5.000
11642TIP3    H234872   5.582   4.676   5.040
11643TIP3   OH234873   6.262   5.184   5.319
11643TIP3    H134874   6.202   5.247   5.280
11643TIP3    H234875   6.213   5.102   5.324
11644TIP3   OH234876   6.366   5.713   5.745
11644TIP3    H134877   6.408   5.785   5.699
11644TIP3    H234878   6.434   5.677   5.802
11645TIP3   OH234879   6.005   5.617   5.126
11645TIP3    H134880   5.922   5.620   5.174
11645TIP3    H234881   6.038   5.707   5.129
11646TIP3   OH234882   6.724   5.244   4.590
11646TIP3    H134883   6.780   5.220   4.664
11646TIP3    H234884   6.637   5.213   4.615
11647TIP3   OH234885   6.995   5.883   5.742
11647TIP3    H134886   6.909   5.841   5.734
11647TIP3    H234887   6.993   5.954   5.678
11648TIP3   OH234888   7.064   5.719   4.407
11648TIP3    H134889   7.109   5.791   4.362
11648TIP3    H234890   6.983   5.757   4.439
11649TIP3   OH234891   6.078   4.491   6.272
11649TIP3    H134892   5.983   4.495   6.279
11649TIP3    H234893   6.105   4.432   6.343
11650TIP3   OH234894   6.890   5.172   4.797
11650TIP3    H134895   6.870   5.113   4.869
11650TIP3    H234896   6.985   5.169   4.788
11651TIP3   OH234897   5.813   5.604   5.915
11651TIP3    H134898   5.829   5.510   5.906
11651TIP3    H234899   5.858   5.629   5.996
11652TIP3   OH234900   6.088   5.218   4.590
11652TIP3    H134901   6.098   5.128   4.560
11652TIP3    H234902   6.066   5.210   4.683
11653TIP3   OH234903   6.029   5.231   4.860
11653TIP3    H134904   6.095   5.194   4.919
11653TIP3    H234905   6.039   5.326   4.870
11654TIP3   OH234906   5.765   4.918   5.065
11654TIP3    H134907   5.699   4.963   5.118
11654TIP3    H234908   5.784   4.980   4.994
11655TIP3   OH234909   6.926   4.554   5.956
11655TIP3    H134910   7.004   4.593   5.997
11655TIP3    H234911   6.909   4.475   6.008
11656TIP3   OH234912   6.812   4.303   5.121
11656TIP3    H134913   6.787   4.326   5.031
11656TIP3    H234914   6.844   4.385   5.159
11657TIP3   OH234915   6.301   5.422   4.815
11657TIP3    H134916   6.215   5.446   4.849
11657TIP3    H234917   6.320   5.488   4.748
11658TIP3   OH234918   6.500   4.484   5.224
11658TIP3    H134919   6.553   4.561   5.201
11658TIP3    H234920   6.499   4.483   5.319
11659TIP3   OH234921   6.758   4.803   6.029
11659TIP3    H134922   6.781   4.856   6.105
11659TIP3    H234923   6.809   4.723   6.040
11660TIP3   OH234924   6.633   4.214   5.325
11660TIP3    H134925   6.608   4.292   5.374
11660TIP3    H234926   6.694   4.246   5.258
11661TIP3   OH234927   6.049   5.505   4.879
11661TIP3    H134928   6.017   5.571   4.817
11661TIP3    H234929   6.032   5.543   4.965
11662TIP3   OH234930   6.148   4.216   5.118
11662TIP3    H134931   6.139   4.307   5.147
11662TIP3    H234932   6.241   4.198   5.122
11663TIP3   OH234933   7.399   4.706   6.014
11663TIP3    H134934   7.303   4.707   6.025
11663TIP3    H234935   7.413   4.670   5.927
11664TIP3   OH234936   7.047   4.895   5.402
11664TIP3    H134937   6.970   4.839   5.410
11664TIP3    H234938   7.116   4.850   5.450
11665TIP3   OH234939   5.767   5.127   4.865
11665TIP3    H134940   5.836   5.193   4.876
11665TIP3    H234941   5.806   5.062   4.806
11666TIP3   OH234942   5.700   4.403   5.001
11666TIP3    H134943   5.711   4.498   5.003
11666TIP3    H234944   5.620   4.389   4.950
11667TIP3   OH234945   7.029   5.842   5.338
11667TIP3    H134946   6.977   5.889   5.273
11667TIP3    H234947   7.119   5.870   5.321
11668TIP3   OH234948   6.096   4.122   5.871
11668TIP3    H134949   6.065   4.092   5.786
11668TIP3    H234950   6.084   4.047   5.929
11669TIP3   OH234951   5.635   5.350   5.251
11669TIP3    H134952   5.573   5.373   5.321
11669TIP3    H234953   5.596   5.388   5.172
11670TIP3   OH234954   5.793   5.888   6.328
11670TIP3    H134955   5.878   5.888   6.372
11670TIP3    H234956   5.768   5.796   6.324
11671TIP3   OH234957   6.271   5.843   6.371
11671TIP3    H134958   6.365   5.828   6.376
11671TIP3    H234959   6.241   5.785   6.302
11672TIP3   OH234960   6.252   5.417   4.501
11672TIP3    H134961   6.191   5.353   4.537
11672TIP3    H234962   6.329   5.366   4.476
11673TIP3   OH234963   6.903   5.771   6.117
11673TIP3    H134964   6.898   5.692   6.170
11673TIP3    H234965   6.989   5.808   6.138
11674TIP3   OH234966   6.690   5.461   4.415
11674TIP3    H134967   6.724   5.396   4.476
11674TIP3    H234968   6.750   5.457   4.340
11675TIP3   OH234969   5.918   5.290   6.525
11675TIP3    H134970   5.936   5.196   6.530
11675TIP3    H234971   5.834   5.296   6.479
11676TIP3   OH234972   5.915   4.945   4.740
11676TIP3    H134973   5.966   4.906   4.811
11676TIP3    H234974   5.974   4.945   4.665
11677TIP3   OH234975   6.528   5.377   6.302
11677TIP3    H134976   6.484   5.401   6.220
11677TIP3    H234977   6.556   5.287   6.289
11678TIP3   OH234978   6.412   5.138   4.522
11678TIP3    H134979   6.414   5.154   4.616
11678TIP3    H234980   6.409   5.043   4.513
11679TIP3   OH234981   6.041   5.032   6.516
11679TIP3    H134982   6.115   4.982   6.481
11679TIP3    H234983   6.071   5.062   6.602
11680TIP3   OH234984   6.072   4.832   4.921
11680TIP3    H134985   6.114   4.844   5.007
11680TIP3    H234986   6.126   4.766   4.878
11681TIP3   OH234987   6.380   4.916   6.176
11681TIP3    H134988   6.299   4.966   6.177
11681TIP3    H234989   6.427   4.947   6.098
11682TIP3   OH234990   6.210   4.634   4.781
11682TIP3    H134991   6.182   4.646   4.690
11682TIP3    H234992   6.305   4.646   4.779
11683TIP3   OH234993   6.895   5.310   6.312
11683TIP3    H134994   6.980   5.287   6.276
11683TIP3    H234995   6.879   5.245   6.381
11684TIP3   OH234996   7.026   4.969   4.445
11684TIP3    H134997   7.007   4.924   4.363
11684TIP3    H234998   6.996   5.059   4.432
11685TIP3   OH234999   6.501   4.700   6.292
11685TIP3    H135000   6.499   4.623   6.236
11685TIP3    H235001   6.458   4.768   6.240
11686TIP3   OH235002   6.501   4.486   6.103
11686TIP3    H135003   6.529   4.528   6.022
11686TIP3    H235004   6.409   4.464   6.088
11687TIP3   OH235005   6.525   5.025   5.980
11687TIP3    H135006   6.608   5.034   5.933
11687TIP3    H235007   6.466   5.086   5.936
11688TIP3   OH235008   7.110   4.985   6.359
11688TIP3    H135009   7.154   4.901   6.366
11688TIP3    H235010   7.177   5.045   6.327
11689TIP3   OH235011   7.147   5.246   6.086
11689TIP3    H135012   7.089   5.311   6.046
11689TIP3    H235013   7.232   5.261   6.046
11690TIP3   OH235014   6.381   4.802   6.531
11690TIP3    H135015   6.312   4.738   6.546
11690TIP3    H235016   6.411   4.785   6.442
11691TIP3   OH235017   6.631   4.248   6.175
11691TIP3    H135018   6.585   4.329   6.151
11691TIP3    H235019   6.566   4.179   6.163
11692TIP3   OH235020   6.756   4.747   6.390
11692TIP3    H135021   6.741   4.735   6.484
11692TIP3    H235022   6.672   4.727   6.349
11693TIP3   OH235023   6.998   4.701   6.247
11693TIP3    H135024   6.923   4.703   6.306
11693TIP3    H235025   7.071   4.671   6.301
11694TIP3   OH235026   7.232   4.644   6.395
11694TIP3    H135027   7.242   4.550   6.409
11694TIP3    H235028   7.225   4.681   6.484
11695TIP3   OH235029   6.217   4.585   6.585
11695TIP3    H135030   6.218   4.496   6.549
11695TIP3    H235031   6.252   4.575   6.673
11696TIP3   OH235032   6.726   4.254   6.431
11696TIP3    H135033   6.792   4.185   6.425
11696TIP3    H235034   6.685   4.256   6.345
11697TIP3   OH235035   6.792   4.472   6.591
11697TIP3    H135036   6.773   4.402   6.528
11697TIP3    H235037   6.717   4.531   6.584
11698TIP3   OH235038   6.019   5.711   4.690
11698TIP3    H135039   6.112   5.695   4.672
11698TIP3    H235040   5.988   5.756   4.612
11699TIP3   OH235041   5.497   5.080   4.906
11699TIP3    H135042   5.588   5.105   4.889
11699TIP3    H235043   5.487   4.995   4.863
11700TIP3   OH235044   5.408   5.696   5.321
11700TIP3    H135045   5.344   5.636   5.282
11700TIP3    H235046   5.455   5.642   5.384
11701TIP3   OH235047   5.548   5.551   5.505
11701TIP3    H135048   5.546   5.476   5.564
11701TIP3    H235049   5.595   5.619   5.553
11702TIP3   OH235050   7.276   5.942   5.299
11702TIP3    H135051   7.290   5.960   5.392
11702TIP3    H235052   7.331   6.007   5.254
11703TIP3   OH235053   7.310   5.934   5.571
11703TIP3    H135054   7.311   5.851   5.619
11703TIP3    H235055   7.360   5.994   5.626
11704TIP3   OH235056   7.346   5.646   6.158
11704TIP3    H135057   7.275   5.650   6.223
11704TIP3    H235058   7.389   5.731   6.165
11705TIP3   OH235059   7.169   5.155   4.776
11705TIP3    H135060   7.233   5.221   4.748
11705TIP3    H235061   7.207   5.115   4.853
11706TIP3   OH235062   7.287   5.015   4.976
11706TIP3    H135063   7.225   4.980   5.039
11706TIP3    H235064   7.359   5.050   5.029
11707TIP3   OH235065   7.350   5.425   5.421
11707TIP3    H135066   7.373   5.344   5.377
11707TIP3    H235067   7.356   5.492   5.353
11708TIP3   OH235068   7.141   5.669   5.645
11708TIP3    H135069   7.108   5.750   5.685
11708TIP3    H235070   7.154   5.692   5.553
11709TIP3   OH235071   7.229   4.929   4.628
11709TIP3    H135072   7.160   4.933   4.561
11709TIP3    H235073   7.208   5.000   4.688
11710TIP3   OH235074   7.115   4.591   4.572
11710TIP3    H135075   7.060   4.651   4.521
11710TIP3    H235076   7.078   4.504   4.555
11711TIP3   OH235077   7.104   4.882   5.135
11711TIP3    H135078   7.107   4.787   5.123
11711TIP3    H235079   7.087   4.894   5.228
11712TIP3   OH235080   5.739   4.915   5.896
11712TIP3    H135081   5.716   4.922   5.804
11712TIP3    H235082   5.833   4.933   5.900
11713TIP3   OH235083   7.395   5.309   5.987
11713TIP3    H135084   7.458   5.239   5.970
11713TIP3    H235085   7.420   5.379   5.926
11714TIP3   OH235086   7.591   5.112   5.999
11714TIP3    H135087   7.510   5.071   6.029
11714TIP3    H235088   7.659   5.048   6.015
11715TIP3   OH235089   7.036   4.322   4.564
11715TIP3    H135090   7.066   4.300   4.652
11715TIP3    H235091   6.948   4.284   4.558
11716TIP3   OH235092   7.111   4.600   5.028
11716TIP3    H135093   7.146   4.511   5.041
11716TIP3    H235094   7.163   4.636   4.956
11717TIP3   OH235095   7.275   4.777   5.513
11717TIP3    H135096   7.339   4.825   5.461
11717TIP3    H235097   7.284   4.812   5.601
11718TIP3   OH235098   7.330   4.915   5.743
11718TIP3    H135099   7.257   4.955   5.791
11718TIP3    H235100   7.377   4.989   5.704
11719TIP3   OH235101   5.950   4.636   6.555
11719TIP3    H135102   6.045   4.634   6.555
11719TIP3    H235103   5.924   4.552   6.592
11720TIP3   OH235104   7.789   4.510   6.305
11720TIP3    H135105   7.846   4.444   6.264
11720TIP3    H235106   7.754   4.561   6.231
11721TIP3   OH235107   7.202   4.343   5.061
11721TIP3    H135108   7.259   4.331   5.136
11721TIP3    H235109   7.142   4.269   5.064
11722TIP3   OH235110   5.914   4.333   5.885
11722TIP3    H135111   5.974   4.258   5.890
11722TIP3    H235112   5.972   4.409   5.874
11723TIP3   OH235113   5.714   4.612   5.955
11723TIP3    H135114   5.762   4.601   5.872
11723TIP3    H235115   5.722   4.705   5.975
11724TIP3   OH235116   7.650   4.641   6.111
11724TIP3    H135117   7.569   4.688   6.129
11724TIP3    H235118   7.624   4.570   6.053
11725TIP3   OH235119   5.696   4.107   5.453
11725TIP3    H135120   5.606   4.102   5.484
11725TIP3    H235121   5.693   4.166   5.378
11726TIP3   OH235122   6.854   5.813   4.962
11726TIP3    H135123   6.902   5.801   4.881
11726TIP3    H235124   6.905   5.877   5.011
11727TIP3   OH235125   5.917   4.190   6.270
11727TIP3    H135126   5.867   4.185   6.352
11727TIP3    H235127   5.856   4.228   6.207
11728TIP3   OH235128   5.955   5.621   6.348
11728TIP3    H135129   5.864   5.596   6.328
11728TIP3    H235130   5.966   5.598   6.440
11729TIP3   OH235131   6.141   5.656   5.897
11729TIP3    H135132   6.084   5.724   5.859
11729TIP3    H235133   6.224   5.667   5.851
11730TIP3   OH235134   6.581   5.896   6.033
11730TIP3    H135135   6.620   5.891   6.120
11730TIP3    H235136   6.645   5.944   5.980
11731TIP3   OH235137   6.762   6.050   5.894
11731TIP3    H135138   6.835   5.999   5.859
11731TIP3    H235139   6.802   6.111   5.955
11732TIP3   OH235140   7.553   4.403   5.991
11732TIP3    H135141   7.464   4.399   5.955
11732TIP3    H235142   7.587   4.314   5.982
11733TIP3   OH235143   5.815   5.933   5.912
11733TIP3    H135144   5.725   5.956   5.889
11733TIP3    H235145   5.816   5.931   6.008
11734TIP3   OH235146   6.049   5.890   5.777
11734TIP3    H135147   5.966   5.903   5.823
11734TIP3    H235148   6.030   5.913   5.686
11735TIP3   OH235149   6.479   5.914   5.574
11735TIP3    H135150   6.405   5.927   5.514
11735TIP3    H235151   6.491   5.999   5.616
11736TIP3   OH235152   6.751   5.830   5.609
11736TIP3    H135153   6.658   5.854   5.602
11736TIP3    H235154   6.798   5.905   5.571
11737TIP3   OH235155   6.930   6.040   5.533
11737TIP3    H135156   6.929   6.133   5.507
11737TIP3    H235157   6.974   5.996   5.461
11738TIP3   OH235158   5.725   5.704   5.668
11738TIP3    H135159   5.744   5.675   5.757
11738TIP3    H235160   5.788   5.658   5.613
11739TIP3   OH235161   5.917   5.572   5.525
11739TIP3    H135162   5.925   5.491   5.575
11739TIP3    H235163   6.006   5.606   5.519
11740TIP3   OH235164   6.191   5.664   5.526
11740TIP3    H135165   6.211   5.571   5.509
11740TIP3    H235166   6.235   5.684   5.608
11741TIP3   OH235167   6.768   4.324   5.626
11741TIP3    H135168   6.717   4.256   5.670
11741TIP3    H235169   6.830   4.277   5.570
11742TIP3   OH235170   7.278   4.200   5.511
11742TIP3    H135171   7.313   4.254   5.440
11742TIP3    H235172   7.184   4.219   5.511
11743TIP3   OH235173   7.380   4.299   5.272
11743TIP3    H135174   7.452   4.246   5.237
11743TIP3    H235175   7.408   4.389   5.261
11744TIP3   OH235176   6.005   4.027   5.626
11744TIP3    H135177   5.914   4.001   5.629
11744TIP3    H235178   6.054   3.945   5.621
11745TIP3   OH235179   5.801   3.904   5.277
11745TIP3    H135180   5.826   3.958   5.202
11745TIP3    H235181   5.769   3.967   5.342
11746TIP3   OH235182   6.459   4.059   5.507
11746TIP3    H135183   6.512   4.109   5.445
11746TIP3    H235184   6.468   4.105   5.590
11747TIP3   OH235185   6.999   4.209   5.489
11747TIP3    H135186   6.987   4.174   5.401
11747TIP3    H235187   6.985   4.133   5.547
11748TIP3   OH235188   7.024   4.130   5.058
11748TIP3    H135189   6.945   4.183   5.072
11748TIP3    H235190   7.005   4.047   5.101
11749TIP3   OH235191   5.508   5.477   5.048
11749TIP3    H135192   5.426   5.438   5.018
11749TIP3    H235193   5.500   5.570   5.026
11750TIP3   OH235194   5.915   4.056   5.041
11750TIP3    H135195   5.960   3.997   4.980
11750TIP3    H235196   5.984   4.113   5.074
11751TIP3   OH235197   6.424   4.239   5.138
11751TIP3    H135198   6.480   4.189   5.197
11751TIP3    H235199   6.442   4.330   5.159
11752TIP3   OH235200   6.284   5.656   4.632
11752TIP3    H135201   6.371   5.680   4.601
11752TIP3    H235202   6.258   5.582   4.577
11753TIP3   OH235203   6.994   5.773   4.728
11753TIP3    H135204   6.989   5.678   4.720
11753TIP3    H235205   6.952   5.807   4.649
11754TIP3   OH235206   6.214   4.311   6.521
11754TIP3    H135207   6.177   4.241   6.575
11754TIP3    H235208   6.307   4.313   6.546
11755TIP3   OH235209   6.466   4.309   6.637
11755TIP3    H135210   6.548   4.286   6.595
11755TIP3    H235211   6.451   4.240   6.702
11756TIP3   OH235212   5.593   5.502   4.693
11756TIP3    H135213   5.588   5.507   4.789
11756TIP3    H235214   5.675   5.457   4.676
11757TIP3   OH235215   7.294   4.372   6.424
11757TIP3    H135216   7.308   4.342   6.514
11757TIP3    H235217   7.380   4.368   6.383
11758TIP3   OH235218   7.223   5.926   5.908
11758TIP3    H135219   7.143   5.895   5.866
11758TIP3    H235220   7.211   6.021   5.916
11759TIP3   OH235221   8.494   5.276   4.688
11759TIP3    H135222   8.488   5.369   4.707
11759TIP3    H235223   8.409   5.254   4.651
11760TIP3   OH235224   8.500   5.292   5.061
11760TIP3    H135225   8.522   5.279   5.153
11760TIP3    H235226   8.450   5.214   5.036
11761TIP3   OH235227   0.274   5.575   4.757
11761TIP3    H135228   0.182   5.551   4.750
11761TIP3    H235229   0.274   5.662   4.796
11762TIP3   OH235230   7.772   5.601   5.160
11762TIP3    H135231   7.760   5.506   5.157
11762TIP3    H235232   7.864   5.614   5.138
11763TIP3   OH235233   7.476   4.785   4.931
11763TIP3    H135234   7.445   4.870   4.961
11763TIP3    H235235   7.400   4.747   4.886
11764TIP3   OH235236   7.522   5.079   5.095
11764TIP3    H135237   7.566   5.018   5.154
11764TIP3    H235238   7.591   5.140   5.067
11765TIP3   OH235239   8.379   6.063   4.774
11765TIP3    H135240   8.416   6.009   4.704
11765TIP3    H235241   8.381   6.006   4.851
11766TIP3   OH235242   8.291   5.524   5.113
11766TIP3    H135243   8.322   5.464   5.045
11766TIP3    H235244   8.370   5.566   5.146
11767TIP3   OH235245   0.200   5.041   5.139
11767TIP3    H135246   0.212   4.950   5.165
11767TIP3    H235247   0.154   5.036   5.055
11768TIP3   OH235248   8.036   4.678   5.106
11768TIP3    H135249   8.028   4.754   5.048
11768TIP3    H235250   7.983   4.610   5.063
11769TIP3   OH235251   0.229   4.775   4.742
11769TIP3    H135252   0.297   4.723   4.783
11769TIP3    H235253   0.276   4.836   4.686
11770TIP3   OH235254   7.680   4.894   5.213
11770TIP3    H135255   7.749   4.875   5.276
11770TIP3    H235256   7.702   4.840   5.137
11771TIP3   OH235257   8.120   5.080   5.010
11771TIP3    H135258   8.213   5.059   5.023
11771TIP3    H235259   8.082   4.998   4.977
11772TIP3   OH235260   8.038   4.665   5.546
11772TIP3    H135261   7.985   4.704   5.476
11772TIP3    H235262   7.986   4.681   5.626
11773TIP3   OH235263   8.149   5.440   5.334
11773TIP3    H135264   8.091   5.510   5.366
11773TIP3    H235265   8.195   5.479   5.260
11774TIP3   OH235266   7.913   4.779   5.330
11774TIP3    H135267   7.968   4.854   5.354
11774TIP3    H235268   7.958   4.741   5.254
11775TIP3   OH235269   7.976   5.638   5.445
11775TIP3    H135270   7.946   5.718   5.402
11775TIP3    H235271   7.902   5.611   5.500
11776TIP3   OH235272   7.368   5.329   4.670
11776TIP3    H135273   7.327   5.356   4.587
11776TIP3    H235274   7.399   5.411   4.709
11777TIP3   OH235275   0.312   5.856   4.914
11777TIP3    H135276   0.233   5.830   4.961
11777TIP3    H235277   0.288   5.938   4.871
11778TIP3   OH235278   8.381   4.372   5.262
11778TIP3    H135279   8.364   4.279   5.279
11778TIP3    H235280   8.307   4.418   5.303
11779TIP3   OH235281   0.003   5.906   4.599
11779TIP3    H135282   0.015   5.812   4.613
11779TIP3    H235283   0.080   5.931   4.547
11780TIP3   OH235284   0.159   5.624   4.458
11780TIP3    H135285   0.071   5.610   4.492
11780TIP3    H235286   0.215   5.625   4.535
11781TIP3   OH235287   0.533   5.744   5.262
11781TIP3    H135288   0.536   5.669   5.202
11781TIP3    H235289   0.530   5.821   5.205
11782TIP3   OH235290   8.315   5.145   4.510
11782TIP3    H135291   8.236   5.198   4.497
11782TIP3    H235292   8.361   5.151   4.426
11783TIP3   OH235293   8.284   4.902   4.256
11783TIP3    H135294   8.333   4.978   4.289
11783TIP3    H235295   8.342   4.863   4.191
11784TIP3   OH235296   0.163   5.230   4.480
11784TIP3    H135297   0.104   5.260   4.549
11784TIP3    H235298   0.237   5.192   4.528
11785TIP3   OH235299   0.385   5.248   5.397
11785TIP3    H135300   0.396   5.331   5.444
11785TIP3    H235301   0.304   5.260   5.347
11786TIP3   OH235302   7.902   5.223   4.905
11786TIP3    H135303   7.864   5.168   4.837
11786TIP3    H235304   7.979   5.174   4.935
11787TIP3   OH235305   8.028   5.628   5.052
11787TIP3    H135306   8.014   5.608   4.960
11787TIP3    H235307   8.117   5.597   5.069
11788TIP3   OH235308   8.036   5.198   5.252
11788TIP3    H135309   8.073   5.175   5.167
11788TIP3    H235310   8.078   5.281   5.275
11789TIP3   OH235311   0.082   5.840   5.046
11789TIP3    H135312   0.054   5.919   5.092
11789TIP3    H235313   0.046   5.768   5.098
11790TIP3   OH235314   8.180   5.761   5.576
11790TIP3    H135315   8.122   5.816   5.628
11790TIP3    H235316   8.121   5.706   5.525
11791TIP3   OH235317   0.013   5.076   4.312
11791TIP3    H135318   0.061   5.141   4.362
11791TIP3    H235319   0.033   5.096   4.221
11792TIP3   OH235320   7.969   5.920   5.666
11792TIP3    H135321   7.943   5.933   5.574
11792TIP3    H235322   7.889   5.889   5.709
11793TIP3   OH235323   7.772   5.067   4.700
11793TIP3    H135324   7.711   5.119   4.647
11793TIP3    H235325   7.722   4.989   4.725
11794TIP3   OH235326   0.334   5.688   3.904
11794TIP3    H135327   0.306   5.779   3.920
11794TIP3    H235328   0.419   5.696   3.861
11795TIP3   OH235329   7.544   5.436   5.605
11795TIP3    H135330   7.477   5.459   5.541
11795TIP3    H235331   7.543   5.341   5.609
11796TIP3   OH235332   7.404   5.648   5.257
11796TIP3    H135333   7.497   5.640   5.234
11796TIP3    H235334   7.398   5.735   5.298
11797TIP3   OH235335   8.368   5.895   5.435
11797TIP3    H135336   8.407   5.948   5.504
11797TIP3    H235337   8.303   5.841   5.480
11798TIP3   OH235338   8.137   6.026   4.378
11798TIP3    H135339   8.085   6.010   4.299
11798TIP3    H235340   8.105   6.110   4.411
11799TIP3   OH235341   7.578   5.864   4.776
11799TIP3    H135342   7.624   5.852   4.859
11799TIP3    H235343   7.517   5.791   4.772
11800TIP3   OH235344   8.338   5.917   4.029
11800TIP3    H135345   8.392   5.843   4.001
11800TIP3    H235346   8.365   5.935   4.119
11801TIP3   OH235347   8.385   5.962   4.299
11801TIP3    H135348   8.297   5.976   4.333
11801TIP3    H235349   8.434   5.926   4.373
11802TIP3   OH235350   7.775   5.576   5.676
11802TIP3    H135351   7.770   5.662   5.718
11802TIP3    H235352   7.691   5.567   5.630
11803TIP3   OH235353   8.152   4.461   5.390
11803TIP3    H135354   8.066   4.431   5.360
11803TIP3    H235355   8.133   4.543   5.437
11804TIP3   OH235356   0.157   4.594   5.571
11804TIP3    H135357   0.220   4.550   5.628
11804TIP3    H235358   0.072   4.575   5.610
11805TIP3   OH235359   0.466   5.008   5.512
11805TIP3    H135360   0.401   5.005   5.582
11805TIP3    H235361   0.442   5.085   5.460
11806TIP3   OH235362   0.095   5.118   4.059
11806TIP3    H135363   0.052   5.105   3.974
11806TIP3    H235364   0.181   5.154   4.037
11807TIP3   OH235365   8.309   4.501   4.362
11807TIP3    H135366   8.275   4.505   4.451
11807TIP3    H235367   8.269   4.423   4.324
11808TIP3   OH235368   8.086   4.980   5.407
11808TIP3    H135369   8.037   4.995   5.488
11808TIP3    H235370   8.069   5.058   5.354
11809TIP3   OH235371   7.975   4.862   4.918
11809TIP3    H135372   7.883   4.845   4.939
11809TIP3    H235373   7.987   4.823   4.832
11810TIP3   OH235374   8.457   4.950   4.643
11810TIP3    H135375   8.404   5.022   4.611
11810TIP3    H235376   8.513   4.926   4.569
11811TIP3   OH235377   0.130   5.214   5.723
11811TIP3    H135378   0.125   5.147   5.792
11811TIP3    H235379   0.217   5.251   5.732
11812TIP3   OH235380   0.098   4.981   4.886
11812TIP3    H135381   0.043   5.011   4.814
11812TIP3    H235382   0.132   4.896   4.858
11813TIP3   OH235383   7.922   4.980   5.624
11813TIP3    H135384   7.933   5.035   5.702
11813TIP3    H235385   7.888   4.897   5.658
11814TIP3   OH235386   7.954   4.482   4.326
11814TIP3    H135387   7.950   4.490   4.421
11814TIP3    H235388   7.884   4.539   4.294
11815TIP3   OH235389   7.522   4.517   5.199
11815TIP3    H135390   7.570   4.554   5.272
11815TIP3    H235391   7.564   4.554   5.121
11816TIP3   OH235392   0.101   5.225   5.313
11816TIP3    H135393   0.145   5.167   5.251
11816TIP3    H235394   0.081   5.169   5.388
11817TIP3   OH235395   8.292   4.697   4.979
11817TIP3    H135396   8.221   4.689   5.042
11817TIP3    H235397   8.370   4.664   5.024
11818TIP3   OH235398   7.737   4.743   4.988
11818TIP3    H135399   7.645   4.751   4.961
11818TIP3    H235400   7.762   4.655   4.959
11819TIP3   OH235401   7.998   4.732   4.678
11819TIP3    H135402   8.090   4.751   4.663
11819TIP3    H235403   7.955   4.759   4.596
11820TIP3   OH235404   0.215   4.775   5.179
11820TIP3    H135405   0.202   4.787   5.273
11820TIP3    H235406   0.292   4.719   5.172
11821TIP3   OH235407   7.849   4.759   4.448
11821TIP3    H135408   7.780   4.723   4.392
11821TIP3    H235409   7.905   4.809   4.389
11822TIP3   OH235410   8.382   5.012   5.081
11822TIP3    H135411   8.449   4.976   5.023
11822TIP3    H235412   8.391   4.962   5.162
11823TIP3   OH235413   7.886   4.498   4.948
11823TIP3    H135414   7.868   4.421   5.002
11823TIP3    H235415   7.958   4.471   4.891
11824TIP3   OH235416   8.355   4.905   5.378
11824TIP3    H135417   8.268   4.945   5.382
11824TIP3    H235418   8.412   4.969   5.419
11825TIP3   OH235419   8.092   5.297   4.461
11825TIP3    H135420   8.018   5.238   4.444
11825TIP3    H235421   8.074   5.334   4.547
11826TIP3   OH235422   0.489   5.546   5.074
11826TIP3    H135423   0.487   5.559   4.979
11826TIP3    H235424   0.409   5.496   5.093
11827TIP3   OH235425   0.059   4.608   4.321
11827TIP3    H135426  -0.033   4.585   4.331
11827TIP3    H235427   0.061   4.703   4.334
11828TIP3   OH235428  -0.012   5.604   5.474
11828TIP3    H135429   0.048   5.586   5.546
11828TIP3    H235430  -0.024   5.699   5.476
11829TIP3   OH235431   0.160   4.868   4.406
11829TIP3    H135432   0.236   4.923   4.427
11829TIP3    H235433   0.098   4.929   4.365
11830TIP3   OH235434   7.787   5.323   5.137
11830TIP3    H135435   7.822   5.300   5.051
11830TIP3    H235436   7.837   5.268   5.198
11831TIP3   OH235437   8.272   5.460   4.288
11831TIP3    H135438   8.222   5.542   4.291
11831TIP3    H235439   8.219   5.398   4.339
11832TIP3   OH235440   7.728   5.236   5.787
11832TIP3    H135441   7.690   5.194   5.864
11832TIP3    H235442   7.684   5.194   5.713
11833TIP3   OH235443   8.397   5.345   5.762
11833TIP3    H135444   8.349   5.300   5.692
11833TIP3    H235445   8.489   5.327   5.743
11834TIP3   OH235446   0.155   5.863   5.396
11834TIP3    H135447   0.071   5.890   5.359
11834TIP3    H235448   0.160   5.909   5.479
11835TIP3   OH235449   0.244   5.773   4.168
11835TIP3    H135450   0.234   5.742   4.258
11835TIP3    H235451   0.291   5.701   4.124
11836TIP3   OH235452   0.262   5.388   5.045
11836TIP3    H135453   0.167   5.384   5.038
11836TIP3    H235454   0.294   5.321   4.985
11837TIP3   OH235455   7.894   5.631   4.775
11837TIP3    H135456   7.894   5.707   4.716
11837TIP3    H235457   7.803   5.602   4.775
11838TIP3   OH235458   7.459   4.923   4.476
11838TIP3    H135459   7.503   5.007   4.489
11838TIP3    H235460   7.381   4.928   4.530
11839TIP3   OH235461   8.012   5.386   4.704
11839TIP3    H135462   7.996   5.478   4.723
11839TIP3    H235463   7.979   5.339   4.781
11840TIP3   OH235464   8.159   5.968   5.235
11840TIP3    H135465   8.195   6.037   5.178
11840TIP3    H235466   8.236   5.932   5.279
11841TIP3   OH235467   7.805   5.857   4.616
11841TIP3    H135468   7.719   5.867   4.657
11841TIP3    H235469   7.835   5.947   4.601
11842TIP3   OH235470   0.037   5.603   5.200
11842TIP3    H135471   0.027   5.594   5.294
11842TIP3    H235472   0.123   5.566   5.181
11843TIP3   OH235473   0.029   5.454   4.057
11843TIP3    H135474   0.080   5.449   4.138
11843TIP3    H235475  -0.062   5.446   4.086
11844TIP3   OH235476   7.869   4.735   5.758
11844TIP3    H135477   7.775   4.744   5.771
11844TIP3    H235478   7.899   4.682   5.832
11845TIP3   OH235479   0.203   5.428   4.279
11845TIP3    H135480   0.185   5.354   4.337
11845TIP3    H235481   0.198   5.504   4.336
11846TIP3   OH235482   7.588   5.840   5.384
11846TIP3    H135483   7.664   5.784   5.400
11846TIP3    H235484   7.601   5.915   5.442
11847TIP3   OH235485   7.883   5.481   4.077
11847TIP3    H135486   7.933   5.406   4.046
11847TIP3    H235487   7.865   5.462   4.169
11848TIP3   OH235488   7.830   5.483   4.353
11848TIP3    H135489   7.915   5.458   4.391
11848TIP3    H235490   7.830   5.578   4.354
11849TIP3   OH235491   7.563   5.176   4.551
11849TIP3    H135492   7.498   5.219   4.607
11849TIP3    H235493   7.582   5.240   4.482
11850TIP3   OH235494   0.219   4.833   5.450
11850TIP3    H135495   0.306   4.854   5.486
11850TIP3    H235496   0.195   4.751   5.493
11851TIP3   OH235497   0.078   4.573   4.616
11851TIP3    H135498   0.075   4.589   4.521
11851TIP3    H235499   0.124   4.649   4.651
11852TIP3   OH235500   8.094   5.676   4.294
11852TIP3    H135501   8.010   5.700   4.332
11852TIP3    H235502   8.120   5.753   4.242
11853TIP3   OH235503   8.278   4.747   4.709
11853TIP3    H135504   8.341   4.816   4.690
11853TIP3    H235505   8.285   4.735   4.804
11854TIP3   OH235506   0.047   5.052   5.515
11854TIP3    H135507   0.074   5.106   5.589
11854TIP3    H235508   0.110   4.980   5.514
11855TIP3   OH235509   8.423   4.458   4.806
11855TIP3    H135510   8.445   4.508   4.884
11855TIP3    H235511   8.477   4.497   4.737
11856TIP3   OH235512   7.837   5.755   4.359
11856TIP3    H135513   7.811   5.825   4.298
11856TIP3    H235514   7.822   5.793   4.445
11857TIP3   OH235515   7.939   4.475   4.606
11857TIP3    H135516   7.941   4.566   4.637
11857TIP3    H235517   8.031   4.448   4.609
11858TIP3   OH235518   0.342   5.134   4.918
11858TIP3    H135519   0.255   5.106   4.889
11858TIP3    H235520   0.350   5.101   5.007
11859TIP3   OH235521   7.562   5.385   4.355
11859TIP3    H135522   7.633   5.448   4.369
11859TIP3    H235523   7.598   5.323   4.291
11860TIP3   OH235524   7.490   4.636   4.511
11860TIP3    H135525   7.521   4.727   4.505
11860TIP3    H235526   7.404   4.638   4.469
11861TIP3   OH235527   0.331   6.140   4.840
11861TIP3    H135528   0.277   6.181   4.772
11861TIP3    H235529   0.410   6.112   4.794
11862TIP3   OH235530   7.887   4.380   5.359
11862TIP3    H135531   7.859   4.347   5.273
11862TIP3    H235532   7.881   4.305   5.417
11863TIP3   OH235533   7.424   5.594   4.739
11863TIP3    H135534   7.361   5.625   4.803
11863TIP3    H235535   7.398   5.636   4.657
11864TIP3   OH235536   7.630   6.085   5.755
11864TIP3    H135537   7.683   6.111   5.830
11864TIP3    H235538   7.543   6.069   5.791
11865TIP3   OH235539   8.032   6.126   5.842
11865TIP3    H135540   8.125   6.145   5.847
11865TIP3    H235541   8.025   6.049   5.785
11866TIP3   OH235542   8.052   5.669   3.984
11866TIP3    H135543   7.983   5.617   4.026
11866TIP3    H235544   8.125   5.607   3.974
11867TIP3   OH235545  -0.002   5.717   3.910
11867TIP3    H135546   0.071   5.718   3.971
11867TIP3    H235547   0.039   5.730   3.824
11868TIP3   OH235548   7.719   5.494   5.965
11868TIP3    H135549   7.730   5.464   6.055
11868TIP3    H235550   7.630   5.530   5.963
11869TIP3   OH235551   7.691   5.192   4.219
11869TIP3    H135552   7.752   5.170   4.290
11869TIP3    H235553   7.746   5.193   4.141
11870TIP3   OH235554   8.314   5.614   5.779
11870TIP3    H135555   8.292   5.638   5.689
11870TIP3    H235556   8.353   5.527   5.771
11871TIP3   OH235557   0.296   5.637   5.350
11871TIP3    H135558   0.379   5.672   5.318
11871TIP3    H235559   0.239   5.713   5.359
11872TIP3   OH235560   7.890   5.103   4.424
11872TIP3    H135561   7.873   5.066   4.511
11872TIP3    H235562   7.933   5.032   4.376
11873TIP3   OH235563   8.186   5.163   5.652
11873TIP3    H135564   8.144   5.248   5.665
11873TIP3    H235565   8.238   5.174   5.573
11874TIP3   OH235566   8.006   4.895   4.273
11874TIP3    H135567   7.982   4.906   4.181
11874TIP3    H235568   8.102   4.894   4.273
11875TIP3   OH235569   0.159   5.534   5.722
11875TIP3    H135570   0.250   5.544   5.693
11875TIP3    H235571   0.166   5.510   5.815
11876TIP3   OH235572   8.299   4.953   5.779
11876TIP3    H135573   8.297   4.875   5.724
11876TIP3    H235574   8.256   5.021   5.727
11877TIP3   OH235575   8.296   4.742   5.594
11877TIP3    H135576   8.326   4.787   5.515
11877TIP3    H235577   8.204   4.722   5.576
11878TIP3   OH235578   8.333   5.280   5.464
11878TIP3    H135579   8.418   5.291   5.423
11878TIP3    H235580   8.275   5.340   5.418
11879TIP3   OH235581   0.392   5.257   5.796
11879TIP3    H135582   0.440   5.182   5.761
11879TIP3    H235583   0.456   5.328   5.794
11880TIP3   OH235584   0.410   5.485   5.536
11880TIP3    H135585   0.343   5.538   5.493
11880TIP3    H235586   0.492   5.515   5.497
11881TIP3   OH235587   8.184   5.059   6.016
11881TIP3    H135588   8.106   5.005   6.031
11881TIP3    H235589   8.209   5.041   5.926
11882TIP3   OH235590   8.417   4.504   5.665
11882TIP3    H135591   8.369   4.584   5.643
11882TIP3    H235592   8.353   4.434   5.652
11883TIP3   OH235593   0.059   4.991   5.879
11883TIP3    H135594   0.029   4.986   5.970
11883TIP3    H235595  -0.021   4.978   5.828
11884TIP3   OH235596   0.299   4.953   5.729
11884TIP3    H135597   0.216   4.959   5.777
11884TIP3    H235598   0.361   4.918   5.793
11885TIP3   OH235599   0.480   4.875   5.917
11885TIP3    H135600   0.557   4.820   5.929
11885TIP3    H235601   0.499   4.954   5.969
11886TIP3   OH235602   8.012   4.843   6.072
11886TIP3    H135603   8.015   4.755   6.033
11886TIP3    H235604   8.050   4.832   6.159
11887TIP3   OH235605   0.021   4.512   5.918
11887TIP3    H135606   0.078   4.435   5.916
11887TIP3    H235607  -0.020   4.513   5.832
11888TIP3   OH235608   0.086   4.726   6.079
11888TIP3    H135609   0.069   4.658   6.014
11888TIP3    H235610   0.014   4.788   6.067
11889TIP3   OH235611   7.812   5.959   4.170
11889TIP3    H135612   7.906   5.947   4.156
11889TIP3    H235613   7.784   6.015   4.097
11890TIP3   OH235614   7.293   5.341   4.388
11890TIP3    H135615   7.385   5.365   4.377
11890TIP3    H235616   7.286   5.254   4.349
11891TIP3   OH235617   7.192   5.943   4.811
11891TIP3    H135618   7.129   5.883   4.771
11891TIP3    H235619   7.243   5.888   4.870
11892TIP3   OH235620   7.343   5.802   4.991
11892TIP3    H135621   7.328   5.733   5.056
11892TIP3    H235622   7.389   5.870   5.040
11893TIP3   OH235623   0.498   5.961   5.087
11893TIP3    H135624   0.436   6.006   5.144
11893TIP3    H235625   0.444   5.918   5.021
11894TIP3   OH235626   0.379   5.103   4.611
11894TIP3    H135627   0.466   5.065   4.618
11894TIP3    H235628   0.367   5.152   4.692
11895TIP3   OH235629   7.747   4.895   6.044
11895TIP3    H135630   7.842   4.892   6.042
11895TIP3    H235631   7.721   4.810   6.079
11896TIP3   OH235632   7.706   4.595   5.386
11896TIP3    H135633   7.765   4.519   5.386
11896TIP3    H235634   7.763   4.670   5.369
11897TIP3   OH235635   0.164   6.070   4.443
11897TIP3    H135636   0.203   6.065   4.356
11897TIP3    H235637   0.208   6.144   4.485
11898TIP3   OH235638   7.712   4.444   5.758
11898TIP3    H135639   7.663   4.439   5.841
11898TIP3    H235640   7.650   4.482   5.696
11899TIP3   OH235641   7.750   5.815   5.809
11899TIP3    H135642   7.664   5.854   5.800
11899TIP3    H235643   7.783   5.848   5.893
11900TIP3   OH235644   7.928   5.914   5.379
11900TIP3    H135645   7.879   5.987   5.341
11900TIP3    H235646   8.015   5.920   5.338
11901TIP3   OH235647   7.605   6.157   5.418
11901TIP3    H135648   7.517   6.185   5.395
11901TIP3    H235649   7.619   6.191   5.506
11902TIP3   OH235650   7.833   6.152   5.269
11902TIP3    H135651   7.757   6.163   5.326
11902TIP3    H235652   7.800   6.173   5.182
11903TIP3   OH235653   8.256   6.162   5.063
11903TIP3    H135654   8.234   6.178   4.972
11903TIP3    H235655   8.272   6.249   5.100
11904TIP3   OH235656   0.020   6.097   5.129
11904TIP3    H135657  -0.068   6.118   5.096
11904TIP3    H235658   0.076   6.167   5.095
11905TIP3   OH235659   0.160   6.296   5.005
11905TIP3    H135660   0.200   6.383   5.010
11905TIP3    H235661   0.222   6.243   4.955
11906TIP3   OH235662   7.526   5.968   5.146
11906TIP3    H135663   7.541   5.940   5.237
11906TIP3    H235664   7.589   5.917   5.095
11907TIP3   OH235665   7.710   5.823   5.014
11907TIP3    H135666   7.722   5.740   5.061
11907TIP3    H235667   7.798   5.861   5.008
11908TIP3   OH235668   7.967   5.914   5.025
11908TIP3    H135669   8.007   5.832   4.996
11908TIP3    H235670   8.024   5.946   5.094
11909TIP3   OH235671   0.010   4.543   5.058
11909TIP3    H135672  -0.006   4.491   5.137
11909TIP3    H235673   0.105   4.540   5.046
11910TIP3   OH235674   7.805   4.279   5.111
11910TIP3    H135675   7.715   4.250   5.123
11910TIP3    H235676   7.857   4.199   5.110
11911TIP3   OH235677   8.247   4.323   4.997
11911TIP3    H135678   8.297   4.366   4.927
11911TIP3    H235679   8.281   4.361   5.078
11912TIP3   OH235680   0.262   4.448   4.978
11912TIP3    H135681   0.283   4.432   4.886
11912TIP3    H235682   0.259   4.361   5.017
11913TIP3   OH235683   7.304   5.735   4.543
11913TIP3    H135684   7.222   5.698   4.510
11913TIP3    H235685   7.300   5.828   4.519
11914TIP3   OH235686   7.707   4.340   4.557
11914TIP3    H135687   7.726   4.258   4.512
11914TIP3    H235688   7.793   4.379   4.574
11915TIP3   OH235689   8.217   4.496   4.626
11915TIP3    H135690   8.279   4.450   4.682
11915TIP3    H235691   8.231   4.588   4.644
11916TIP3   OH235692   8.077   5.911   4.116
11916TIP3    H135693   8.164   5.938   4.086
11916TIP3    H235694   8.056   5.834   4.062
11917TIP3   OH235695   0.298   6.050   4.208
11917TIP3    H135696   0.280   5.959   4.186
11917TIP3    H235697   0.301   6.095   4.124
11918TIP3   OH235698   8.011   4.567   6.008
11918TIP3    H135699   7.973   4.498   6.062
11918TIP3    H235700   8.104   4.569   6.033
11919TIP3   OH235701   8.262   4.566   6.125
11919TIP3    H135702   8.345   4.542   6.083
11919TIP3    H235703   8.248   4.497   6.190
11920TIP3   OH235704   7.383   5.746   4.178
11920TIP3    H135705   7.391   5.774   4.269
11920TIP3    H235706   7.468   5.706   4.157
11921TIP3   OH235707   0.947   6.086   6.370
11921TIP3    H135708   0.916   6.176   6.373
11921TIP3    H235709   0.879   6.039   6.322
11922TIP3   OH235710   0.968   6.066   6.741
11922TIP3    H135711   0.988   6.047   6.833
11922TIP3    H235712   0.913   5.993   6.713
11923TIP3   OH235713   1.192   6.388   6.439
11923TIP3    H135714   1.178   6.322   6.507
11923TIP3    H235715   1.220   6.466   6.486
11924TIP3   OH235716   0.891   6.874   6.437
11924TIP3    H135717   0.939   6.793   6.421
11924TIP3    H235718   0.822   6.849   6.498
11925TIP3   OH235719   0.773   6.270   6.826
11925TIP3    H135720   0.798   6.206   6.759
11925TIP3    H235721   0.852   6.323   6.838
11926TIP3   OH235722   1.762   5.631   6.799
11926TIP3    H135723   1.789   5.712   6.843
11926TIP3    H235724   1.784   5.645   6.707
11927TIP3   OH235725   1.157   5.808   6.834
11927TIP3    H135726   1.198   5.724   6.855
11927TIP3    H235727   1.125   5.797   6.745
11928TIP3   OH235728   1.195   5.564   6.419
11928TIP3    H135729   1.261   5.549   6.487
11928TIP3    H235730   1.244   5.599   6.345
11929TIP3   OH235731   7.498   1.832   0.032
11929TIP3    H135732   7.416   1.876   0.009
11929TIP3    H235733   7.520   1.865   0.119
11930TIP3   OH235734   0.817   6.312   6.252
11930TIP3    H135735   0.801   6.274   6.165
11930TIP3    H235736   0.886   6.377   6.237
11931TIP3   OH235737   1.398   5.569   6.598
11931TIP3    H135738   1.380   5.523   6.681
11931TIP3    H235739   1.449   5.646   6.624
11932TIP3   OH235740   1.257   6.630   6.596
11932TIP3    H135741   1.171   6.620   6.636
11932TIP3    H235742   1.254   6.717   6.556
11933TIP3   OH235743   1.553   5.529   6.964
11933TIP3    H135744   1.466   5.555   6.932
11933TIP3    H235745   1.613   5.562   6.897
11934TIP3   OH235746   6.518   1.154   0.004
11934TIP3    H135747   6.508   1.059   0.018
11934TIP3    H235748   6.473   1.193   0.078
11935TIP3   OH235749   0.958   6.654   6.258
11935TIP3    H135750   1.004   6.572   6.239
11935TIP3    H235751   1.017   6.722   6.228
11936TIP3   OH235752   1.083   6.424   6.187
11936TIP3    H135753   1.114   6.360   6.123
11936TIP3    H235754   1.133   6.405   6.266
11937TIP3   OH235755   1.483   6.539   6.946
11937TIP3    H135756   1.473   6.463   6.888
11937TIP3    H235757   1.467   6.615   6.889
11938TIP3   OH235758   0.778   5.950   6.207
11938TIP3    H135759   0.698   5.901   6.228
11938TIP3    H235760   0.795   5.932   6.115
11939TIP3   OH235761   0.756   5.728   5.918
11939TIP3    H135762   0.826   5.780   5.957
11939TIP3    H235763   0.802   5.661   5.867
11940TIP3   OH235764   1.679   6.183   6.791
11940TIP3    H135765   1.597   6.231   6.797
11940TIP3    H235766   1.713   6.204   6.704
11941TIP3   OH235767   1.126   6.016   6.177
11941TIP3    H135768   1.073   6.040   6.252
11941TIP3    H235769   1.211   5.992   6.215
11942TIP3   OH235770   7.025   2.050   0.151
11942TIP3    H135771   7.027   2.130   0.203
11942TIP3    H235772   6.942   2.054   0.103
11943TIP3   OH235773   1.019   6.623   6.714
11943TIP3    H135774   0.992   6.708   6.748
11943TIP3    H235775   0.999   6.562   6.785
11944TIP3   OH235776   0.970   5.876   5.999
11944TIP3    H135777   1.020   5.935   6.055
11944TIP3    H235778   0.995   5.898   5.910
11945TIP3   OH235779   1.475   5.119   6.046
11945TIP3    H135780   1.398   5.134   6.101
11945TIP3    H235781   1.491   5.203   6.004
11946TIP3   OH235782   1.292   6.483   5.598
11946TIP3    H135783   1.294   6.577   5.582
11946TIP3    H235784   1.381   6.453   5.577
11947TIP3   OH235785   7.394   2.879   0.055
11947TIP3    H135786   7.393   2.784   0.068
11947TIP3    H235787   7.313   2.910   0.096
11948TIP3   OH235788   0.794   6.708   5.711
11948TIP3    H135789   0.853   6.637   5.685
11948TIP3    H235790   0.807   6.715   5.806
11949TIP3   OH235791   0.839   6.754   5.994
11949TIP3    H135792   0.772   6.760   6.062
11949TIP3    H235793   0.920   6.735   6.043
11950TIP3   OH235794   7.276   2.007   0.329
11950TIP3    H135795   7.196   2.022   0.279
11950TIP3    H235796   7.294   1.914   0.319
11951TIP3   OH235797   6.818   1.357   0.331
11951TIP3    H135798   6.886   1.330   0.394
11951TIP3    H235799   6.736   1.339   0.376
11952TIP3   OH235800   7.045   1.786   0.250
11952TIP3    H135801   6.996   1.782   0.332
11952TIP3    H235802   7.024   1.873   0.214
11953TIP3   OH235803   1.041   5.917   5.743
11953TIP3    H135804   1.003   5.897   5.657
11953TIP3    H235805   1.123   5.962   5.722
11954TIP3   OH235806   0.743   5.302   6.026
11954TIP3    H135807   0.733   5.304   6.121
11954TIP3    H235808   0.713   5.214   6.001
11955TIP3   OH235809   0.919   5.745   6.339
11955TIP3    H135810   0.868   5.818   6.303
11955TIP3    H235811   0.967   5.709   6.265
11956TIP3   OH235812   6.781   1.994   0.472
11956TIP3    H135813   6.754   1.924   0.532
11956TIP3    H235814   6.874   2.006   0.490
11957TIP3   OH235815   1.068   5.761   6.574
11957TIP3    H135816   1.008   5.795   6.508
11957TIP3    H235817   1.106   5.682   6.534
11958TIP3   OH235818   6.745   1.999   0.060
11958TIP3    H135819   6.781   1.936  -0.003
11958TIP3    H235820   6.716   1.945   0.134
11959TIP3   OH235821   0.761   5.466   6.661
11959TIP3    H135822   0.672   5.492   6.682
11959TIP3    H235823   0.810   5.479   6.742
11960TIP3   OH235824   1.240   5.546   6.877
11960TIP3    H135825   1.210   5.563   6.967
11960TIP3    H235826   1.175   5.485   6.842
11961TIP3   OH235827   7.088   3.226   0.112
11961TIP3    H135828   7.072   3.237   0.018
11961TIP3    H235829   7.105   3.315   0.143
11962TIP3   OH235830   0.847   5.788   6.769
11962TIP3    H135831   0.920   5.760   6.714
11962TIP3    H235832   0.863   5.747   6.854
11963TIP3   OH235833   6.507   1.682   0.111
11963TIP3    H135834   6.440   1.750   0.106
11963TIP3    H235835   6.578   1.722   0.160
11964TIP3   OH235836   1.445   6.325   6.778
11964TIP3    H135837   1.472   6.376   6.701
11964TIP3    H235838   1.364   6.282   6.752
11965TIP3   OH235839   0.998   5.404   6.011
11965TIP3    H135840   0.905   5.386   6.020
11965TIP3    H235841   1.010   5.493   6.045
11966TIP3   OH235842   6.598   2.403   0.208
11966TIP3    H135843   6.639   2.403   0.295
11966TIP3    H235844   6.550   2.486   0.205
11967TIP3   OH235845   1.074   5.647   6.120
11967TIP3    H135846   1.168   5.652   6.139
11967TIP3    H235847   1.056   5.728   6.071
11968TIP3   OH235848   0.678   6.243   5.988
11968TIP3    H135849   0.623   6.322   5.986
11968TIP3    H235850   0.626   6.178   6.035
11969TIP3   OH235851   6.563   2.112   0.592
11969TIP3    H135852   6.500   2.069   0.535
11969TIP3    H235853   6.648   2.092   0.552
11970TIP3   OH235854   6.773   2.651   0.109
11970TIP3    H135855   6.678   2.663   0.107
11970TIP3    H235856   6.803   2.705   0.181
11971TIP3   OH235857   1.509   5.745   5.953
11971TIP3    H135858   1.450   5.698   5.893
11971TIP3    H235859   1.512   5.835   5.918
11972TIP3   OH235860   7.401   2.590   0.091
11972TIP3    H135861   7.306   2.587   0.087
11972TIP3    H235862   7.430   2.561   0.005
11973TIP3   OH235863   1.209   6.559   5.857
11973TIP3    H135864   1.202   6.485   5.918
11973TIP3    H235865   1.235   6.519   5.774
11974TIP3   OH235866   1.218   6.184   6.693
11974TIP3    H135867   1.126   6.161   6.709
11974TIP3    H235868   1.254   6.108   6.648
11975TIP3   OH235869   1.011   6.388   6.886
11975TIP3    H135870   0.997   6.397   6.980
11975TIP3    H235871   1.099   6.349   6.878
11976TIP3   OH235872   0.982   6.285   5.765
11976TIP3    H135873   1.024   6.265   5.848
11976TIP3    H235874   0.892   6.254   5.775
11977TIP3   OH235875   1.253   6.909   6.917
11977TIP3    H135876   1.170   6.861   6.915
11977TIP3    H235877   1.238   6.985   6.861
11978TIP3   OH235878   1.310   6.763   5.579
11978TIP3    H135879   1.356   6.839   5.543
11978TIP3    H235880   1.228   6.799   5.614
11979TIP3   OH235881   1.137   6.224   5.996
11979TIP3    H135882   1.124   6.152   6.057
11979TIP3    H235883   1.229   6.217   5.970
11980TIP3   OH235884   6.836   1.597   0.198
11980TIP3    H135885   6.919   1.633   0.228
11980TIP3    H235886   6.825   1.516   0.247
11981TIP3   OH235887   1.065   5.345   6.300
11981TIP3    H135888   1.035   5.371   6.212
11981TIP3    H235889   1.096   5.427   6.339
11982TIP3   OH235890   0.739   5.542   6.398
11982TIP3    H135891   0.802   5.613   6.387
11982TIP3    H235892   0.737   5.526   6.493
11983TIP3   OH235893   6.685   1.834   0.264
11983TIP3    H135894   6.713   1.889   0.338
11983TIP3    H235895   6.740   1.755   0.271
11984TIP3   OH235896   0.892   5.256   6.518
11984TIP3    H135897   0.863   5.336   6.561
11984TIP3    H235898   0.941   5.287   6.441
11985TIP3   OH235899   7.310   1.742   0.248
11985TIP3    H135900   7.215   1.742   0.256
11985TIP3    H235901   7.328   1.701   0.164
11986TIP3   OH235902   1.299   5.942   6.576
11986TIP3    H135903   1.221   5.888   6.590
11986TIP3    H235904   1.369   5.896   6.623
11987TIP3   OH235905   1.272   6.897   6.522
11987TIP3    H135906   1.227   6.944   6.452
11987TIP3    H235907   1.365   6.915   6.506
11988TIP3   OH235908   6.823   2.793   0.336
11988TIP3    H135909   6.814   2.732   0.410
11988TIP3    H235910   6.900   2.846   0.358
11989TIP3   OH235911   0.944   6.507   5.589
11989TIP3    H135912   0.981   6.444   5.651
11989TIP3    H235913   0.999   6.500   5.512
11990TIP3   OH235914   0.681   6.189   5.711
11990TIP3    H135915   0.669   6.203   5.805
11990TIP3    H235916   0.671   6.095   5.699
11991TIP3   OH235917   6.933   2.431   0.141
11991TIP3    H135918   7.011   2.467   0.100
11991TIP3    H235919   6.866   2.499   0.129
11992TIP3   OH235920   0.494   5.697   6.011
11992TIP3    H135921   0.470   5.694   5.918
11992TIP3    H235922   0.590   5.700   6.011
11993TIP3   OH235923   6.801   2.352   0.547
11993TIP3    H135924   6.874   2.329   0.490
11993TIP3    H235925   6.798   2.282   0.612
11994TIP3   OH235926   1.270   6.013   5.626
11994TIP3    H135927   1.255   5.969   5.542
11994TIP3    H235928   1.245   6.104   5.610
11995TIP3   OH235929   6.384   1.473   0.256
11995TIP3    H135930   6.432   1.538   0.206
11995TIP3    H235931   6.344   1.522   0.328
11996TIP3   OH235932   6.499   2.122   0.160
11996TIP3    H135933   6.590   2.102   0.138
11996TIP3    H235934   6.480   2.203   0.113
11997TIP3   OH235935   7.042   2.013   0.581
11997TIP3    H135936   7.092   1.933   0.596
11997TIP3    H235937   7.107   2.075   0.547
11998TIP3   OH235938   7.065   2.276   0.317
11998TIP3    H135939   7.006   2.331   0.265
11998TIP3    H235940   7.152   2.297   0.284
11999TIP3   OH235941   6.557   1.287   0.394
11999TIP3    H135942   6.500   1.361   0.371
11999TIP3    H235943   6.506   1.209   0.373
12000TIP3   OH235944   6.684   1.791   0.633
12000TIP3    H135945   6.714   1.787   0.723
12000TIP3    H235946   6.600   1.744   0.632
12001TIP3   OH235947   6.918   1.733   0.482
12001TIP3    H135948   6.844   1.732   0.543
12001TIP3    H235949   6.993   1.706   0.535
12002TIP3   OH235950   7.147   1.682   0.632
12002TIP3    H135951   7.157   1.588   0.645
12002TIP3    H235952   7.140   1.718   0.721
12003TIP3   OH235953   6.658   1.303   0.653
12003TIP3    H135954   6.712   1.224   0.655
12003TIP3    H235955   6.610   1.297   0.571
12004TIP3   OH235956   6.722   1.516   0.804
12004TIP3    H135957   6.710   1.438   0.751
12004TIP3    H235958   6.636   1.556   0.809
12005TIP3   OH235959   1.528   6.985   6.486
12005TIP3    H135960   1.549   7.018   6.573
12005TIP3    H235961   1.585   7.035   6.427
12006TIP3   OH235962   1.553   7.004   6.764
12006TIP3    H135963   1.509   6.919   6.758
12006TIP3    H235964   1.628   6.988   6.822
12007TIP3   OH235965   7.270   2.680   0.393
12007TIP3    H135966   7.193   2.696   0.446
12007TIP3    H235967   7.316   2.764   0.389
12008TIP3   OH235968   1.406   6.199   5.958
12008TIP3    H135969   1.459   6.271   5.924
12008TIP3    H235970   1.457   6.165   6.031
12009TIP3   OH235971   1.542   6.067   6.162
12009TIP3    H135972   1.477   6.027   6.219
12009TIP3    H235973   1.607   6.104   6.221
12010TIP3   OH235974   1.600   6.462   6.593
12010TIP3    H135975   1.649   6.395   6.545
12010TIP3    H235976   1.597   6.537   6.533
12011TIP3   OH235977   1.430   6.753   6.783
12011TIP3    H135978   1.362   6.802   6.831
12011TIP3    H235979   1.382   6.711   6.711
12012TIP3   OH235980   1.473   5.976   5.807
12012TIP3    H135981   1.407   5.978   5.738
12012TIP3    H235982   1.453   6.051   5.863
12013TIP3   OH235983   1.349   5.643   5.760
12013TIP3    H135984   1.308   5.692   5.689
12013TIP3    H235985   1.324   5.552   5.744
12014TIP3   OH235986   1.352   5.926   6.308
12014TIP3    H135987   1.362   5.831   6.300
12014TIP3    H235988   1.338   5.941   6.402
12015TIP3   OH235989   7.312   2.344   0.224
12015TIP3    H135990   7.382   2.279   0.213
12015TIP3    H235991   7.333   2.412   0.160
12016TIP3   OH235992   7.493   2.141   0.235
12016TIP3    H135993   7.418   2.096   0.275
12016TIP3    H235994   7.567   2.083   0.251
12017TIP3   OH235995   1.294   5.374   5.733
12017TIP3    H135996   1.366   5.349   5.791
12017TIP3    H235997   1.218   5.327   5.767
12018TIP3   OH235998   1.353   5.639   6.197
12018TIP3    H135999   1.392   5.554   6.213
12018TIP3    H236000   1.408   5.679   6.129
12019TIP3   OH236001   1.514   5.813   6.698
12019TIP3    H136002   1.595   5.835   6.653
12019TIP3    H236003   1.524   5.849   6.786
12020TIP3   OH236004   1.583   5.962   6.926
12020TIP3    H136005   1.506   5.993   6.975
12020TIP3    H236006   1.616   6.040   6.881
12021TIP3   OH236007   7.701   1.546   0.540
12021TIP3    H136008   7.760   1.482   0.502
12021TIP3    H236009   7.670   1.598   0.466
12022TIP3   OH236010   1.462   5.389   6.237
12022TIP3    H136011   1.509   5.378   6.319
12022TIP3    H236012   1.398   5.317   6.236
12023TIP3   OH236013   7.564   1.679   0.346
12023TIP3    H136014   7.482   1.725   0.364
12023TIP3    H236015   7.539   1.606   0.290
12024TIP3   OH236016   1.553   5.324   5.861
12024TIP3    H136017   1.633   5.272   5.866
12024TIP3    H236018   1.584   5.415   5.868
12025TIP3   OH236019   1.107   6.841   6.137
12025TIP3    H136020   1.162   6.841   6.059
12025TIP3    H236021   1.136   6.918   6.187
12026TIP3   OH236022   6.698   3.065   0.069
12026TIP3    H136023   6.773   3.020   0.108
12026TIP3    H236024   6.697   3.151   0.111
12027TIP3   OH236025   7.468   1.441   0.227
12027TIP3    H136026   7.379   1.434   0.192
12027TIP3    H236027   7.503   1.352   0.218
12028TIP3   OH236028   0.973   6.889   6.793
12028TIP3    H136029   0.893   6.914   6.838
12028TIP3    H236030   1.018   6.971   6.774
12029TIP3   OH236031   1.213   7.090   6.714
12029TIP3    H136032   1.178   7.166   6.668
12029TIP3    H236033   1.224   7.023   6.646
12030TIP3   OH236034   1.023   5.368   6.805
12030TIP3    H136035   0.968   5.297   6.837
12030TIP3    H236036   1.083   5.326   6.742
12031TIP3   OH236037   1.526   5.246   6.687
12031TIP3    H136038   1.563   5.298   6.616
12031TIP3    H236039   1.432   5.264   6.685
12032TIP3   OH236040   1.627   5.346   6.452
12032TIP3    H136041   1.698   5.292   6.417
12032TIP3    H236042   1.657   5.436   6.441
12033TIP3   OH236043   0.723   5.099   6.686
12033TIP3    H136044   0.768   5.152   6.620
12033TIP3    H236045   0.752   5.135   6.770
12034TIP3   OH236046   1.246   5.253   6.666
12034TIP3    H136047   1.237   5.215   6.578
12034TIP3    H236048   1.233   5.179   6.725
12035TIP3   OH236049   1.275   5.178   6.231
12035TIP3    H136050   1.197   5.229   6.250
12035TIP3    H236051   1.260   5.094   6.275
12036TIP3   OH236052   0.722   5.289   6.291
12036TIP3    H136053   0.710   5.235   6.369
12036TIP3    H236054   0.711   5.379   6.322
12037TIP3   OH236055   1.251   6.823   5.902
12037TIP3    H136056   1.241   6.729   5.894
12037TIP3    H236057   1.206   6.859   5.826
12038TIP3   OH236058   7.210   1.411   0.661
12038TIP3    H136059   7.226   1.381   0.750
12038TIP3    H236060   7.295   1.405   0.618
12039TIP3   OH236061   7.144   2.958   0.138
12039TIP3    H136062   7.070   2.919   0.091
12039TIP3    H236063   7.130   3.052   0.132
12040TIP3   OH236064   2.742   6.344   5.856
12040TIP3    H136065   2.714   6.433   5.835
12040TIP3    H236066   2.671   6.289   5.824
12041TIP3   OH236067   2.746   6.342   6.244
12041TIP3    H136068   2.778   6.315   6.330
12041TIP3    H236069   2.703   6.263   6.209
12042TIP3   OH236070   2.042   6.233   6.609
12042TIP3    H136071   2.071   6.165   6.670
12042TIP3    H236072   2.120   6.286   6.593
12043TIP3   OH236073   2.989   6.646   5.924
12043TIP3    H136074   2.969   6.576   5.986
12043TIP3    H236075   3.018   6.719   5.979
12044TIP3   OH236076   2.017   6.644   6.330
12044TIP3    H136077   2.005   6.549   6.330
12044TIP3    H236078   2.112   6.656   6.318
12045TIP3   OH236079   1.717   5.843   6.111
12045TIP3    H136080   1.678   5.929   6.131
12045TIP3    H236081   1.647   5.796   6.066
12046TIP3   OH236082   1.779   6.134   6.291
12046TIP3    H136083   1.828   6.059   6.323
12046TIP3    H236084   1.836   6.175   6.226
12047TIP3   OH236085   2.642   7.106   5.942
12047TIP3    H136086   2.683   7.038   5.888
12047TIP3    H236087   2.626   7.063   6.026
12048TIP3   OH236088   2.542   6.567   6.290
12048TIP3    H136089   2.576   6.491   6.242
12048TIP3    H236090   2.621   6.616   6.316
12049TIP3   OH236091   3.559   5.888   6.285
12049TIP3    H136092   3.587   5.969   6.327
12049TIP3    H236093   3.580   5.900   6.193
12050TIP3   OH236094   2.953   6.064   6.318
12050TIP3    H136095   2.997   5.982   6.340
12050TIP3    H236096   2.921   6.051   6.229
12051TIP3   OH236097   2.293   5.727   6.282
12051TIP3    H136098   2.276   5.801   6.223
12051TIP3    H236099   2.246   5.653   6.242
12052TIP3   OH236100   2.991   5.821   5.905
12052TIP3    H136101   3.058   5.805   5.971
12052TIP3    H236102   3.040   5.854   5.829
12053TIP3   OH236103   1.927   5.926   6.393
12053TIP3    H136104   2.008   5.912   6.442
12053TIP3    H236105   1.938   5.875   6.313
12054TIP3   OH236106   2.365   6.124   6.192
12054TIP3    H136107   2.458   6.103   6.201
12054TIP3    H236108   2.326   6.044   6.156
12055TIP3   OH236109   3.629   6.098   6.458
12055TIP3    H136110   3.547   6.140   6.436
12055TIP3    H236111   3.647   6.125   6.548
12056TIP3   OH236112   2.286   5.712   6.721
12056TIP3    H136113   2.230   5.747   6.651
12056TIP3    H236114   2.236   5.728   6.801
12057TIP3   OH236115   2.634   6.565   5.725
12057TIP3    H136116   2.588   6.541   5.644
12057TIP3    H236117   2.590   6.644   5.755
12058TIP3   OH236118   2.395   6.489   6.510
12058TIP3    H136119   2.336   6.555   6.547
12058TIP3    H236120   2.437   6.533   6.437
12059TIP3   OH236121   3.194   5.826   6.084
12059TIP3    H136122   3.180   5.777   6.166
12059TIP3    H236123   3.245   5.902   6.110
12060TIP3   OH236124   2.164   5.826   6.502
12060TIP3    H136125   2.222   5.898   6.528
12060TIP3    H236126   2.208   5.784   6.428
12061TIP3   OH236127   2.223   6.685   6.614
12061TIP3    H136128   2.201   6.769   6.574
12061TIP3    H236129   2.147   6.664   6.668
12062TIP3   OH236130   1.587   6.386   5.868
12062TIP3    H136131   1.640   6.354   5.796
12062TIP3    H236132   1.645   6.444   5.917
12063TIP3   OH236133   3.054   6.891   6.089
12063TIP3    H136134   2.968   6.878   6.129
12063TIP3    H236135   3.047   6.975   6.043
12064TIP3   OH236136   3.349   5.787   6.450
12064TIP3    H136137   3.261   5.812   6.420
12064TIP3    H236138   3.408   5.818   6.382
12065TIP3   OH236139   2.638   5.425   6.436
12065TIP3    H136140   2.627   5.331   6.453
12065TIP3    H236141   2.565   5.466   6.481
12066TIP3   OH236142   2.759   6.934   5.760
12066TIP3    H136143   2.803   6.850   5.745
12066TIP3    H236144   2.817   6.999   5.721
12067TIP3   OH236145   2.900   6.717   5.674
12067TIP3    H136146   2.855   6.641   5.638
12067TIP3    H236147   2.939   6.685   5.755
12068TIP3   OH236148   3.281   6.798   6.430
12068TIP3    H136149   3.269   6.721   6.374
12068TIP3    H236150   3.264   6.872   6.372
12069TIP3   OH236151   2.576   6.193   5.693
12069TIP3    H136152   2.495   6.243   5.679
12069TIP3    H236153   2.617   6.190   5.607
12070TIP3   OH236154   2.534   5.980   5.401
12070TIP3    H136155   2.596   6.033   5.451
12070TIP3    H236156   2.589   5.917   5.355
12071TIP3   OH236157   3.475   6.441   6.278
12071TIP3    H136158   3.392   6.488   6.284
12071TIP3    H236159   3.508   6.461   6.191
12072TIP3   OH236160   2.922   6.277   5.662
12072TIP3    H136161   2.867   6.300   5.736
12072TIP3    H236162   3.006   6.252   5.702
12073TIP3   OH236163   3.153   6.314   6.578
12073TIP3    H136164   3.153   6.396   6.627
12073TIP3    H236165   3.070   6.314   6.532
12074TIP3   OH236166   2.153   6.271   6.080
12074TIP3    H136167   2.111   6.219   6.012
12074TIP3    H236168   2.228   6.218   6.108
12075TIP3   OH236169   2.281   6.684   6.223
12075TIP3    H136170   2.257   6.654   6.136
12075TIP3    H236171   2.367   6.646   6.239
12076TIP3   OH236172   2.288   6.245   6.434
12076TIP3    H136173   2.319   6.218   6.347
12076TIP3    H236174   2.331   6.329   6.450
12077TIP3   OH236175   2.816   6.882   6.212
12077TIP3    H136176   2.802   6.960   6.265
12077TIP3    H236177   2.799   6.809   6.272
12078TIP3   OH236178   2.425   6.800   6.759
12078TIP3    H136179   2.367   6.862   6.803
12078TIP3    H236180   2.366   6.747   6.706
12079TIP3   OH236181   2.762   6.135   5.486
12079TIP3    H136182   2.817   6.193   5.538
12079TIP3    H236183   2.786   6.154   5.395
12080TIP3   OH236184   2.183   6.354   6.867
12080TIP3    H136185   2.190   6.442   6.904
12080TIP3    H236186   2.090   6.333   6.872
12081TIP3   OH236187   2.510   6.808   5.766
12081TIP3    H136188   2.587   6.864   5.773
12081TIP3    H236189   2.445   6.862   5.720
12082TIP3   OH236190   2.221   6.968   6.845
12082TIP3    H136191   2.189   6.971   6.755
12082TIP3    H236192   2.144   6.944   6.897
12083TIP3   OH236193   3.278   5.375   5.539
12083TIP3    H136194   3.197   5.394   5.586
12083TIP3    H236195   3.294   5.453   5.486
12084TIP3   OH236196   2.010   6.138   5.875
12084TIP3    H136197   1.964   6.203   5.821
12084TIP3    H236198   1.956   6.060   5.870
12085TIP3   OH236199   3.080   6.741   5.085
12085TIP3    H136200   3.086   6.835   5.070
12085TIP3    H236201   3.169   6.708   5.073
12086TIP3   OH236202   1.799   6.499   6.790
12086TIP3    H136203   1.734   6.481   6.723
12086TIP3    H236204   1.838   6.413   6.809
12087TIP3   OH236205   1.657   6.688   6.429
12087TIP3    H136206   1.752   6.689   6.416
12087TIP3    H236207   1.639   6.770   6.476
12088TIP3   OH236208   3.516   7.146   6.481
12088TIP3    H136209   3.519   7.050   6.492
12088TIP3    H236210   3.435   7.172   6.525
12089TIP3   OH236211   2.623   6.928   6.618
12089TIP3    H136212   2.623   7.019   6.646
12089TIP3    H236213   2.553   6.887   6.668
12090TIP3   OH236214   2.391   7.062   5.564
12090TIP3    H136215   2.335   7.037   5.490
12090TIP3    H236216   2.355   7.145   5.594
12091TIP3   OH236217   1.827   6.908   5.954
12091TIP3    H136218   1.871   6.900   6.038
12091TIP3    H236219   1.780   6.825   5.944
12092TIP3   OH236220   2.587   6.959   5.205
12092TIP3    H136221   2.643   6.890   5.169
12092TIP3    H236222   2.619   6.970   5.295
12093TIP3   OH236223   2.640   7.008   5.474
12093TIP3    H136224   2.552   7.020   5.512
12093TIP3    H236225   2.689   6.964   5.543
12094TIP3   OH236226   3.406   6.271   6.754
12094TIP3    H136227   3.325   6.284   6.705
12094TIP3    H236228   3.425   6.178   6.746
12095TIP3   OH236229   2.005   6.681   6.777
12095TIP3    H136230   2.053   6.666   6.859
12095TIP3    H236231   1.930   6.621   6.782
12096TIP3   OH236232   2.401   5.506   6.566
12096TIP3    H136233   2.317   5.474   6.535
12096TIP3    H236234   2.380   5.586   6.614
12097TIP3   OH236235   2.940   5.619   6.760
12097TIP3    H136236   3.009   5.591   6.821
12097TIP3    H236237   2.858   5.600   6.806
12098TIP3   OH236238   3.175   6.051   6.679
12098TIP3    H136239   3.125   6.048   6.761
12098TIP3    H236240   3.152   6.136   6.641
12099TIP3   OH236241   2.839   6.178   5.230
12099TIP3    H136242   2.802   6.154   5.145
12099TIP3    H236243   2.923   6.220   5.209
12100TIP3   OH236244   2.545   5.552   5.537
12100TIP3    H136245   2.514   5.551   5.627
12100TIP3    H236246   2.511   5.471   5.498
12101TIP3   OH236247   2.336   6.024   6.583
12101TIP3    H136248   2.287   6.041   6.664
12101TIP3    H236249   2.322   6.102   6.530
12102TIP3   OH236250   2.220   5.906   6.094
12102TIP3    H136251   2.129   5.887   6.114
12102TIP3    H236252   2.234   5.869   6.007
12103TIP3   OH236253   2.712   5.992   5.826
12103TIP3    H136254   2.661   6.062   5.784
12103TIP3    H236255   2.767   5.958   5.755
12104TIP3   OH236256   2.887   6.267   6.911
12104TIP3    H136257   2.862   6.196   6.970
12104TIP3    H236258   2.980   6.283   6.930
12105TIP3   OH236259   2.866   6.018   6.058
12105TIP3    H136260   2.803   6.048   5.993
12105TIP3    H236261   2.905   5.939   6.019
12106TIP3   OH236262   2.157   6.049   6.792
12106TIP3    H136263   2.184   6.114   6.856
12106TIP3    H236264   2.146   5.968   6.843
12107TIP3   OH236265   2.200   5.528   5.502
12107TIP3    H136266   2.196   5.526   5.598
12107TIP3    H236267   2.129   5.586   5.476
12108TIP3   OH236268   1.755   5.565   6.372
12108TIP3    H136269   1.820   5.604   6.431
12108TIP3    H236270   1.803   5.547   6.291
12109TIP3   OH236271   1.707   5.555   5.891
12109TIP3    H136272   1.756   5.584   5.814
12109TIP3    H236273   1.651   5.630   5.913
12110TIP3   OH236274   2.880   6.261   6.485
12110TIP3    H136275   2.912   6.194   6.424
12110TIP3    H236276   2.848   6.211   6.560
12111TIP3   OH236277   2.553   5.728   6.159
12111TIP3    H136278   2.472   5.728   6.210
12111TIP3    H236279   2.623   5.723   6.224
12112TIP3   OH236280   1.981   5.785   6.166
12112TIP3    H136281   1.890   5.793   6.136
12112TIP3    H236282   2.008   5.697   6.139
12113TIP3   OH236283   2.247   5.779   5.854
12113TIP3    H136284   2.339   5.796   5.834
12113TIP3    H236285   2.200   5.802   5.774
12114TIP3   OH236286   3.039   5.804   6.363
12114TIP3    H136287   3.008   5.820   6.453
12114TIP3    H236288   2.975   5.745   6.325
12115TIP3   OH236289   2.098   5.810   5.627
12115TIP3    H136290   2.026   5.771   5.578
12115TIP3    H236291   2.152   5.852   5.560
12116TIP3   OH236292   3.215   7.495   6.579
12116TIP3    H136293   3.209   7.517   6.486
12116TIP3    H236294   3.291   7.543   6.611
12117TIP3   OH236295   7.834   2.597   0.062
12117TIP3    H136296   7.914   2.626   0.105
12117TIP3    H236297   7.768   2.597   0.131
12118TIP3   OH236298   2.631   6.058   6.256
12118TIP3    H136299   2.703   6.020   6.205
12118TIP3    H236300   2.636   6.014   6.341
12119TIP3   OH236301   2.148   5.543   6.137
12119TIP3    H136302   2.115   5.467   6.185
12119TIP3    H236303   2.199   5.507   6.065
12120TIP3   OH236304   2.606   5.958   6.545
12120TIP3    H136305   2.517   5.992   6.558
12120TIP3    H236306   2.662   6.018   6.593
12121TIP3   OH236307   2.352   6.346   5.647
12121TIP3    H136308   2.283   6.281   5.630
12121TIP3    H236309   2.327   6.386   5.730
12122TIP3   OH236310   3.240   6.582   6.264
12122TIP3    H136311   3.265   6.631   6.186
12122TIP3    H236312   3.158   6.539   6.240
12123TIP3   OH236313   2.799   5.654   5.510
12123TIP3    H136314   2.705   5.636   5.515
12123TIP3    H236315   2.807   5.747   5.531
12124TIP3   OH236316   2.745   6.666   6.637
12124TIP3    H136317   2.770   6.646   6.727
12124TIP3    H236318   2.704   6.753   6.642
12125TIP3   OH236319   2.870   5.907   5.608
12125TIP3    H136320   2.964   5.912   5.622
12125TIP3    H236321   2.849   5.985   5.557
12126TIP3   OH236322   2.037   6.366   6.313
12126TIP3    H136323   2.072   6.342   6.227
12126TIP3    H236324   2.084   6.308   6.374
12127TIP3   OH236325   2.487   6.493   5.462
12127TIP3    H136326   2.442   6.578   5.464
12127TIP3    H236327   2.437   6.438   5.522
12128TIP3   OH236328   7.585   2.277  -0.011
12128TIP3    H136329   7.601   2.265   0.082
12128TIP3    H236330   7.515   2.215  -0.032
12129TIP3   OH236331   2.646   6.402   6.947
12129TIP3    H136332   2.582   6.346   6.903
12129TIP3    H236333   2.731   6.368   6.920
12130TIP3   OH236334   2.901   6.929   6.535
12130TIP3    H136335   2.806   6.921   6.545
12130TIP3    H236336   2.930   6.979   6.611
12131TIP3   OH236337   3.308   6.000   5.438
12131TIP3    H136338   3.248   5.952   5.381
12131TIP3    H236339   3.309   6.089   5.403
12132TIP3   OH236340   3.530   6.857   6.517
12132TIP3    H136341   3.435   6.851   6.514
12132TIP3    H236342   3.559   6.826   6.431
12133TIP3   OH236343   3.016   6.814   5.351
12133TIP3    H136344   2.986   6.747   5.413
12133TIP3    H236345   3.026   6.767   5.268
12134TIP3   OH236346   3.008   6.442   6.183
12134TIP3    H136347   2.915   6.421   6.197
12134TIP3    H236348   3.043   6.364   6.139
12135TIP3   OH236349   2.137   6.674   5.945
12135TIP3    H136350   2.132   6.752   5.890
12135TIP3    H236351   2.050   6.634   5.937
12136TIP3   OH236352   1.702   5.982   5.643
12136TIP3    H136353   1.736   6.072   5.639
12136TIP3    H236354   1.630   5.987   5.706
12137TIP3   OH236355   2.277   6.439   5.890
12137TIP3    H136356   2.242   6.528   5.904
12137TIP3    H236357   2.237   6.387   5.959
12138TIP3   OH236358   2.410   7.016   6.408
12138TIP3    H136359   2.449   7.087   6.358
12138TIP3    H236360   2.484   6.976   6.454
12139TIP3   OH236361   2.053   6.912   5.792
12139TIP3    H136362   1.970   6.915   5.840
12139TIP3    H236363   2.085   7.002   5.792
12140TIP3   OH236364   2.794   6.649   6.370
12140TIP3    H136365   2.782   6.648   6.465
12140TIP3    H236366   2.870   6.593   6.354
12141TIP3   OH236367   2.771   6.547   5.254
12141TIP3    H136368   2.826   6.522   5.328
12141TIP3    H236369   2.683   6.515   5.278
12142TIP3   OH236370   3.040   7.181   6.418
12142TIP3    H136371   2.964   7.124   6.415
12142TIP3    H236372   3.026   7.244   6.347
12143TIP3   OH236373   3.107   7.019   5.069
12143TIP3    H136374   3.148   7.090   5.019
12143TIP3    H236375   3.027   7.057   5.105
12144TIP3   OH236376   7.791   1.786  -0.004
12144TIP3    H136377   7.696   1.788   0.004
12144TIP3    H236378   7.821   1.728   0.066
12145TIP3   OH236379   2.934   6.474   5.465
12145TIP3    H136380   2.919   6.412   5.535
12145TIP3    H236381   3.029   6.473   5.452
12146TIP3   OH236382   1.848   6.877   6.566
12146TIP3    H136383   1.901   6.805   6.600
12146TIP3    H236384   1.869   6.952   6.622
12147TIP3   OH236385   2.135   6.517   5.257
12147TIP3    H136386   2.152   6.430   5.221
12147TIP3    H236387   2.121   6.502   5.350
12148TIP3   OH236388   2.967   5.858   6.623
12148TIP3    H136389   3.048   5.895   6.657
12148TIP3    H236390   2.954   5.778   6.674
12149TIP3   OH236391   2.846   5.607   5.788
12149TIP3    H136392   2.832   5.625   5.695
12149TIP3    H236393   2.885   5.688   5.822
12150TIP3   OH236394   2.348   6.726   5.469
12150TIP3    H136395   2.261   6.733   5.508
12150TIP3    H236396   2.356   6.802   5.412
12151TIP3   OH236397   2.532   5.791   5.889
12151TIP3    H136398   2.594   5.861   5.868
12151TIP3    H236399   2.537   5.782   5.984
12152TIP3   OH236400   2.804   6.104   6.693
12152TIP3    H136401   2.829   6.155   6.770
12152TIP3    H236402   2.856   6.024   6.700
12153TIP3   OH236403   2.675   5.512   5.985
12153TIP3    H136404   2.665   5.587   6.044
12153TIP3    H236405   2.736   5.541   5.918
12154TIP3   OH236406   2.100   6.813   5.534
12154TIP3    H136407   2.062   6.883   5.481
12154TIP3    H236408   2.079   6.837   5.624
12155TIP3   OH236409   2.191   5.517   5.779
12155TIP3    H136410   2.186   5.606   5.813
12155TIP3    H236411   2.283   5.494   5.784
12156TIP3   OH236412   3.440   6.006   6.675
12156TIP3    H136413   3.345   6.007   6.685
12156TIP3    H236414   3.455   5.962   6.591
12157TIP3   OH236415   3.094   6.199   6.064
12157TIP3    H136416   3.018   6.142   6.073
12157TIP3    H236417   3.164   6.153   6.110
12158TIP3   OH236418   1.745   5.707   5.668
12158TIP3    H136419   1.760   5.802   5.668
12158TIP3    H236420   1.666   5.695   5.616
12159TIP3   OH236421   3.065   7.163   6.008
12159TIP3    H136422   3.019   7.207   5.936
12159TIP3    H236423   3.157   7.178   5.990
12160TIP3   OH236424   2.137   5.424   6.537
12160TIP3    H136425   2.110   5.392   6.451
12160TIP3    H236426   2.129   5.348   6.595
12161TIP3   OH236427   1.695   6.664   5.925
12161TIP3    H136428   1.608   6.678   5.963
12161TIP3    H236429   1.681   6.671   5.831
12162TIP3   OH236430   7.505   3.163   0.046
12162TIP3    H136431   7.591   3.167   0.087
12162TIP3    H236432   7.482   3.070   0.046
12163TIP3   OH236433   7.991   3.135   0.092
12163TIP3    H136434   8.083   3.110   0.098
12163TIP3    H236435   7.955   3.081   0.022
12164TIP3   OH236436   2.294   6.719   5.162
12164TIP3    H136437   2.238   6.655   5.204
12164TIP3    H236438   2.372   6.670   5.137
12165TIP3   OH236439   2.954   7.058   6.773
12165TIP3    H136440   2.947   6.989   6.838
12165TIP3    H236441   3.031   7.109   6.799
12166TIP3   OH236442   2.734   6.763   5.077
12166TIP3    H136443   2.768   6.698   5.138
12166TIP3    H236444   2.791   6.757   5.000
12167TIP3   OH236445   7.631   2.586   0.251
12167TIP3    H136446   7.648   2.492   0.257
12167TIP3    H236447   7.546   2.592   0.206
12168TIP3   OH236448   1.936   6.212   5.362
12168TIP3    H136449   1.936   6.247   5.451
12168TIP3    H236450   2.026   6.224   5.331
12169TIP3   OH236451   2.571   6.679   6.964
12169TIP3    H136452   2.530   6.701   6.880
12169TIP3    H236453   2.602   6.589   6.953
12170TIP3   OH236454   2.458   6.442   5.194
12170TIP3    H136455   2.460   6.455   5.289
12170TIP3    H236456   2.457   6.347   5.184
12171TIP3   OH236457   3.066   6.693   6.573
12171TIP3    H136458   3.142   6.733   6.529
12171TIP3    H236459   2.994   6.754   6.557
12172TIP3   OH236460   7.753   2.322   0.237
12172TIP3    H136461   7.829   2.276   0.202
12172TIP3    H236462   7.781   2.355   0.322
12173TIP3   OH236463   2.178   6.144   5.616
12173TIP3    H136464   2.122   6.112   5.687
12173TIP3    H236465   2.191   6.069   5.559
12174TIP3   OH236466   2.421   6.213   6.835
12174TIP3    H136467   2.343   6.269   6.836
12174TIP3    H236468   2.472   6.245   6.760
12175TIP3   OH236469   2.254   5.935   5.442
12175TIP3    H136470   2.226   5.949   5.352
12175TIP3    H236471   2.350   5.942   5.439
12176TIP3   OH236472   0.106   2.606   0.028
12176TIP3    H136473   0.180   2.575  -0.023
12176TIP3    H236474   0.098   2.542   0.099
12177TIP3   OH236475   3.070   6.272   5.110
12177TIP3    H136476   3.053   6.224   5.029
12177TIP3    H236477   3.038   6.361   5.093
12178TIP3   OH236478   2.543   6.001   6.957
12178TIP3    H136479   2.545   5.923   6.902
12178TIP3    H236480   2.501   6.068   6.903
12179TIP3   OH236481   2.545   5.788   6.768
12179TIP3    H136482   2.575   5.829   6.686
12179TIP3    H236483   2.454   5.765   6.751
12180TIP3   OH236484   2.570   6.324   6.643
12180TIP3    H136485   2.655   6.334   6.600
12180TIP3    H236486   2.513   6.386   6.597
12181TIP3   OH236487   0.321   2.280   0.079
12181TIP3    H136488   0.366   2.196   0.089
12181TIP3    H236489   0.388   2.338   0.043
12182TIP3   OH236490   3.196   6.545   6.757
12182TIP3    H136491   3.137   6.597   6.702
12182TIP3    H236492   3.283   6.562   6.721
12183TIP3   OH236493   8.089   2.098   0.253
12183TIP3    H136494   8.022   2.031   0.269
12183TIP3    H236495   8.123   2.078   0.166
12184TIP3   OH236496   2.676   5.550   6.838
12184TIP3    H136497   2.629   5.630   6.815
12184TIP3    H236498   2.612   5.480   6.826
12185TIP3   OH236499   8.468   2.043   0.113
12185TIP3    H136500   8.457   2.030   0.207
12185TIP3    H236501   8.382   2.022   0.076
12186TIP3   OH236502   0.210   1.998  -0.030
12186TIP3    H136503   0.135   1.997   0.030
12186TIP3    H236504   0.284   1.968   0.023
12187TIP3   OH236505   0.440   1.938   0.118
12187TIP3    H136506   0.453   1.844   0.131
12187TIP3    H236507   0.436   1.974   0.207
12188TIP3   OH236508   7.928   1.879   0.309
12188TIP3    H136509   7.930   1.790   0.273
12188TIP3    H236510   7.965   1.870   0.397
12189TIP3   OH236511   8.437   1.551   0.155
12189TIP3    H136512   8.504   1.482   0.152
12189TIP3    H236513   8.397   1.549   0.068
12190TIP3   OH236514   8.504   1.767   0.312
12190TIP3    H136515   8.485   1.696   0.251
12190TIP3    H236516   8.428   1.825   0.306
12191TIP3   OH236517   2.064   7.022   5.349
12191TIP3    H136518   2.156   6.999   5.339
12191TIP3    H236519   2.039   7.062   5.265
12192TIP3   OH236520   1.547   6.394   5.515
12192TIP3    H136521   1.628   6.400   5.566
12192TIP3    H236522   1.536   6.301   5.498
12193TIP3   OH236523   1.455   6.996   5.980
12193TIP3    H136524   1.389   6.937   5.944
12193TIP3    H236525   1.499   6.945   6.048
12194TIP3   OH236526   1.583   6.856   6.176
12194TIP3    H136527   1.576   6.775   6.227
12194TIP3    H236528   1.638   6.914   6.230
12195TIP3   OH236529   3.320   7.249   5.971
12195TIP3    H136530   3.346   7.278   6.059
12195TIP3    H236531   3.386   7.287   5.913
12196TIP3   OH236532   3.348   7.264   6.255
12196TIP3    H136533   3.299   7.183   6.247
12196TIP3    H236534   3.422   7.242   6.311
12197TIP3   OH236535   3.393   6.947   6.827
12197TIP3    H136536   3.321   6.953   6.890
12197TIP3    H236537   3.435   7.032   6.830
12198TIP3   OH236538   3.212   6.457   5.445
12198TIP3    H136539   3.276   6.522   5.414
12198TIP3    H236540   3.254   6.419   5.522
12199TIP3   OH236541   3.338   6.325   5.651
12199TIP3    H136542   3.271   6.284   5.706
12199TIP3    H236543   3.401   6.361   5.713
12200TIP3   OH236544   3.396   6.720   6.079
12200TIP3    H136545   3.445   6.651   6.035
12200TIP3    H236546   3.388   6.789   6.014
12201TIP3   OH236547   3.219   7.019   6.273
12201TIP3    H136548   3.149   7.059   6.325
12201TIP3    H236549   3.173   6.972   6.203
12202TIP3   OH236550   3.272   6.236   5.293
12202TIP3    H136551   3.204   6.233   5.226
12202TIP3    H236552   3.246   6.308   5.350
12203TIP3   OH236553   3.143   5.905   5.247
12203TIP3    H136554   3.102   5.939   5.167
12203TIP3    H236555   3.123   5.811   5.245
12204TIP3   OH236556   3.149   6.183   5.794
12204TIP3    H136557   3.156   6.088   5.783
12204TIP3    H236558   3.135   6.194   5.888
12205TIP3   OH236559   1.778   6.250   6.542
12205TIP3    H136560   1.771   6.220   6.452
12205TIP3    H236561   1.872   6.255   6.559
12206TIP3   OH236562   3.442   6.607   6.651
12206TIP3    H136563   3.510   6.540   6.641
12206TIP3    H236564   3.464   6.673   6.585
12207TIP3   OH236565   3.623   6.405   6.662
12207TIP3    H136566   3.547   6.360   6.700
12207TIP3    H236567   3.697   6.346   6.678
12208TIP3   OH236568   3.087   5.641   5.236
12208TIP3    H136569   3.160   5.606   5.287
12208TIP3    H236570   3.016   5.579   5.251
12209TIP3   OH236571   3.152   5.899   5.685
12209TIP3    H136572   3.187   5.812   5.702
12209TIP3    H236573   3.205   5.933   5.613
12210TIP3   OH236574   3.310   6.070   6.185
12210TIP3    H136575   3.391   6.092   6.140
12210TIP3    H236576   3.320   6.106   6.273
12211TIP3   OH236577   3.379   6.218   6.414
12211TIP3    H136578   3.302   6.249   6.462
12211TIP3    H236579   3.412   6.297   6.369
12212TIP3   OH236580   7.662   1.930   0.277
12212TIP3    H136581   7.757   1.929   0.278
12212TIP3    H236582   7.636   1.845   0.314
12213TIP3   OH236583   3.828   5.810   6.967
12213TIP3    H136584   3.889   5.746   6.930
12213TIP3    H236585   3.798   5.862   6.893
12214TIP3   OH236586   3.254   5.648   5.728
12214TIP3    H136587   3.302   5.634   5.810
12214TIP3    H236588   3.194   5.574   5.723
12215TIP3   OH236589   1.957   5.635   6.548
12215TIP3    H136590   2.015   5.559   6.555
12215TIP3    H236591   2.016   5.710   6.537
12216TIP3   OH236592   1.757   5.907   6.616
12216TIP3    H136593   1.806   5.903   6.534
12216TIP3    H236594   1.780   5.993   6.653
12217TIP3   OH236595   3.694   5.944   6.771
12217TIP3    H136596   3.612   5.989   6.792
12217TIP3    H236597   3.668   5.871   6.716
12218TIP3   OH236598   3.336   5.579   5.359
12218TIP3    H136599   3.371   5.509   5.304
12218TIP3    H236600   3.401   5.649   5.355
12219TIP3   OH236601   1.739   5.398   6.110
12219TIP3    H136602   1.654   5.405   6.153
12219TIP3    H236603   1.736   5.464   6.040
12220TIP3   OH236604   2.904   7.119   5.624
12220TIP3    H136605   2.952   7.105   5.543
12220TIP3    H236606   2.956   7.182   5.673
12221TIP3   OH236607   7.628   1.487  -0.005
12221TIP3    H136608   7.578   1.479   0.076
12221TIP3    H236609   7.565   1.522  -0.068
12222TIP3   OH236610   7.671   2.906   0.070
12222TIP3    H136611   7.580   2.886   0.049
12222TIP3    H236612   7.677   2.894   0.165
12223TIP3   OH236613   2.184   6.958   6.557
12223TIP3    H136614   2.131   7.029   6.522
12223TIP3    H236615   2.269   6.968   6.514
12224TIP3   OH236616   2.625   7.194   6.696
12224TIP3    H136617   2.664   7.192   6.784
12224TIP3    H236618   2.687   7.245   6.644
12225TIP3   OH236619   2.803   7.350   6.558
12225TIP3    H136620   2.868   7.297   6.512
12225TIP3    H236621   2.854   7.405   6.617
12226TIP3   OH236622   3.597   5.706   6.654
12226TIP3    H136623   3.507   5.699   6.621
12226TIP3    H236624   3.632   5.617   6.647
12227TIP3   OH236625   1.856   7.212   6.586
12227TIP3    H136626   1.768   7.238   6.559
12227TIP3    H236627   1.872   7.261   6.666
12228TIP3   OH236628   2.091   7.190   6.442
12228TIP3    H136629   2.007   7.200   6.487
12228TIP3    H236630   2.073   7.219   6.353
12229TIP3   OH236631   2.517   7.215   6.239
12229TIP3    H136632   2.447   7.229   6.174
12229TIP3    H236633   2.529   7.300   6.280
12230TIP3   OH236634   2.786   7.156   6.292
12230TIP3    H136635   2.693   7.169   6.273
12230TIP3    H236636   2.831   7.227   6.246
12231TIP3   OH236637   2.996   7.346   6.202
12231TIP3    H136638   2.980   7.429   6.156
12231TIP3    H236639   3.021   7.285   6.132
12232TIP3   OH236640   1.772   7.002   6.328
12232TIP3    H136641   1.792   6.976   6.418
12232TIP3    H236642   1.839   6.960   6.274
12233TIP3   OH236643   1.965   6.874   6.189
12233TIP3    H136644   1.977   6.790   6.234
12233TIP3    H236645   2.053   6.910   6.181
12234TIP3   OH236646   2.235   6.967   6.189
12234TIP3    H136647   2.259   6.876   6.172
12234TIP3    H236648   2.277   6.989   6.272
12235TIP3   OH236649   2.805   5.622   6.278
12235TIP3    H136650   2.761   5.552   6.326
12235TIP3    H236651   2.876   5.578   6.231
12236TIP3   OH236652   3.324   5.511   6.180
12236TIP3    H136653   3.360   5.558   6.105
12236TIP3    H236654   3.230   5.523   6.173
12237TIP3   OH236655   3.422   5.604   5.943
12237TIP3    H136656   3.490   5.551   5.902
12237TIP3    H236657   3.450   5.695   5.930
12238TIP3   OH236658   2.050   5.327   6.289
12238TIP3    H136659   1.959   5.298   6.295
12238TIP3    H236660   2.101   5.246   6.287
12239TIP3   OH236661   1.799   5.210   5.918
12239TIP3    H136662   1.862   5.251   5.859
12239TIP3    H236663   1.795   5.269   5.994
12240TIP3   OH236664   2.497   5.366   6.173
12240TIP3    H136665   2.551   5.409   6.107
12240TIP3    H236666   2.528   5.402   6.256
12241TIP3   OH236667   3.042   5.510   6.154
12241TIP3    H136668   3.042   5.472   6.066
12241TIP3    H236669   3.030   5.434   6.212
12242TIP3   OH236670   3.071   5.436   5.720
12242TIP3    H136671   2.986   5.479   5.731
12242TIP3    H236672   3.059   5.350   5.761
12243TIP3   OH236673   1.554   6.775   5.710
12243TIP3    H136674   1.471   6.736   5.683
12243TIP3    H236675   1.538   6.869   5.705
12244TIP3   OH236676   1.961   5.357   5.702
12244TIP3    H136677   2.008   5.296   5.645
12244TIP3    H236678   2.030   5.414   5.736
12245TIP3   OH236679   2.467   5.541   5.802
12245TIP3    H136680   2.526   5.490   5.857
12245TIP3    H236681   2.486   5.632   5.824
12246TIP3   OH236682   2.325   6.957   5.292
12246TIP3    H136683   2.413   6.981   5.263
12246TIP3    H236684   2.302   6.881   5.238
12247TIP3   OH236685   3.048   7.080   5.392
12247TIP3    H136686   3.043   6.985   5.385
12247TIP3    H236687   3.003   7.112   5.314
12248TIP3   OH236688   7.926   1.606   0.244
12248TIP3    H136689   7.889   1.535   0.297
12248TIP3    H236690   8.019   1.607   0.269
12249TIP3   OH236691   8.177   1.602   0.360
12249TIP3    H136692   8.260   1.581   0.318
12249TIP3    H236693   8.165   1.533   0.426
12250TIP3   OH236694   1.636   6.812   5.359
12250TIP3    H136695   1.627   6.810   5.455
12250TIP3    H236696   1.717   6.765   5.341
12251TIP3   OH236697   0.505   1.667   0.148
12251TIP3    H136698   0.520   1.636   0.237
12251TIP3    H236699   0.591   1.662   0.106
12252TIP3   OH236700   3.268   7.225   6.579
12252TIP3    H136701   3.193   7.192   6.530
12252TIP3    H236702   3.251   7.319   6.587
12253TIP3   OH236703   4.538   6.601   5.342
12253TIP3    H136704   4.509   6.690   5.321
12253TIP3    H236705   4.468   6.544   5.310
12254TIP3   OH236706   4.539   6.599   5.734
12254TIP3    H136707   4.574   6.571   5.818
12254TIP3    H236708   4.500   6.520   5.697
12255TIP3   OH236709   3.837   6.490   6.095
12255TIP3    H136710   3.864   6.421   6.156
12255TIP3    H236711   3.917   6.540   6.079
12256TIP3   OH236712   4.786   6.902   5.411
12256TIP3    H136713   4.766   6.830   5.471
12256TIP3    H236714   4.813   6.974   5.468
12257TIP3   OH236715   3.813   6.902   5.816
12257TIP3    H136716   3.801   6.807   5.816
12257TIP3    H236717   3.908   6.914   5.808
12258TIP3   OH236718   3.513   6.104   5.597
12258TIP3    H136719   3.467   6.186   5.616
12258TIP3    H236720   3.447   6.049   5.555
12259TIP3   OH236721   3.576   6.391   5.779
12259TIP3    H136722   3.622   6.314   5.812
12259TIP3    H236723   3.630   6.422   5.707
12260TIP3   OH236724   4.438   7.361   5.429
12260TIP3    H136725   4.477   7.293   5.374
12260TIP3    H236726   4.424   7.319   5.514
12261TIP3   OH236727   4.339   6.824   5.776
12261TIP3    H136728   4.373   6.745   5.734
12261TIP3    H236729   4.418   6.873   5.801
12262TIP3   OH236730   5.349   6.146   5.770
12262TIP3    H136731   5.383   6.224   5.813
12262TIP3    H236732   5.378   6.153   5.679
12263TIP3   OH236733   4.749   6.323   5.803
12263TIP3    H136734   4.793   6.241   5.827
12263TIP3    H236735   4.717   6.307   5.715
12264TIP3   OH236736   4.088   5.984   5.769
12264TIP3    H136737   4.072   6.057   5.709
12264TIP3    H236738   4.044   5.909   5.729
12265TIP3   OH236739   4.786   6.078   5.391
12265TIP3    H136740   4.851   6.062   5.459
12265TIP3    H236741   4.837   6.110   5.317
12266TIP3   OH236742   3.724   6.182   5.879
12266TIP3    H136743   3.804   6.166   5.928
12266TIP3    H236744   3.733   6.130   5.800
12267TIP3   OH236745   4.161   6.381   5.678
12267TIP3    H136746   4.254   6.360   5.689
12267TIP3    H236747   4.122   6.300   5.644
12268TIP3   OH236748   5.426   6.356   5.939
12268TIP3    H136749   5.343   6.399   5.916
12268TIP3    H236750   5.432   6.364   6.034
12269TIP3   OH236751   4.081   5.969   6.208
12269TIP3    H136752   4.026   6.004   6.138
12269TIP3    H236753   4.031   5.985   6.288
12270TIP3   OH236754   4.424   6.820   5.214
12270TIP3    H136755   4.388   6.800   5.128
12270TIP3    H236756   4.381   6.900   5.242
12271TIP3   OH236757   4.192   6.746   5.997
12271TIP3    H136758   4.132   6.811   6.034
12271TIP3    H236759   4.234   6.791   5.924
12272TIP3   OH236760   4.988   6.084   5.570
12272TIP3    H136761   4.991   6.024   5.645
12272TIP3    H236762   5.042   6.158   5.597
12273TIP3   OH236763   3.959   6.083   5.989
12273TIP3    H136764   4.018   6.154   6.015
12273TIP3    H236765   4.003   6.041   5.915
12274TIP3   OH236766   4.018   6.942   6.100
12274TIP3    H136767   3.996   7.027   6.062
12274TIP3    H236768   3.943   6.919   6.155
12275TIP3   OH236769   3.411   6.631   5.333
12275TIP3    H136770   3.370   6.655   5.250
12275TIP3    H236771   3.443   6.713   5.369
12276TIP3   OH236772   4.851   7.148   5.577
12276TIP3    H136773   4.764   7.135   5.616
12276TIP3    H236774   4.843   7.231   5.530
12277TIP3   OH236775   5.143   6.055   5.941
12277TIP3    H136776   5.057   6.072   5.903
12277TIP3    H236777   5.204   6.079   5.871
12278TIP3   OH236778   4.432   5.683   5.917
12278TIP3    H136779   4.427   5.589   5.937
12278TIP3    H236780   4.360   5.722   5.966
12279TIP3   OH236781   4.553   7.189   5.245
12279TIP3    H136782   4.597   7.106   5.230
12279TIP3    H236783   4.612   7.255   5.207
12280TIP3   OH236784   4.695   6.973   5.161
12280TIP3    H136785   4.663   6.895   5.117
12280TIP3    H236786   4.733   6.941   5.243
12281TIP3   OH236787   5.077   7.052   5.916
12281TIP3    H136788   5.061   6.975   5.861
12281TIP3    H236789   5.057   7.127   5.859
12282TIP3   OH236790   4.370   6.452   5.177
12282TIP3    H136791   4.291   6.502   5.157
12282TIP3    H236792   4.416   6.444   5.094
12283TIP3   OH236793   4.330   6.236   4.890
12283TIP3    H136794   4.395   6.289   4.937
12283TIP3    H236795   4.382   6.172   4.842
12284TIP3   OH236796   5.276   6.717   5.764
12284TIP3    H136797   5.188   6.755   5.768
12284TIP3    H236798   5.300   6.721   5.672
12285TIP3   OH236799   4.719   6.534   5.149
12285TIP3    H136800   4.664   6.557   5.223
12285TIP3    H236801   4.802   6.507   5.188
12286TIP3   OH236802   4.950   6.572   6.063
12286TIP3    H136803   4.946   6.652   6.115
12286TIP3    H236804   4.866   6.570   6.017
12287TIP3   OH236805   3.951   6.527   5.566
12287TIP3    H136806   3.908   6.472   5.501
12287TIP3    H236807   4.025   6.475   5.597
12288TIP3   OH236808   4.081   6.942   5.711
12288TIP3    H136809   4.058   6.907   5.625
12288TIP3    H236810   4.168   6.906   5.730
12289TIP3   OH236811   4.083   6.502   5.921
12289TIP3    H136812   4.115   6.473   5.835
12289TIP3    H236813   4.127   6.585   5.937
12290TIP3   OH236814   4.612   7.139   5.699
12290TIP3    H136815   4.599   7.216   5.754
12290TIP3    H236816   4.596   7.065   5.758
12291TIP3   OH236817   4.222   7.058   6.244
12291TIP3    H136818   4.164   7.119   6.291
12291TIP3    H236819   4.163   7.003   6.193
12292TIP3   OH236820   4.556   6.395   4.973
12292TIP3    H136821   4.614   6.451   5.024
12292TIP3    H236822   4.580   6.412   4.882
12293TIP3   OH236823   3.979   6.613   6.352
12293TIP3    H136824   3.985   6.700   6.392
12293TIP3    H236825   3.886   6.590   6.359
12294TIP3   OH236826   4.303   7.069   5.250
12294TIP3    H136827   4.385   7.118   5.258
12294TIP3    H236828   4.243   7.128   5.206
12295TIP3   OH236829   4.015   7.224   6.331
12295TIP3    H136830   3.984   7.225   6.241
12295TIP3    H236831   3.938   7.202   6.384
12296TIP3   OH236832   5.073   5.631   5.024
12296TIP3    H136833   4.993   5.648   5.073
12296TIP3    H236834   5.088   5.711   4.973
12297TIP3   OH236835   3.813   6.374   5.372
12297TIP3    H136836   3.747   6.416   5.317
12297TIP3    H236837   3.785   6.283   5.380
12298TIP3   OH236838   4.876   6.998   4.573
12298TIP3    H136839   4.882   7.092   4.557
12298TIP3    H236840   4.966   6.966   4.560
12299TIP3   OH236841   3.596   6.756   6.276
12299TIP3    H136842   3.530   6.737   6.211
12299TIP3    H236843   3.634   6.671   6.298
12300TIP3   OH236844   3.452   6.951   5.907
12300TIP3    H136845   3.547   6.940   5.898
12300TIP3    H236846   3.442   7.027   5.965
12301TIP3   OH236847   5.315   7.404   5.973
12301TIP3    H136848   5.315   7.309   5.983
12301TIP3    H236849   5.233   7.433   6.014
12302TIP3   OH236850   4.418   7.187   6.103
12302TIP3    H136851   4.418   7.278   6.133
12302TIP3    H236852   4.349   7.144   6.154
12303TIP3   OH236853   4.185   7.314   5.052
12303TIP3    H136854   4.138   7.294   4.972
12303TIP3    H236855   4.151   7.399   5.079
12304TIP3   OH236856   3.621   7.160   5.441
12304TIP3    H136857   3.667   7.154   5.525
12304TIP3    H236858   3.572   7.079   5.434
12305TIP3   OH236859   4.385   7.215   4.692
12305TIP3    H136860   4.441   7.147   4.655
12305TIP3    H236861   4.417   7.227   4.781
12306TIP3   OH236862   4.435   7.265   4.962
12306TIP3    H136863   4.348   7.275   5.001
12306TIP3    H236864   4.487   7.223   5.031
12307TIP3   OH236865   5.212   6.534   6.232
12307TIP3    H136866   5.128   6.543   6.187
12307TIP3    H236867   5.232   6.441   6.227
12308TIP3   OH236868   3.801   6.940   6.265
12308TIP3    H136869   3.851   6.923   6.345
12308TIP3    H236870   3.728   6.878   6.269
12309TIP3   OH236871   4.197   5.761   6.056
12309TIP3    H136872   4.113   5.730   6.022
12309TIP3    H236873   4.176   5.842   6.102
12310TIP3   OH236874   4.737   5.877   6.247
12310TIP3    H136875   4.808   5.848   6.304
12310TIP3    H236876   4.657   5.855   6.294
12311TIP3   OH236877   4.972   6.309   6.167
12311TIP3    H136878   4.922   6.304   6.248
12311TIP3    H236879   4.948   6.393   6.129
12312TIP3   OH236880   4.636   6.438   4.719
12312TIP3    H136881   4.597   6.412   4.635
12312TIP3    H236882   4.721   6.476   4.695
12313TIP3   OH236883   4.343   5.808   5.024
12313TIP3    H136884   4.310   5.807   5.114
12313TIP3    H236885   4.308   5.729   4.984
12314TIP3   OH236886   4.132   6.281   6.070
12314TIP3    H136887   4.083   6.298   6.151
12314TIP3    H236888   4.117   6.359   6.017
12315TIP3   OH236889   4.014   6.164   5.582
12315TIP3    H136890   3.925   6.138   5.603
12315TIP3    H236891   4.030   6.126   5.496
12316TIP3   OH236892   4.508   6.252   5.313
12316TIP3    H136893   4.457   6.320   5.269
12316TIP3    H236894   4.563   6.215   5.243
12317TIP3   OH236895   4.684   6.525   6.400
12317TIP3    H136896   4.659   6.453   6.457
12317TIP3    H236897   4.777   6.538   6.417
12318TIP3   OH236898   4.662   6.275   5.544
12318TIP3    H136899   4.599   6.301   5.477
12318TIP3    H236900   4.703   6.196   5.508
12319TIP3   OH236901   3.951   6.306   6.279
12319TIP3    H136902   3.984   6.368   6.344
12319TIP3    H236903   3.940   6.224   6.328
12320TIP3   OH236904   4.000   5.788   4.988
12320TIP3    H136905   3.993   5.782   5.084
12320TIP3    H236906   3.923   5.837   4.961
12321TIP3   OH236907   3.544   5.826   5.863
12321TIP3    H136908   3.620   5.859   5.911
12321TIP3    H236909   3.580   5.797   5.779
12322TIP3   OH236910   3.511   5.810   5.377
12322TIP3    H136911   3.558   5.841   5.300
12322TIP3    H236912   3.449   5.880   5.398
12323TIP3   OH236913   4.676   6.519   5.972
12323TIP3    H136914   4.708   6.453   5.910
12323TIP3    H236915   4.645   6.469   6.047
12324TIP3   OH236916   4.349   5.992   5.647
12324TIP3    H136917   4.270   5.986   5.700
12324TIP3    H236918   4.421   5.975   5.708
12325TIP3   OH236919   3.777   6.041   5.651
12325TIP3    H136920   3.686   6.049   5.623
12325TIP3    H236921   3.802   5.952   5.628
12326TIP3   OH236922   4.043   6.039   5.342
12326TIP3    H136923   4.136   6.050   5.321
12326TIP3    H236924   3.998   6.059   5.259
12327TIP3   OH236925   4.835   6.065   5.854
12327TIP3    H136926   4.800   6.076   5.942
12327TIP3    H236927   4.776   6.002   5.813
12328TIP3   OH236928   3.891   6.076   5.115
12328TIP3    H136929   3.821   6.028   5.070
12328TIP3    H236930   3.945   6.112   5.044
12329TIP3   OH236931   5.006   7.749   6.064
12329TIP3    H136932   4.997   7.771   5.971
12329TIP3    H236933   5.089   7.789   6.090
12330TIP3   OH236934   3.963   6.863   6.488
12330TIP3    H136935   4.044   6.890   6.533
12330TIP3    H236936   3.898   6.858   6.558
12331TIP3   OH236937   4.427   6.317   5.744
12331TIP3    H136938   4.496   6.277   5.690
12331TIP3    H236939   4.430   6.270   5.827
12332TIP3   OH236940   3.947   5.800   5.623
12332TIP3    H136941   3.911   5.725   5.671
12332TIP3    H236942   3.993   5.761   5.549
12333TIP3   OH236943   4.402   6.215   6.031
12333TIP3    H136944   4.313   6.249   6.045
12333TIP3    H236945   4.459   6.274   6.079
12334TIP3   OH236946   4.135   6.602   5.126
12334TIP3    H136947   4.067   6.536   5.113
12334TIP3    H236948   4.119   6.635   5.215
12335TIP3   OH236949   5.032   6.840   5.750
12335TIP3    H136950   5.054   6.890   5.671
12335TIP3    H236951   4.951   6.794   5.727
12336TIP3   OH236952   4.595   5.911   4.996
12336TIP3    H136953   4.502   5.890   5.003
12336TIP3    H236954   4.600   6.004   5.019
12337TIP3   OH236955   4.543   6.924   6.123
12337TIP3    H136956   4.567   6.899   6.212
12337TIP3    H236957   4.500   7.010   6.133
12338TIP3   OH236958   4.665   6.165   5.096
12338TIP3    H136959   4.760   6.167   5.110
12338TIP3    H236960   4.647   6.242   5.043
12339TIP3   OH236961   3.836   6.627   5.799
12339TIP3    H136962   3.870   6.599   5.714
12339TIP3    H236963   3.877   6.567   5.862
12340TIP3   OH236964   4.283   6.752   4.951
12340TIP3    H136965   4.237   6.836   4.954
12340TIP3    H236966   4.231   6.695   5.009
12341TIP3   OH236967   3.713   6.543   6.417
12341TIP3    H136968   3.731   6.529   6.510
12341TIP3    H236969   3.645   6.479   6.395
12342TIP3   OH236970   4.443   6.660   6.432
12342TIP3    H136971   4.380   6.602   6.389
12342TIP3    H236972   4.528   6.625   6.408
12343TIP3   OH236973   4.697   7.189   6.019
12343TIP3    H136974   4.603   7.178   6.031
12343TIP3    H236975   4.726   7.236   6.097
12344TIP3   OH236976   5.105   6.256   4.925
12344TIP3    H136977   5.044   6.209   4.867
12344TIP3    H236978   5.106   6.345   4.890
12345TIP3   OH236979   5.328   7.119   5.995
12345TIP3    H136980   5.232   7.112   6.000
12345TIP3    H236981   5.351   7.074   5.914
12346TIP3   OH236982   4.812   7.070   4.839
12346TIP3    H136983   4.783   7.001   4.898
12346TIP3    H236984   4.823   7.026   4.754
12347TIP3   OH236985   4.803   6.698   5.668
12347TIP3    H136986   4.711   6.676   5.684
12347TIP3    H236987   4.839   6.620   5.626
12348TIP3   OH236988   3.934   6.932   5.430
12348TIP3    H136989   3.932   7.010   5.374
12348TIP3    H236990   3.842   6.907   5.439
12349TIP3   OH236991   3.497   6.234   5.135
12349TIP3    H136992   3.543   6.315   5.154
12349TIP3    H236993   3.421   6.234   5.193
12350TIP3   OH236994   4.065   6.694   5.371
12350TIP3    H136995   4.034   6.782   5.390
12350TIP3    H236996   4.033   6.640   5.443
12351TIP3   OH236997   4.206   7.272   5.895
12351TIP3    H136998   4.246   7.343   5.845
12351TIP3    H236999   4.279   7.232   5.942
12352TIP3   OH237000   3.849   7.171   5.279
12352TIP3    H137001   3.765   7.176   5.326
12352TIP3    H237002   3.882   7.261   5.280
12353TIP3   OH237003   4.590   6.906   5.856
12353TIP3    H137004   4.578   6.906   5.951
12353TIP3    H237005   4.664   6.847   5.840
12354TIP3   OH237006   4.568   6.803   4.741
12354TIP3    H137007   4.623   6.779   4.816
12354TIP3    H237008   4.481   6.770   4.764
12355TIP3   OH237009   4.838   7.437   5.904
12355TIP3    H137010   4.762   7.380   5.904
12355TIP3    H237011   4.821   7.500   5.834
12356TIP3   OH237012   4.903   7.275   4.556
12356TIP3    H137013   4.944   7.346   4.505
12356TIP3    H237014   4.824   7.314   4.592
12357TIP3   OH237015   3.920   6.050   6.422
12357TIP3    H137016   3.825   6.053   6.432
12357TIP3    H237017   3.950   5.995   6.494
12358TIP3   OH237018   4.730   6.735   4.956
12358TIP3    H137019   4.714   6.669   5.024
12358TIP3    H237020   4.824   6.732   4.941
12359TIP3   OH237021   3.642   7.132   6.054
12359TIP3    H137022   3.693   7.056   6.084
12359TIP3    H237023   3.669   7.203   6.112
12360TIP3   OH237024   3.928   6.777   4.740
12360TIP3    H137025   3.942   6.688   4.710
12360TIP3    H237026   3.908   6.769   4.833
12361TIP3   OH237027   3.874   6.787   5.012
12361TIP3    H137028   3.949   6.755   5.063
12361TIP3    H237029   3.879   6.882   5.020
12362TIP3   OH237030   3.608   6.478   5.214
12362TIP3    H137031   3.542   6.520   5.271
12362TIP3    H237032   3.624   6.543   5.145
12363TIP3   OH237033   4.760   6.119   6.115
12363TIP3    H137034   4.846   6.150   6.143
12363TIP3    H237035   4.748   6.037   6.163
12364TIP3   OH237036   4.640   5.865   5.275
12364TIP3    H137037   4.629   5.882   5.181
12364TIP3    H237038   4.681   5.944   5.309
12365TIP3   OH237039   4.141   6.983   4.959
12365TIP3    H137040   4.056   7.005   4.996
12365TIP3    H237041   4.159   7.053   4.895
12366TIP3   OH237042   4.327   6.050   5.377
12366TIP3    H137043   4.391   6.119   5.357
12366TIP3    H237044   4.333   6.037   5.471
12367TIP3   OH237045   4.602   6.360   6.178
12367TIP3    H137046   4.628   6.407   6.258
12367TIP3    H237047   4.653   6.279   6.181
12368TIP3   OH237048   4.473   5.768   5.472
12368TIP3    H137049   4.471   5.840   5.534
12368TIP3    H237050   4.532   5.797   5.403
12369TIP3   OH237051   3.888   7.060   5.028
12369TIP3    H137052   3.859   7.127   4.966
12369TIP3    H237053   3.872   7.099   5.114
12370TIP3   OH237054   3.988   5.773   5.265
12370TIP3    H137055   3.983   5.861   5.303
12370TIP3    H237056   4.080   5.750   5.269
12371TIP3   OH237057   5.238   6.265   6.154
12371TIP3    H137058   5.143   6.269   6.169
12371TIP3    H237059   5.247   6.202   6.082
12372TIP3   OH237060   4.890   6.456   5.550
12372TIP3    H137061   4.814   6.399   5.559
12372TIP3    H237062   4.960   6.411   5.596
12373TIP3   OH237063   3.609   6.682   5.015
12373TIP3    H137064   3.678   6.747   5.028
12373TIP3    H237065   3.645   6.621   4.951
12374TIP3   OH237066   3.544   5.963   5.155
12374TIP3    H137067   3.546   6.058   5.151
12374TIP3    H237068   3.470   5.937   5.100
12375TIP3   OH237069   4.861   7.419   5.495
12375TIP3    H137070   4.816   7.464   5.423
12375TIP3    H237071   4.954   7.433   5.477
12376TIP3   OH237072   3.932   5.681   6.019
12376TIP3    H137073   3.905   5.654   5.932
12376TIP3    H237074   3.921   5.603   6.073
12377TIP3   OH237075   3.472   6.906   5.401
12377TIP3    H137076   3.409   6.930   5.468
12377TIP3    H237077   3.438   6.945   5.321
12378TIP3   OH237078   3.635   7.446   6.478
12378TIP3    H137079   3.720   7.446   6.523
12378TIP3    H237080   3.610   7.354   6.474
12379TIP3   OH237081   4.112   7.402   6.519
12379TIP3    H137082   4.205   7.383   6.528
12379TIP3    H237083   4.082   7.344   6.450
12380TIP3   OH237084   4.093   6.978   4.649
12380TIP3    H137085   4.037   6.910   4.687
12380TIP3    H237086   4.170   6.930   4.617
12381TIP3   OH237087   4.751   7.314   6.259
12381TIP3    H137088   4.743   7.245   6.324
12381TIP3    H237089   4.828   7.364   6.287
12382TIP3   OH237090   4.530   7.019   4.564
12382TIP3    H137091   4.566   6.954   4.624
12382TIP3    H237092   4.587   7.014   4.487
12383TIP3   OH237093   3.760   6.850   6.677
12383TIP3    H137094   3.778   6.756   6.685
12383TIP3    H237095   3.676   6.854   6.631
12384TIP3   OH237096   3.743   6.495   4.874
12384TIP3    H137097   3.795   6.463   4.947
12384TIP3    H237098   3.805   6.502   4.801
12385TIP3   OH237099   4.368   6.935   6.451
12385TIP3    H137100   4.328   6.955   6.366
12385TIP3    H237101   4.399   6.845   6.442
12386TIP3   OH237102   4.255   6.697   4.682
12386TIP3    H137103   4.256   6.711   4.777
12386TIP3    H237104   4.257   6.602   4.672
12387TIP3   OH237105   4.862   6.949   6.060
12387TIP3    H137106   4.936   6.990   6.016
12387TIP3    H237107   4.789   7.009   6.045
12388TIP3   OH237108   3.884   6.589   6.663
12388TIP3    H137109   3.957   6.536   6.632
12388TIP3    H237110   3.911   6.619   6.749
12389TIP3   OH237111   3.945   6.403   5.091
12389TIP3    H137112   3.920   6.362   5.173
12389TIP3    H237113   3.984   6.332   5.040
12390TIP3   OH237114   4.215   6.470   6.321
12390TIP3    H137115   4.139   6.527   6.322
12390TIP3    H237116   4.268   6.501   6.247
12391TIP3   OH237117   4.052   6.202   4.930
12391TIP3    H137118   4.025   6.206   4.838
12391TIP3    H237119   4.147   6.201   4.927
12392TIP3   OH237120   4.737   6.870   6.455
12392TIP3    H137121   4.811   6.837   6.403
12392TIP3    H237122   4.727   6.807   6.526
12393TIP3   OH237123   4.866   6.529   4.597
12393TIP3    H137124   4.849   6.480   4.517
12393TIP3    H237125   4.833   6.617   4.579
12394TIP3   OH237126   4.338   6.258   6.445
12394TIP3    H137127   4.341   6.179   6.390
12394TIP3    H237128   4.296   6.324   6.390
12395TIP3   OH237129   4.341   6.046   6.255
12395TIP3    H137130   4.372   6.084   6.173
12395TIP3    H237131   4.250   6.022   6.237
12396TIP3   OH237132   4.366   6.581   6.131
12396TIP3    H137133   4.450   6.585   6.086
12396TIP3    H237134   4.311   6.643   6.083
12397TIP3   OH237135   4.951   6.543   6.508
12397TIP3    H137136   4.990   6.457   6.519
12397TIP3    H237137   5.021   6.597   6.472
12398TIP3   OH237138   4.990   6.803   6.247
12398TIP3    H137139   4.933   6.854   6.190
12398TIP3    H237140   5.078   6.816   6.210
12399TIP3   OH237141   4.218   6.362   6.679
12399TIP3    H137142   4.151   6.296   6.697
12399TIP3    H237143   4.252   6.340   6.593
12400TIP3   OH237144   4.473   5.807   6.326
12400TIP3    H137145   4.425   5.887   6.302
12400TIP3    H237146   4.410   5.736   6.313
12401TIP3   OH237147   4.596   6.308   6.541
12401TIP3    H137148   4.587   6.293   6.635
12401TIP3    H237149   4.510   6.285   6.505
12402TIP3   OH237150   4.840   6.266   6.399
12402TIP3    H137151   4.766   6.260   6.458
12402TIP3    H237152   4.914   6.232   6.449
12403TIP3   OH237153   5.068   6.201   6.545
12403TIP3    H137154   5.083   6.107   6.556
12403TIP3    H237155   5.066   6.236   6.634
12404TIP3   OH237156   4.058   6.142   6.736
12404TIP3    H137157   4.061   6.054   6.700
12404TIP3    H237158   4.096   6.133   6.824
12405TIP3   OH237159   4.566   5.813   6.583
12405TIP3    H137160   4.633   5.745   6.581
12405TIP3    H237161   4.527   5.812   6.496
12406TIP3   OH237162   4.634   6.031   6.739
12406TIP3    H137163   4.615   5.959   6.678
12406TIP3    H237164   4.557   6.088   6.732
12407TIP3   OH237165   3.860   7.265   4.839
12407TIP3    H137166   3.954   7.251   4.823
12407TIP3    H237167   3.829   7.313   4.762
12408TIP3   OH237168   3.338   6.641   5.052
12408TIP3    H137169   3.430   6.663   5.039
12408TIP3    H237170   3.329   6.554   5.014
12409TIP3   OH237171   3.252   7.251   5.472
12409TIP3    H137172   3.187   7.193   5.432
12409TIP3    H237173   3.297   7.196   5.535
12410TIP3   OH237174   3.386   7.101   5.661
12410TIP3    H137175   3.372   7.028   5.722
12410TIP3    H237176   3.438   7.164   5.710
12411TIP3   OH237177   5.118   7.501   5.458
12411TIP3    H137178   5.141   7.534   5.544
12411TIP3    H237179   5.177   7.547   5.398
12412TIP3   OH237180   5.141   7.522   5.741
12412TIP3    H137181   5.093   7.440   5.734
12412TIP3    H237182   5.216   7.502   5.796
12413TIP3   OH237183   5.186   7.205   6.311
12413TIP3    H137184   5.116   7.209   6.376
12413TIP3    H237185   5.230   7.289   6.317
12414TIP3   OH237186   5.008   6.714   4.932
12414TIP3    H137187   5.072   6.778   4.900
12414TIP3    H237188   5.049   6.676   5.009
12415TIP3   OH237189   5.133   6.584   5.139
12415TIP3    H137190   5.066   6.540   5.192
12415TIP3    H237191   5.195   6.618   5.203
12416TIP3   OH237192   5.203   6.984   5.573
12416TIP3    H137193   5.246   6.912   5.528
12416TIP3    H237194   5.189   7.050   5.505
12417TIP3   OH237195   5.016   7.275   5.761
12417TIP3    H137196   4.946   7.317   5.811
12417TIP3    H237197   4.970   7.230   5.690
12418TIP3   OH237198   5.068   6.493   4.780
12418TIP3    H137199   5.000   6.489   4.712
12418TIP3    H237200   5.042   6.566   4.836
12419TIP3   OH237201   4.938   6.162   4.733
12419TIP3    H137202   4.897   6.194   4.652
12419TIP3    H237203   4.920   6.068   4.733
12420TIP3   OH237204   4.946   6.438   5.281
12420TIP3    H137205   4.953   6.343   5.269
12420TIP3    H237206   4.931   6.449   5.375
12421TIP3   OH237207   3.573   6.510   6.028
12421TIP3    H137208   3.567   6.477   5.939
12421TIP3    H237209   3.667   6.513   6.046
12422TIP3   OH237210   5.237   6.862   6.138
12422TIP3    H137211   5.308   6.798   6.131
12422TIP3    H237212   5.249   6.919   6.062
12423TIP3   OH237213   5.433   6.676   6.162
12423TIP3    H137214   5.355   6.627   6.190
12423TIP3    H237215   5.504   6.612   6.166
12424TIP3   OH237216   4.883   5.898   4.721
12424TIP3    H137217   4.955   5.863   4.773
12424TIP3    H237218   4.810   5.838   4.737
12425TIP3   OH237219   4.947   6.155   5.171
12425TIP3    H137220   4.981   6.067   5.189
12425TIP3    H237221   5.002   6.188   5.100
12426TIP3   OH237222   5.105   6.331   5.671
12426TIP3    H137223   5.187   6.351   5.627
12426TIP3    H237224   5.117   6.363   5.760
12427TIP3   OH237225   5.179   6.482   5.897
12427TIP3    H137226   5.101   6.509   5.947
12427TIP3    H237227   5.213   6.563   5.860
12428TIP3   OH237228   3.793   6.196   6.705
12428TIP3    H137229   3.889   6.192   6.706
12428TIP3    H237230   3.766   6.111   6.741
12429TIP3   OH237231   5.625   6.066   6.452
12429TIP3    H137232   5.684   6.001   6.415
12429TIP3    H237233   5.596   6.118   6.377
12430TIP3   OH237234   5.049   5.905   5.215
12430TIP3    H137235   5.099   5.890   5.294
12430TIP3    H237236   4.989   5.830   5.210
12431TIP3   OH237237   3.754   5.892   6.037
12431TIP3    H137238   3.812   5.816   6.041
12431TIP3    H237239   3.813   5.966   6.025
12432TIP3   OH237240   3.554   6.164   6.104
12432TIP3    H137241   3.600   6.156   6.020
12432TIP3    H237242   3.582   6.248   6.139
12433TIP3   OH237243   5.491   6.201   6.254
12433TIP3    H137244   5.407   6.243   6.272
12433TIP3    H237245   5.469   6.125   6.201
12434TIP3   OH237246   5.131   5.837   4.845
12434TIP3    H137247   5.166   5.765   4.792
12434TIP3    H237248   5.198   5.905   4.841
12435TIP3   OH237249   3.538   5.675   5.610
12435TIP3    H137250   3.446   5.663   5.634
12435TIP3    H237251   3.535   5.728   5.530
12436TIP3   OH237252   4.699   7.375   5.112
12436TIP3    H137253   4.746   7.360   5.030
12436TIP3    H237254   4.752   7.438   5.160
12437TIP3   OH237255   3.752   5.743   6.419
12437TIP3    H137256   3.705   5.742   6.502
12437TIP3    H237257   3.691   5.786   6.358
12438TIP3   OH237258   3.795   7.181   6.498
12438TIP3    H137259   3.705   7.153   6.479
12438TIP3    H237260   3.810   7.153   6.588
12439TIP3   OH237261   3.979   7.215   6.044
12439TIP3    H137262   3.928   7.288   6.007
12439TIP3    H237263   4.065   7.223   6.002
12440TIP3   OH237264   4.419   7.454   6.185
12440TIP3    H137265   4.460   7.450   6.272
12440TIP3    H237266   4.482   7.503   6.132
12441TIP3   OH237267   4.598   7.607   6.044
12441TIP3    H137268   4.663   7.554   5.999
12441TIP3    H237269   4.648   7.662   6.104
12442TIP3   OH237270   5.393   5.958   6.143
12442TIP3    H137271   5.304   5.943   6.111
12442TIP3    H237272   5.436   5.873   6.135
12443TIP3   OH237273   3.649   7.468   6.068
12443TIP3    H137274   3.562   7.500   6.043
12443TIP3    H237275   3.662   7.500   6.157
12444TIP3   OH237276   3.887   7.447   5.928
12444TIP3    H137277   3.802   7.458   5.971
12444TIP3    H237278   3.871   7.475   5.838
12445TIP3   OH237279   4.313   7.472   5.727
12445TIP3    H137280   4.245   7.486   5.661
12445TIP3    H237281   4.325   7.558   5.767
12446TIP3   OH237282   4.582   7.413   5.779
12446TIP3    H137283   4.489   7.427   5.760
12446TIP3    H237284   4.627   7.483   5.732
12447TIP3   OH237285   4.790   7.603   5.688
12447TIP3    H137286   4.775   7.685   5.642
12447TIP3    H237287   4.816   7.541   5.619
12448TIP3   OH237288   3.566   7.256   5.815
12448TIP3    H137289   3.589   7.230   5.904
12448TIP3    H237290   3.634   7.216   5.760
12449TIP3   OH237291   3.761   7.130   5.675
12449TIP3    H137292   3.772   7.048   5.722
12449TIP3    H237293   3.850   7.166   5.668
12450TIP3   OH237294   4.029   7.221   5.679
12450TIP3    H137295   4.055   7.131   5.663
12450TIP3    H237296   4.074   7.246   5.759
12451TIP3   OH237297   4.595   5.876   5.756
12451TIP3    H137298   4.556   5.806   5.809
12451TIP3    H237299   4.670   5.836   5.714
12452TIP3   OH237300   5.114   5.773   5.665
12452TIP3    H137301   5.153   5.814   5.587
12452TIP3    H237302   5.020   5.780   5.651
12453TIP3   OH237303   5.217   5.865   5.427
12453TIP3    H137304   5.287   5.809   5.393
12453TIP3    H237305   5.250   5.954   5.414
12454TIP3   OH237306   3.845   5.587   5.776
12454TIP3    H137307   3.753   5.561   5.775
12454TIP3    H237308   3.894   5.505   5.771
12455TIP3   OH237309   3.640   5.461   5.430
12455TIP3    H137310   3.669   5.512   5.354
12455TIP3    H237311   3.613   5.527   5.494
12456TIP3   OH237312   4.294   5.624   5.661
12456TIP3    H137313   4.347   5.665   5.592
12456TIP3    H237314   4.331   5.657   5.743
12457TIP3   OH237315   4.829   5.763   5.641
12457TIP3    H137316   4.840   5.721   5.555
12457TIP3    H237317   4.823   5.689   5.702
12458TIP3   OH237318   4.867   5.691   5.206
12458TIP3    H137319   4.781   5.732   5.217
12458TIP3    H237320   4.859   5.606   5.250
12459TIP3   OH237321   3.349   7.036   5.199
12459TIP3    H137322   3.266   6.998   5.169
12459TIP3    H237323   3.343   7.128   5.177
12460TIP3   OH237324   3.757   5.615   5.187
12460TIP3    H137325   3.800   5.552   5.129
12460TIP3    H237326   3.829   5.668   5.221
12461TIP3   OH237327   4.263   5.799   5.289
12461TIP3    H137328   4.321   5.746   5.343
12461TIP3    H237329   4.285   5.890   5.312
12462TIP3   OH237330   4.126   7.213   4.783
12462TIP3    H137331   4.212   7.239   4.751
12462TIP3    H237332   4.100   7.140   4.727
12463TIP3   OH237333   4.843   7.336   4.879
12463TIP3    H137334   4.838   7.241   4.872
12463TIP3    H237335   4.798   7.369   4.801
12464TIP3   OH237336   4.057   5.870   6.670
12464TIP3    H137337   4.019   5.798   6.721
12464TIP3    H237338   4.149   5.870   6.694
12465TIP3   OH237339   4.307   5.866   6.787
12465TIP3    H137340   4.391   5.845   6.745
12465TIP3    H237341   4.295   5.797   6.852
12466TIP3   OH237342   3.431   7.055   4.842
12466TIP3    H137343   3.430   7.070   4.936
12466TIP3    H237344   3.515   7.013   4.825
12467TIP3   OH237345   5.135   5.933   6.575
12467TIP3    H137346   5.150   5.900   6.664
12467TIP3    H237347   5.220   5.925   6.532
12468TIP3   OH237348   5.065   7.482   6.064
12468TIP3    H137349   4.990   7.449   6.015
12468TIP3    H237350   5.048   7.576   6.074
12469TIP3   OH237351   6.334   6.856   4.830
12469TIP3    H137352   6.305   6.945   4.810
12469TIP3    H237353   6.263   6.800   4.797
12470TIP3   OH237354   6.329   6.856   5.223
12470TIP3    H137355   6.368   6.831   5.307
12470TIP3    H237356   6.295   6.774   5.187
12471TIP3   OH237357   5.651   6.765   5.598
12471TIP3    H137358   5.669   6.694   5.659
12471TIP3    H237359   5.726   6.767   5.540
12472TIP3   OH237360   6.579   7.159   4.900
12472TIP3    H137361   6.566   7.087   4.961
12472TIP3    H237362   6.613   7.231   4.953
12473TIP3   OH237363   5.618   7.159   5.318
12473TIP3    H137364   5.602   7.065   5.312
12473TIP3    H237365   5.709   7.170   5.290
12474TIP3   OH237366   5.310   6.365   5.085
12474TIP3    H137367   5.260   6.445   5.101
12474TIP3    H237368   5.246   6.305   5.046
12475TIP3   OH237369   5.374   6.648   5.266
12475TIP3    H137370   5.419   6.570   5.298
12475TIP3    H237371   5.421   6.672   5.186
12476TIP3   OH237372   6.233   7.616   4.916
12476TIP3    H137373   6.271   7.549   4.859
12476TIP3    H237374   6.226   7.573   5.002
12477TIP3   OH237375   6.135   7.078   5.267
12477TIP3    H137376   6.170   7.000   5.225
12477TIP3    H237377   6.212   7.129   5.291
12478TIP3   OH237378   7.145   6.401   5.266
12478TIP3    H137379   7.175   6.480   5.310
12478TIP3    H237380   7.168   6.414   5.174
12479TIP3   OH237381   6.543   6.582   5.290
12479TIP3    H137382   6.587   6.501   5.315
12479TIP3    H237383   6.511   6.565   5.201
12480TIP3   OH237384   5.885   6.241   5.255
12480TIP3    H137385   5.867   6.313   5.194
12480TIP3    H237386   5.840   6.165   5.216
12481TIP3   OH237387   6.584   6.334   4.879
12481TIP3    H137388   6.650   6.318   4.947
12481TIP3    H237389   6.634   6.367   4.804
12482TIP3   OH237390   5.523   6.441   5.365
12482TIP3    H137391   5.602   6.418   5.415
12482TIP3    H237392   5.529   6.387   5.286
12483TIP3   OH237393   5.952   6.636   5.176
12483TIP3    H137394   6.046   6.618   5.182
12483TIP3    H237395   5.915   6.557   5.138
12484TIP3   OH237396   7.221   6.612   5.424
12484TIP3    H137397   7.135   6.652   5.410
12484TIP3    H237398   7.228   6.602   5.519
12485TIP3   OH237399   5.882   6.226   5.693
12485TIP3    H137400   5.821   6.255   5.625
12485TIP3    H237401   5.831   6.233   5.775
12486TIP3   OH237402   6.217   7.074   4.703
12486TIP3    H137403   6.185   7.060   4.614
12486TIP3    H237404   6.176   7.156   4.731
12487TIP3   OH237405   5.985   7.003   5.486
12487TIP3    H137406   5.929   7.072   5.521
12487TIP3    H237407   6.031   7.043   5.413
12488TIP3   OH237408   6.784   6.341   5.059
12488TIP3    H137409   6.775   6.291   5.141
12488TIP3    H237410   6.838   6.417   5.083
12489TIP3   OH237411   5.756   6.339   5.475
12489TIP3    H137412   5.818   6.406   5.503
12489TIP3    H237413   5.799   6.295   5.401
12490TIP3   OH237414   5.800   7.198   5.603
12490TIP3    H137415   5.789   7.284   5.562
12490TIP3    H237416   5.714   7.158   5.599
12491TIP3   OH237417   5.206   6.887   4.820
12491TIP3    H137418   5.166   6.910   4.737
12491TIP3    H237419   5.239   6.970   4.855
12492TIP3   OH237420   6.645   7.405   5.066
12492TIP3    H137421   6.557   7.393   5.101
12492TIP3    H237422   6.640   7.488   5.017
12493TIP3   OH237423   6.934   6.295   5.423
12493TIP3    H137424   6.852   6.331   5.389
12493TIP3    H237425   7.002   6.330   5.365
12494TIP3   OH237426   6.232   5.935   5.414
12494TIP3    H137427   6.219   5.842   5.430
12494TIP3    H237428   6.157   5.977   5.456
12495TIP3   OH237429   6.346   7.445   4.729
12495TIP3    H137430   6.391   7.362   4.714
12495TIP3    H237431   6.405   7.511   4.693
12496TIP3   OH237432   6.488   7.228   4.649
12496TIP3    H137433   6.466   7.149   4.601
12496TIP3    H237434   6.526   7.197   4.732
12497TIP3   OH237435   6.860   7.310   5.399
12497TIP3    H137436   6.851   7.233   5.343
12497TIP3    H237437   6.846   7.384   5.340
12498TIP3   OH237438   6.166   6.708   4.664
12498TIP3    H137439   6.088   6.759   4.643
12498TIP3    H237440   6.213   6.702   4.581
12499TIP3   OH237441   6.127   6.494   4.375
12499TIP3    H137442   6.190   6.546   4.425
12499TIP3    H237443   6.180   6.430   4.328
12500TIP3   OH237444   7.069   6.960   5.249
12500TIP3    H137445   6.985   7.004   5.257
12500TIP3    H237446   7.094   6.971   5.158
12501TIP3   OH237447   6.515   6.789   4.636
12501TIP3    H137448   6.460   6.812   4.711
12501TIP3    H237449   6.599   6.763   4.674
12502TIP3   OH237450   6.746   6.815   5.548
12502TIP3    H137451   6.749   6.891   5.606
12502TIP3    H237452   6.663   6.825   5.501
12503TIP3   OH237453   5.747   6.784   5.053
12503TIP3    H137454   5.703   6.729   4.988
12503TIP3    H237455   5.819   6.731   5.085
12504TIP3   OH237456   5.871   7.187   5.203
12504TIP3    H137457   5.853   7.162   5.113
12504TIP3    H237458   5.960   7.155   5.219
12505TIP3   OH237459   5.865   6.760   5.414
12505TIP3    H137460   5.898   6.726   5.330
12505TIP3    H237461   5.913   6.841   5.428
12506TIP3   OH237462   6.403   7.396   5.185
12506TIP3    H137463   6.394   7.474   5.239
12506TIP3    H237464   6.391   7.323   5.245
12507TIP3   OH237465   6.019   7.316   5.731
12507TIP3    H137466   5.965   7.379   5.779
12507TIP3    H237467   5.955   7.261   5.685
12508TIP3   OH237468   6.352   6.651   4.460
12508TIP3    H137469   6.410   6.707   4.511
12508TIP3    H237470   6.377   6.668   4.369
12509TIP3   OH237471   6.098   7.328   4.739
12509TIP3    H137472   6.182   7.373   4.744
12509TIP3    H237473   6.040   7.388   4.693
12510TIP3   OH237474   5.812   7.482   5.817
12510TIP3    H137475   5.782   7.492   5.727
12510TIP3    H237476   5.733   7.456   5.865
12511TIP3   OH237477   6.867   5.888   4.510
12511TIP3    H137478   6.788   5.907   4.560
12511TIP3    H237479   6.883   5.967   4.459
12512TIP3   OH237480   5.608   6.631   4.861
12512TIP3    H137481   5.542   6.671   4.805
12512TIP3    H237482   5.582   6.539   4.867
12513TIP3   OH237483   6.673   7.253   4.060
12513TIP3    H137484   6.679   7.347   4.044
12513TIP3    H237485   6.762   7.221   4.049
12514TIP3   OH237486   5.403   6.970   5.778
12514TIP3    H137487   5.344   7.003   5.709
12514TIP3    H237488   5.391   6.875   5.776
12515TIP3   OH237489   5.245   7.209   5.394
12515TIP3    H137490   5.339   7.203   5.379
12515TIP3    H237491   5.234   7.288   5.447
12516TIP3   OH237492   6.216   7.444   5.588
12516TIP3    H137493   6.217   7.534   5.620
12516TIP3    H237494   6.148   7.401   5.640
12517TIP3   OH237495   5.979   7.569   4.541
12517TIP3    H137496   5.936   7.551   4.458
12517TIP3    H237497   5.947   7.656   4.566
12518TIP3   OH237498   5.417   7.417   4.928
12518TIP3    H137499   5.463   7.410   5.011
12518TIP3    H237500   5.368   7.336   4.921
12519TIP3   OH237501   6.181   7.472   4.178
12519TIP3    H137502   6.236   7.403   4.141
12519TIP3    H237503   6.214   7.484   4.267
12520TIP3   OH237504   6.230   7.522   4.449
12520TIP3    H137505   6.144   7.530   4.490
12520TIP3    H237506   6.286   7.484   4.517
12521TIP3   OH237507   7.012   6.796   5.721
12521TIP3    H137508   6.932   6.803   5.670
12521TIP3    H237509   7.038   6.704   5.713
12522TIP3   OH237510   5.994   6.020   5.537
12522TIP3    H137511   5.910   5.986   5.507
12522TIP3    H237512   5.971   6.097   5.589
12523TIP3   OH237513   6.534   6.133   5.735
12523TIP3    H137514   6.602   6.105   5.795
12523TIP3    H237515   6.452   6.113   5.780
12524TIP3   OH237516   6.755   6.553   5.645
12524TIP3    H137517   6.715   6.557   5.732
12524TIP3    H237518   6.746   6.642   5.610
12525TIP3   OH237519   6.429   6.690   4.203
12525TIP3    H137520   6.394   6.666   4.118
12525TIP3    H237521   6.514   6.731   4.183
12526TIP3   OH237522   6.140   6.065   4.511
12526TIP3    H137523   6.108   6.065   4.601
12526TIP3    H237524   6.104   5.985   4.472
12527TIP3   OH237525   5.931   6.538   5.558
12527TIP3    H137526   5.888   6.556   5.642
12527TIP3    H237527   5.913   6.614   5.504
12528TIP3   OH237528   5.809   6.422   5.068
12528TIP3    H137529   5.720   6.395   5.090
12528TIP3    H237530   5.825   6.384   4.982
12529TIP3   OH237531   6.304   6.508   4.798
12529TIP3    H137532   6.253   6.577   4.756
12529TIP3    H237533   6.359   6.472   4.729
12530TIP3   OH237534   6.483   6.786   5.895
12530TIP3    H137535   6.457   6.712   5.949
12530TIP3    H237536   6.578   6.790   5.904
12531TIP3   OH237537   6.457   6.530   5.032
12531TIP3    H137538   6.395   6.558   4.964
12531TIP3    H237539   6.498   6.452   4.995
12532TIP3   OH237540   5.745   6.560   5.773
12532TIP3    H137541   5.810   6.588   5.837
12532TIP3    H237542   5.717   6.474   5.804
12533TIP3   OH237543   5.797   6.044   4.475
12533TIP3    H137544   5.790   6.038   4.571
12533TIP3    H237545   5.719   6.092   4.448
12534TIP3   OH237546   5.342   6.089   5.344
12534TIP3    H137547   5.418   6.114   5.396
12534TIP3    H237548   5.378   6.049   5.265
12535TIP3   OH237549   5.308   6.066   4.863
12535TIP3    H137550   5.356   6.098   4.786
12535TIP3    H237551   5.246   6.136   4.883
12536TIP3   OH237552   6.461   6.775   5.457
12536TIP3    H137553   6.498   6.711   5.396
12536TIP3    H237554   6.438   6.724   5.534
12537TIP3   OH237555   6.145   6.248   5.133
12537TIP3    H137556   6.065   6.242   5.186
12537TIP3    H237557   6.216   6.231   5.194
12538TIP3   OH237558   5.574   6.298   5.137
12538TIP3    H137559   5.482   6.304   5.109
12538TIP3    H237560   5.598   6.207   5.118
12539TIP3   OH237561   5.839   6.296   4.829
12539TIP3    H137562   5.932   6.307   4.808
12539TIP3    H237563   5.794   6.316   4.746
12540TIP3   OH237564   6.623   6.323   5.337
12540TIP3    H137565   6.592   6.334   5.427
12540TIP3    H237566   6.564   6.259   5.298
12541TIP3   OH237567   5.687   6.334   4.603
12541TIP3    H137568   5.616   6.285   4.560
12541TIP3    H237569   5.740   6.367   4.530
12542TIP3   OH237570   6.223   6.573   5.230
12542TIP3    H137571   6.292   6.534   5.176
12542TIP3    H237572   6.227   6.526   5.313
12543TIP3   OH237573   5.742   6.054   5.113
12543TIP3    H137574   5.704   5.981   5.162
12543TIP3    H237575   5.791   6.012   5.042
12544TIP3   OH237576   6.201   6.472   5.512
12544TIP3    H137577   6.111   6.501   5.531
12544TIP3    H237578   6.256   6.527   5.566
12545TIP3   OH237579   5.931   6.858   4.613
12545TIP3    H137580   5.863   6.793   4.599
12545TIP3    H237581   5.915   6.892   4.701
12546TIP3   OH237582   6.831   7.094   5.234
12546TIP3    H137583   6.857   7.142   5.155
12546TIP3    H237584   6.750   7.050   5.210
12547TIP3   OH237585   6.391   6.171   4.476
12547TIP3    H137586   6.298   6.150   4.488
12547TIP3    H237587   6.399   6.262   4.505
12548TIP3   OH237588   6.322   7.172   5.614
12548TIP3    H137589   6.376   7.160   5.693
12548TIP3    H237590   6.298   7.264   5.616
12549TIP3   OH237591   6.462   6.420   4.583
12549TIP3    H137592   6.557   6.423   4.598
12549TIP3    H237593   6.445   6.498   4.530
12550TIP3   OH237594   5.633   6.886   5.281
12550TIP3    H137595   5.660   6.862   5.192
12550TIP3    H237596   5.680   6.825   5.337
12551TIP3   OH237597   6.079   7.008   4.436
12551TIP3    H137598   6.033   7.092   4.438
12551TIP3    H237599   6.028   6.952   4.495
12552TIP3   OH237600   6.242   6.911   5.908
12552TIP3    H137601   6.203   6.865   5.834
12552TIP3    H237602   6.335   6.887   5.905
12553TIP3   OH237603   6.485   7.435   5.500
12553TIP3    H137604   6.390   7.435   5.510
12553TIP3    H237605   6.517   7.479   5.579
12554TIP3   OH237606   6.898   6.514   4.414
12554TIP3    H137607   6.839   6.466   4.356
12554TIP3    H237608   6.902   6.602   4.377
12555TIP3   OH237609   7.112   7.337   5.491
12555TIP3    H137610   7.019   7.344   5.471
12555TIP3    H237611   7.153   7.310   5.408
12556TIP3   OH237612   6.603   7.327   4.323
12556TIP3    H137613   6.581   7.256   4.383
12556TIP3    H237614   6.620   7.284   4.239
12557TIP3   OH237615   6.598   6.956   5.155
12557TIP3    H137616   6.506   6.934   5.170
12557TIP3    H237617   6.635   6.878   5.114
12558TIP3   OH237618   5.731   7.191   4.922
12558TIP3    H137619   5.733   7.268   4.865
12558TIP3    H237620   5.639   7.162   4.920
12559TIP3   OH237621   5.293   6.491   4.621
12559TIP3    H137622   5.340   6.572   4.641
12559TIP3    H237623   5.217   6.491   4.680
12560TIP3   OH237624   5.859   6.951   4.857
12560TIP3    H137625   5.831   7.039   4.878
12560TIP3    H237626   5.827   6.897   4.929
12561TIP3   OH237627   6.002   7.527   5.384
12561TIP3    H137628   6.039   7.599   5.332
12561TIP3    H237629   6.077   7.489   5.429
12562TIP3   OH237630   5.647   7.427   4.767
12562TIP3    H137631   5.563   7.433   4.811
12562TIP3    H237632   5.681   7.517   4.768
12563TIP3   OH237633   6.384   7.162   5.345
12563TIP3    H137634   6.372   7.156   5.439
12563TIP3    H237635   6.461   7.109   5.326
12564TIP3   OH237636   6.364   7.058   4.230
12564TIP3    H137637   6.420   7.034   4.305
12564TIP3    H237638   6.277   7.028   4.255
12565TIP3   OH237639   6.614   7.707   5.402
12565TIP3    H137640   6.544   7.644   5.385
12565TIP3    H237641   6.614   7.765   5.326
12566TIP3   OH237642   6.700   7.531   4.043
12566TIP3    H137643   6.743   7.599   3.991
12566TIP3    H237644   6.621   7.572   4.077
12567TIP3   OH237645   5.714   6.307   5.905
12567TIP3    H137646   5.618   6.306   5.915
12567TIP3    H237647   5.745   6.246   5.973
12568TIP3   OH237648   6.527   6.991   4.445
12568TIP3    H137649   6.513   6.925   4.513
12568TIP3    H237650   6.621   6.988   4.428
12569TIP3   OH237651   5.427   7.400   5.534
12569TIP3    H137652   5.492   7.331   5.549
12569TIP3    H237653   5.458   7.474   5.586
12570TIP3   OH237654   5.724   7.034   4.226
12570TIP3    H137655   5.740   6.944   4.198
12570TIP3    H237656   5.704   7.026   4.320
12571TIP3   OH237657   5.670   7.043   4.499
12571TIP3    H137658   5.746   7.011   4.548
12571TIP3    H237659   5.674   7.138   4.506
12572TIP3   OH237660   5.404   6.735   4.701
12572TIP3    H137661   5.338   6.776   4.758
12572TIP3    H237662   5.420   6.800   4.632
12573TIP3   OH237663   6.549   6.376   5.599
12573TIP3    H137664   6.635   6.414   5.619
12573TIP3    H237665   6.547   6.294   5.649
12574TIP3   OH237666   6.440   6.122   4.761
12574TIP3    H137667   6.428   6.141   4.668
12574TIP3    H237668   6.480   6.201   4.797
12575TIP3   OH237669   5.937   7.239   4.445
12575TIP3    H137670   5.852   7.262   4.483
12575TIP3    H237671   5.956   7.311   4.385
12576TIP3   OH237672   6.124   6.306   4.863
12576TIP3    H137673   6.187   6.375   4.844
12576TIP3    H237674   6.129   6.294   4.958
12577TIP3   OH237675   6.397   6.615   5.669
12577TIP3    H137676   6.428   6.658   5.749
12577TIP3    H237677   6.447   6.534   5.665
12578TIP3   OH237678   6.270   6.025   4.959
12578TIP3    H137679   6.268   6.098   5.022
12578TIP3    H237680   6.329   6.055   4.890
12579TIP3   OH237681   5.684   7.316   4.516
12579TIP3    H137682   5.655   7.383   4.453
12579TIP3    H237683   5.668   7.356   4.601
12580TIP3   OH237684   5.785   6.031   4.750
12580TIP3    H137685   5.779   6.117   4.791
12580TIP3    H237686   5.877   6.007   4.756
12581TIP3   OH237687   7.031   6.538   5.631
12581TIP3    H137688   6.936   6.526   5.629
12581TIP3    H237689   7.066   6.452   5.607
12582TIP3   OH237690   6.685   6.714   5.038
12582TIP3    H137691   6.611   6.655   5.048
12582TIP3    H237692   6.758   6.670   5.082
12583TIP3   OH237693   5.405   6.939   4.502
12583TIP3    H137694   5.475   7.004   4.515
12583TIP3    H237695   5.441   6.878   4.438
12584TIP3   OH237696   5.342   6.220   4.640
12584TIP3    H137697   5.341   6.315   4.637
12584TIP3    H237698   5.265   6.193   4.590
12585TIP3   OH237699   6.658   7.674   4.980
12585TIP3    H137700   6.613   7.718   4.908
12585TIP3    H237701   6.751   7.689   4.962
12586TIP3   OH237702   5.730   5.939   5.510
12586TIP3    H137703   5.701   5.903   5.426
12586TIP3    H237704   5.723   5.867   5.571
12587TIP3   OH237705   5.269   7.162   4.889
12587TIP3    H137706   5.203   7.188   4.954
12587TIP3    H237707   5.237   7.201   4.807
12588TIP3   OH237708   5.432   7.709   5.969
12588TIP3    H137709   5.514   7.712   6.018
12588TIP3    H237710   5.407   7.616   5.970
12589TIP3   OH237711   5.911   7.654   6.010
12589TIP3    H137712   6.006   7.641   6.008
12589TIP3    H237713   5.878   7.600   5.939
12590TIP3   OH237714   5.889   7.235   4.134
12590TIP3    H137715   5.835   7.167   4.173
12590TIP3    H237716   5.966   7.188   4.102
12591TIP3   OH237717   6.530   7.542   5.745
12591TIP3    H137718   6.528   7.481   5.820
12591TIP3    H237719   6.603   7.600   5.764
12592TIP3   OH237720   6.325   7.275   4.049
12592TIP3    H137721   6.366   7.213   4.110
12592TIP3    H237722   6.381   7.272   3.972
12593TIP3   OH237723   5.565   7.031   6.128
12593TIP3    H137724   5.593   7.015   6.219
12593TIP3    H237725   5.477   7.069   6.137
12594TIP3   OH237726   5.539   6.752   4.361
12594TIP3    H137727   5.591   6.720   4.434
12594TIP3    H237728   5.601   6.759   4.288
12595TIP3   OH237729   6.164   7.188   5.935
12595TIP3    H137730   6.131   7.209   5.848
12595TIP3    H237731   6.200   7.099   5.926
12596TIP3   OH237732   6.048   6.953   4.168
12596TIP3    H137733   6.052   6.968   4.263
12596TIP3    H237734   6.050   6.858   4.158
12597TIP3   OH237735   6.647   7.213   5.542
12597TIP3    H137736   6.727   7.243   5.501
12597TIP3    H237737   6.582   7.280   5.521
12598TIP3   OH237738   5.741   6.659   4.578
12598TIP3    H137739   5.716   6.618   4.660
12598TIP3    H237740   5.780   6.588   4.527
12599TIP3   OH237741   6.008   6.711   5.795
12599TIP3    H137742   5.992   6.795   5.839
12599TIP3    H237743   6.066   6.733   5.722
12600TIP3   OH237744   5.848   6.458   4.416
12600TIP3    H137745   5.821   6.463   4.324
12600TIP3    H237746   5.943   6.459   4.413
12601TIP3   OH237747   6.532   7.123   5.944
12601TIP3    H137748   6.609   7.098   5.892
12601TIP3    H237749   6.529   7.059   6.015
12602TIP3   OH237750   6.659   6.785   4.086
12602TIP3    H137751   6.646   6.737   4.003
12602TIP3    H237752   6.629   6.873   4.067
12603TIP3   OH237753   6.134   6.509   5.931
12603TIP3    H137754   6.141   6.427   5.881
12603TIP3    H237755   6.090   6.569   5.871
12604TIP3   OH237756   6.138   6.304   5.742
12604TIP3    H137757   6.170   6.336   5.658
12604TIP3    H237758   6.048   6.277   5.725
12605TIP3   OH237759   6.167   6.840   5.624
12605TIP3    H137760   6.251   6.835   5.579
12605TIP3    H237761   6.115   6.902   5.572
12606TIP3   OH237762   6.757   6.793   6.002
12606TIP3    H137763   6.787   6.704   5.987
12606TIP3    H237764   6.829   6.848   5.971
12607TIP3   OH237765   6.775   7.039   5.704
12607TIP3    H137766   6.719   7.097   5.652
12607TIP3    H237767   6.864   7.055   5.671
12608TIP3   OH237768   6.014   6.621   6.158
12608TIP3    H137769   5.945   6.558   6.180
12608TIP3    H237770   6.052   6.588   6.077
12609TIP3   OH237771   6.269   6.062   5.810
12609TIP3    H137772   6.221   6.142   5.789
12609TIP3    H237773   6.204   5.992   5.800
12610TIP3   OH237774   6.390   6.567   6.028
12610TIP3    H137775   6.385   6.550   6.122
12610TIP3    H237776   6.305   6.542   5.994
12611TIP3   OH237777   6.637   6.533   5.890
12611TIP3    H137778   6.561   6.521   5.946
12611TIP3    H237779   6.710   6.496   5.941
12612TIP3   OH237780   6.850   6.459   6.045
12612TIP3    H137781   6.870   6.365   6.049
12612TIP3    H237782   6.864   6.490   6.134
12613TIP3   OH237783   5.857   6.403   6.224
12613TIP3    H137784   5.854   6.315   6.188
12613TIP3    H237785   5.896   6.392   6.311
12614TIP3   OH237786   6.365   6.071   6.068
12614TIP3    H137787   6.431   6.002   6.065
12614TIP3    H237788   6.323   6.067   5.982
12615TIP3   OH237789   6.430   6.287   6.225
12615TIP3    H137790   6.412   6.215   6.165
12615TIP3    H237791   6.353   6.343   6.220
12616TIP3   OH237792   5.656   7.519   4.325
12616TIP3    H137793   5.750   7.507   4.310
12616TIP3    H237794   5.625   7.569   4.250
12617TIP3   OH237795   5.134   6.898   4.540
12617TIP3    H137796   5.226   6.920   4.527
12617TIP3    H237797   5.124   6.811   4.501
12618TIP3   OH237798   5.047   7.508   4.958
12618TIP3    H137799   4.982   7.450   4.917
12618TIP3    H237800   5.092   7.453   5.021
12619TIP3   OH237801   5.181   7.357   5.145
12619TIP3    H137802   5.165   7.286   5.208
12619TIP3    H237803   5.233   7.421   5.194
12620TIP3   OH237804   6.912   7.758   4.939
12620TIP3    H137805   6.932   7.789   5.027
12620TIP3    H237806   6.973   7.806   4.882
12621TIP3   OH237807   6.940   7.773   5.218
12621TIP3    H137808   6.901   7.685   5.219
12621TIP3    H237809   6.976   7.785   5.305
12622TIP3   OH237810   6.803   6.971   4.419
12622TIP3    H137811   6.867   7.035   4.386
12622TIP3    H237812   6.846   6.933   4.495
12623TIP3   OH237813   6.929   6.839   4.624
12623TIP3    H137814   6.864   6.797   4.680
12623TIP3    H237815   6.994   6.874   4.685
12624TIP3   OH237816   6.981   7.229   5.045
12624TIP3    H137817   7.033   7.162   5.001
12624TIP3    H237818   6.982   7.303   4.984
12625TIP3   OH237819   6.809   7.535   5.249
12625TIP3    H137820   6.738   7.570   5.304
12625TIP3    H237821   6.764   7.491   5.177
12626TIP3   OH237822   6.864   6.749   4.267
12626TIP3    H137823   6.796   6.747   4.199
12626TIP3    H237824   6.839   6.822   4.323
12627TIP3   OH237825   6.732   6.417   4.223
12627TIP3    H137826   6.697   6.455   4.142
12627TIP3    H237827   6.714   6.323   4.214
12628TIP3   OH237828   6.741   6.696   4.769
12628TIP3    H137829   6.751   6.602   4.758
12628TIP3    H237830   6.727   6.708   4.863
12629TIP3   OH237831   5.377   6.773   5.513
12629TIP3    H137832   5.371   6.736   5.425
12629TIP3    H237833   5.471   6.780   5.530
12630TIP3   OH237834   7.021   7.102   5.609
12630TIP3    H137835   7.100   7.056   5.636
12630TIP3    H237836   7.053   7.183   5.569
12631TIP3   OH237837   7.239   6.929   5.665
12631TIP3    H137838   7.155   6.888   5.686
12631TIP3    H237839   7.302   6.857   5.665
12632TIP3   OH237840   6.684   6.149   4.198
12632TIP3    H137841   6.758   6.122   4.253
12632TIP3    H237842   6.612   6.093   4.226
12633TIP3   OH237843   6.742   6.410   4.657
12633TIP3    H137844   6.780   6.324   4.674
12633TIP3    H237845   6.797   6.447   4.587
12634TIP3   OH237846   6.901   6.585   5.155
12634TIP3    H137847   6.982   6.608   5.110
12634TIP3    H237848   6.912   6.618   5.244
12635TIP3   OH237849   6.968   6.733   5.379
12635TIP3    H137850   6.894   6.761   5.432
12635TIP3    H237851   7.003   6.814   5.341
12636TIP3   OH237852   5.592   6.457   6.198
12636TIP3    H137853   5.688   6.449   6.196
12636TIP3    H237854   5.563   6.371   6.228
12637TIP3   OH237855   6.847   6.161   4.702
12637TIP3    H137856   6.895   6.148   4.783
12637TIP3    H237857   6.787   6.087   4.698
12638TIP3   OH237858   5.549   6.149   5.522
12638TIP3    H137859   5.602   6.070   5.530
12638TIP3    H237860   5.612   6.220   5.512
12639TIP3   OH237861   5.347   6.425   5.587
12639TIP3    H137862   5.395   6.411   5.505
12639TIP3    H237863   5.389   6.502   5.626
12640TIP3   OH237864   6.927   6.095   4.332
12640TIP3    H137865   6.968   6.024   4.282
12640TIP3    H237866   6.992   6.165   4.332
12641TIP3   OH237867   5.334   5.933   5.098
12641TIP3    H137868   5.243   5.918   5.122
12641TIP3    H237869   5.329   5.985   5.018
12642TIP3   OH237870   6.491   7.631   4.597
12642TIP3    H137871   6.542   7.618   4.517
12642TIP3    H237872   6.543   7.692   4.649
12643TIP3   OH237873   5.556   6.022   5.916
12643TIP3    H137874   5.504   5.996   5.992
12643TIP3    H237875   5.491   6.038   5.847
12644TIP3   OH237876   5.592   7.405   5.974
12644TIP3    H137877   5.497   7.403   5.969
12644TIP3    H237878   5.611   7.415   6.068
12645TIP3   OH237879   5.773   7.468   5.528
12645TIP3    H137880   5.724   7.542   5.493
12645TIP3    H237881   5.860   7.477   5.489
12646TIP3   OH237882   6.221   7.711   5.672
12646TIP3    H137883   6.254   7.710   5.762
12646TIP3    H237884   6.288   7.760   5.623
12647TIP3   OH237885   6.416   7.858   5.540
12647TIP3    H137886   6.473   7.799   5.490
12647TIP3    H237887   6.458   7.943   5.535
12648TIP3   OH237888   5.445   7.721   5.564
12648TIP3    H137889   5.358   7.748   5.536
12648TIP3    H237890   5.464   7.776   5.639
12649TIP3   OH237891   5.680   7.698   5.415
12649TIP3    H137892   5.596   7.713   5.459
12649TIP3    H237893   5.666   7.730   5.326
12650TIP3   OH237894   6.105   7.727   5.215
12650TIP3    H137895   6.040   7.743   5.146
12650TIP3    H237896   6.120   7.813   5.254
12651TIP3   OH237897   6.375   7.667   5.266
12651TIP3    H137898   6.284   7.684   5.243
12651TIP3    H237899   6.425   7.733   5.219
12652TIP3   OH237900   6.576   7.852   5.172
12652TIP3    H137901   6.562   7.935   5.126
12652TIP3    H237902   6.609   7.793   5.105
12653TIP3   OH237903   5.359   7.516   5.295
12653TIP3    H137904   5.378   7.492   5.386
12653TIP3    H237905   5.429   7.475   5.245
12654TIP3   OH237906   5.557   7.385   5.164
12654TIP3    H137907   5.574   7.303   5.211
12654TIP3    H237908   5.644   7.425   5.154
12655TIP3   OH237909   5.823   7.480   5.166
12655TIP3    H137910   5.854   7.392   5.144
12655TIP3    H237911   5.870   7.503   5.246
12656TIP3   OH237912   6.389   6.132   5.244
12656TIP3    H137913   6.352   6.062   5.298
12656TIP3    H237914   6.466   6.093   5.203
12657TIP3   OH237915   6.916   6.011   5.152
12657TIP3    H137916   6.956   6.063   5.083
12657TIP3    H237917   6.823   6.034   5.151
12658TIP3   OH237918   7.012   6.120   4.918
12658TIP3    H137919   7.079   6.063   4.880
12658TIP3    H237920   7.044   6.209   4.904
12659TIP3   OH237921   5.641   5.841   5.263
12659TIP3    H137922   5.550   5.812   5.267
12659TIP3    H237923   5.692   5.760   5.259
12660TIP3   OH237924   5.429   5.719   4.915
12660TIP3    H137925   5.461   5.771   4.841
12660TIP3    H237926   5.407   5.784   4.982
12661TIP3   OH237927   6.089   5.882   5.144
12661TIP3    H137928   6.147   5.926   5.082
12661TIP3    H237929   6.118   5.913   5.230
12662TIP3   OH237930   6.629   6.028   5.126
12662TIP3    H137931   6.636   5.991   5.038
12662TIP3    H237932   6.617   5.952   5.183
12663TIP3   OH237933   6.663   5.949   4.693
12663TIP3    H137934   6.579   5.992   4.707
12663TIP3    H237935   6.653   5.863   4.734
12664TIP3   OH237936   5.145   7.293   4.687
12664TIP3    H137937   5.062   7.255   4.657
12664TIP3    H237938   5.139   7.385   4.664
12665TIP3   OH237939   5.553   5.877   4.672
12665TIP3    H137940   5.596   5.810   4.617
12665TIP3    H237941   5.626   5.927   4.708
12666TIP3   OH237942   6.061   6.055   4.775
12666TIP3    H137943   6.116   6.001   4.832
12666TIP3    H237944   6.082   6.145   4.799
12667TIP3   OH237945   5.922   7.470   4.271
12667TIP3    H137946   6.009   7.495   4.240
12667TIP3    H237947   5.896   7.397   4.215
12668TIP3   OH237948   6.637   7.593   4.366
12668TIP3    H137949   6.631   7.497   4.358
12668TIP3    H237950   6.594   7.626   4.287
12669TIP3   OH237951   5.852   6.136   6.165
12669TIP3    H137952   5.813   6.060   6.208
12669TIP3    H237953   5.945   6.131   6.187
12670TIP3   OH237954   6.106   6.124   6.276
12670TIP3    H137955   6.187   6.097   6.233
12670TIP3    H237956   6.089   6.055   6.341
12671TIP3   OH237957   5.226   7.310   4.328
12671TIP3    H137958   5.227   7.328   4.422
12671TIP3    H237959   5.310   7.267   4.311
12672TIP3   OH237960   6.927   6.193   6.060
12672TIP3    H137961   6.942   6.159   6.148
12672TIP3    H237962   7.012   6.187   6.016
12673TIP3   OH237963   8.121   7.106   4.323
12673TIP3    H137964   8.087   7.194   4.305
12673TIP3    H237965   8.057   7.047   4.285
12674TIP3   OH237966   8.090   7.114   4.715
12674TIP3    H137967   8.154   7.065   4.767
12674TIP3    H237968   8.067   7.054   4.644
12675TIP3   OH237969   7.427   6.984   5.055
12675TIP3    H137970   7.450   6.919   5.122
12675TIP3    H237971   7.512   7.019   5.026
12676TIP3   OH237972   7.405   7.415   4.787
12676TIP3    H137973   7.393   7.320   4.787
12676TIP3    H237974   7.500   7.427   4.778
12677TIP3   OH237975   7.106   6.620   4.572
12677TIP3    H137976   7.059   6.702   4.588
12677TIP3    H237977   7.041   6.563   4.530
12678TIP3   OH237978   7.168   6.903   4.751
12678TIP3    H137979   7.214   6.826   4.784
12678TIP3    H237980   7.222   6.935   4.679
12679TIP3   OH237981   7.916   7.321   4.734
12679TIP3    H137982   7.977   7.250   4.717
12679TIP3    H237983   7.970   7.391   4.770
12680TIP3   OH237984   8.366   6.831   4.750
12680TIP3    H137985   8.388   6.740   4.771
12680TIP3    H237986   8.312   6.825   4.671
12681TIP3   OH237987   7.672   6.491   4.748
12681TIP3    H137988   7.659   6.572   4.699
12681TIP3    H237989   7.669   6.422   4.682
12682TIP3   OH237990   8.371   6.594   4.374
12682TIP3    H137991   8.442   6.573   4.434
12682TIP3    H237992   8.414   6.628   4.296
12683TIP3   OH237993   7.316   6.696   4.849
12683TIP3    H137994   7.395   6.681   4.901
12683TIP3    H237995   7.327   6.640   4.773
12684TIP3   OH237996   7.754   6.893   4.649
12684TIP3    H137997   7.847   6.872   4.659
12684TIP3    H237998   7.715   6.812   4.615
12685TIP3   OH237999   7.670   6.478   5.190
12685TIP3    H138000   7.615   6.513   5.119
12685TIP3    H238001   7.621   6.496   5.270
12686TIP3   OH238002   7.990   7.314   4.197
12686TIP3    H138003   7.958   7.302   4.107
12686TIP3    H238004   7.965   7.403   4.219
12687TIP3   OH238005   7.777   7.243   4.952
12687TIP3    H138006   7.712   7.313   4.957
12687TIP3    H238007   7.833   7.268   4.879
12688TIP3   OH238008   0.083   6.578   4.543
12688TIP3    H138009   0.046   6.522   4.611
12688TIP3    H238010   0.136   6.641   4.591
12689TIP3   OH238011   7.547   6.596   4.969
12689TIP3    H138012   7.608   6.664   4.998
12689TIP3    H238013   7.591   6.556   4.893
12690TIP3   OH238014   7.000   7.143   4.308
12690TIP3    H138015   6.965   7.167   4.222
12690TIP3    H238016   7.035   7.225   4.343
12691TIP3   OH238017   8.230   7.472   4.151
12691TIP3    H138018   8.198   7.395   4.104
12691TIP3    H238019   8.308   7.442   4.197
12692TIP3   OH238020   7.962   6.965   4.149
12692TIP3    H138021   7.884   7.017   4.131
12692TIP3    H238022   8.003   6.951   4.064
12693TIP3   OH238023   7.920   6.754   3.858
12693TIP3    H138024   7.991   6.803   3.900
12693TIP3    H238025   7.964   6.681   3.814
12694TIP3   OH238026   8.304   7.027   4.136
12694TIP3    H138027   8.251   7.049   4.212
12694TIP3    H238028   8.391   7.007   4.172
12695TIP3   OH238029   7.542   7.041   4.541
12695TIP3    H138030   7.497   6.987   4.477
12695TIP3    H238031   7.617   6.989   4.569
12696TIP3   OH238032   7.674   7.448   4.686
12696TIP3    H138033   7.642   7.425   4.599
12696TIP3    H238034   7.757   7.401   4.695
12697TIP3   OH238035   7.673   6.999   4.891
12697TIP3    H138036   7.702   6.970   4.804
12697TIP3    H238037   7.720   7.081   4.905
12698TIP3   OH238038   8.146   6.903   3.944
12698TIP3    H138039   8.203   6.955   4.001
12698TIP3    H238040   8.174   6.924   3.855
12699TIP3   OH238041   7.514   7.157   5.281
12699TIP3    H138042   7.469   7.191   5.204
12699TIP3    H238043   7.448   7.105   5.327
12700TIP3   OH238044   7.891   7.589   4.215
12700TIP3    H138045   7.955   7.652   4.249
12700TIP3    H238046   7.827   7.644   4.169
12701TIP3   OH238047   7.402   6.889   4.353
12701TIP3    H138048   7.339   6.929   4.293
12701TIP3    H238049   7.383   6.795   4.347
12702TIP3   OH238050   7.182   7.241   5.243
12702TIP3    H138051   7.114   7.232   5.177
12702TIP3    H238052   7.200   7.151   5.271
12703TIP3   OH238053   7.043   7.461   4.885
12703TIP3    H138054   7.139   7.456   4.876
12703TIP3    H238055   7.028   7.543   4.932
12704TIP3   OH238056   7.739   7.832   4.040
12704TIP3    H138057   7.723   7.807   3.949
12704TIP3    H238058   7.806   7.900   4.035
12705TIP3   OH238059   7.210   7.674   4.411
12705TIP3    H138060   7.257   7.669   4.495
12705TIP3    H238061   7.160   7.592   4.406
12706TIP3   OH238062   7.347   7.456   5.193
12706TIP3    H138063   7.434   7.445   5.231
12706TIP3    H238064   7.301   7.375   5.216
12707TIP3   OH238065   8.304   6.390   5.203
12707TIP3    H138066   8.376   6.381   5.267
12707TIP3    H238067   8.225   6.367   5.253
12708TIP3   OH238068   8.236   6.958   3.694
12708TIP3    H138069   8.184   6.925   3.621
12708TIP3    H238070   8.306   7.008   3.653
12709TIP3   OH238071   7.946   6.313   3.997
12709TIP3    H138072   7.914   6.315   4.087
12709TIP3    H238073   7.897   6.242   3.955
12710TIP3   OH238074   7.728   6.787   5.047
12710TIP3    H138075   7.681   6.806   5.128
12710TIP3    H238076   7.710   6.862   4.990
12711TIP3   OH238077   7.608   6.674   4.563
12711TIP3    H138078   7.517   6.649   4.579
12711TIP3    H238079   7.627   6.646   4.474
12712TIP3   OH238080   8.095   6.764   4.282
12712TIP3    H138081   8.044   6.833   4.239
12712TIP3    H238082   8.149   6.728   4.212
12713TIP3   OH238083   8.236   6.788   4.512
12713TIP3    H138084   8.174   6.810   4.443
12713TIP3    H238085   8.283   6.711   4.479
12714TIP3   OH238086   7.542   6.810   5.250
12714TIP3    H138087   7.597   6.863   5.308
12714TIP3    H238088   7.524   6.731   5.301
12715TIP3   OH238089   7.564   6.262   3.962
12715TIP3    H138090   7.565   6.289   4.054
12715TIP3    H238091   7.566   6.344   3.913
12716TIP3   OH238092   7.140   6.339   4.832
12716TIP3    H138093   7.215   6.369   4.883
12716TIP3    H238094   7.178   6.304   4.752
12717TIP3   OH238095   7.101   6.322   4.353
12717TIP3    H138096   7.149   6.351   4.275
12717TIP3    H238097   7.040   6.393   4.372
12718TIP3   OH238098   7.949   6.514   4.613
12718TIP3    H138099   7.864   6.491   4.652
12718TIP3    H238100   8.011   6.505   4.685
12719TIP3   OH238101   7.363   6.548   4.622
12719TIP3    H138102   7.273   6.572   4.599
12719TIP3    H238103   7.373   6.458   4.592
12720TIP3   OH238104   7.635   6.574   4.315
12720TIP3    H138105   7.728   6.566   4.292
12720TIP3    H238106   7.590   6.575   4.230
12721TIP3   OH238107   8.394   6.566   4.804
12721TIP3    H138108   8.371   6.583   4.896
12721TIP3    H238109   8.333   6.498   4.776
12722TIP3   OH238110   7.483   6.590   4.082
12722TIP3    H138111   7.415   6.542   4.035
12722TIP3    H238112   7.537   6.629   4.013
12723TIP3   OH238113   8.014   6.819   4.713
12723TIP3    H138114   8.086   6.784   4.661
12723TIP3    H238115   8.023   6.776   4.799
12724TIP3   OH238116   7.994   6.723   4.994
12724TIP3    H138117   7.904   6.750   5.013
12724TIP3    H238118   8.044   6.752   5.070
12725TIP3   OH238119   7.729   7.115   4.096
12725TIP3    H138120   7.661   7.049   4.082
12725TIP3    H238121   7.712   7.149   4.184
12726TIP3   OH238122   8.192   6.421   3.970
12726TIP3    H138123   8.101   6.392   3.977
12726TIP3    H238124   8.187   6.516   3.977
12727TIP3   OH238125   8.251   6.679   4.071
12727TIP3    H138126   8.346   6.687   4.078
12727TIP3    H238127   8.226   6.749   4.011
12728TIP3   OH238128   7.431   7.142   4.773
12728TIP3    H138129   7.465   7.116   4.688
12728TIP3    H238130   7.462   7.073   4.833
12729TIP3   OH238131   7.892   7.271   3.934
12729TIP3    H138132   7.835   7.347   3.921
12729TIP3    H238133   7.836   7.205   3.975
12730TIP3   OH238134   7.290   7.028   5.403
12730TIP3    H138135   7.283   7.002   5.495
12730TIP3    H238136   7.221   6.978   5.359
12731TIP3   OH238137   7.528   7.448   4.411
12731TIP3    H138138   7.527   7.525   4.354
12731TIP3    H238139   7.437   7.419   4.412
12732TIP3   OH238140   7.089   6.747   4.105
12732TIP3    H138141   7.136   6.828   4.124
12732TIP3    H238142   7.015   6.747   4.165
12733TIP3   OH238143   7.653   7.206   4.341
12733TIP3    H138144   7.626   7.295   4.362
12733TIP3    H238145   7.623   7.153   4.415
12734TIP3   OH238146   7.444   7.679   4.253
12734TIP3    H138147   7.360   7.688   4.298
12734TIP3    H238148   7.482   7.767   4.254
12735TIP3   OH238149   8.048   7.289   3.700
12735TIP3    H138150   8.138   7.284   3.733
12735TIP3    H238151   7.993   7.268   3.776
12736TIP3   OH238152   7.511   6.560   5.399
12736TIP3    H138153   7.417   6.565   5.415
12736TIP3    H238154   7.544   6.503   5.468
12737TIP3   OH238155   8.335   7.225   3.950
12737TIP3    H138156   8.289   7.175   4.017
12737TIP3    H238157   8.412   7.173   3.930
12738TIP3   OH238158   7.247   7.640   5.031
12738TIP3    H138159   7.281   7.560   5.071
12738TIP3    H238160   7.261   7.708   5.096
12739TIP3   OH238161   7.464   7.297   3.974
12739TIP3    H138162   7.544   7.269   4.019
12739TIP3    H238163   7.469   7.393   3.975
12740TIP3   OH238164   7.199   6.991   4.188
12740TIP3    H138165   7.134   7.033   4.245
12740TIP3    H238166   7.216   7.056   4.119
12741TIP3   OH238167   8.342   6.624   5.066
12741TIP3    H138168   8.341   6.680   5.143
12741TIP3    H238169   8.320   6.537   5.099
12742TIP3   OH238170   8.229   6.383   4.245
12742TIP3    H138171   8.218   6.398   4.151
12742TIP3    H238172   8.266   6.465   4.278
12743TIP3   OH238173   7.722   7.488   3.910
12743TIP3    H138174   7.641   7.498   3.960
12743TIP3    H238175   7.745   7.576   3.882
12744TIP3   OH238176   7.922   6.559   4.346
12744TIP3    H138177   7.982   6.631   4.325
12744TIP3    H238178   7.927   6.551   4.442
12745TIP3   OH238179   8.077   6.286   4.449
12745TIP3    H138180   8.044   6.363   4.495
12745TIP3    H238181   8.130   6.321   4.378
12746TIP3   OH238182   7.479   7.571   3.998
12746TIP3    H138183   7.453   7.640   3.937
12746TIP3    H238184   7.467   7.611   4.085
12747TIP3   OH238185   7.573   6.286   4.242
12747TIP3    H138186   7.569   6.359   4.304
12747TIP3    H238187   7.662   6.251   4.251
12748TIP3   OH238188   8.503   6.938   4.518
12748TIP3    H138189   8.410   6.914   4.521
12748TIP3    H238190   8.527   6.950   4.610
12749TIP3   OH238191   7.204   7.195   3.990
12749TIP3    H138192   7.271   7.262   4.003
12749TIP3    H238193   7.240   7.138   3.922
12750TIP3   OH238194   7.130   6.476   4.134
12750TIP3    H138195   7.147   6.569   4.126
12750TIP3    H238196   7.060   6.458   4.071
12751TIP3   OH238197   7.561   6.186   4.985
12751TIP3    H138198   7.490   6.152   4.931
12751TIP3    H238199   7.561   6.131   5.063
12752TIP3   OH238200   7.062   7.413   4.375
12752TIP3    H138201   6.999   7.442   4.441
12752TIP3    H238202   7.033   7.455   4.294
12753TIP3   OH238203   7.659   7.406   3.642
12753TIP3    H138204   7.683   7.434   3.730
12753TIP3    H238205   7.741   7.409   3.593
12754TIP3   OH238206   7.338   6.999   3.844
12754TIP3    H138207   7.394   6.989   3.921
12754TIP3    H238208   7.387   6.956   3.774
12755TIP3   OH238209   7.539   6.912   4.055
12755TIP3    H138210   7.516   6.866   4.136
12755TIP3    H238211   7.577   6.845   3.998
12756TIP3   OH238212   7.789   6.974   5.288
12756TIP3    H138213   7.755   7.050   5.336
12756TIP3    H238214   7.834   7.012   5.213
12757TIP3   OH238215   7.646   6.709   3.897
12757TIP3    H138216   7.626   6.647   3.826
12757TIP3    H238217   7.740   6.724   3.890
12758TIP3   OH238218   7.901   6.768   5.449
12758TIP3    H138219   7.925   6.696   5.391
12758TIP3    H238220   7.870   6.837   5.391
12759TIP3   OH238221   7.931   6.544   5.221
12759TIP3    H138222   7.955   6.580   5.136
12759TIP3    H238223   7.839   6.520   5.213
12760TIP3   OH238224   8.060   6.321   5.315
12760TIP3    H138225   8.014   6.400   5.288
12760TIP3    H238226   7.997   6.250   5.298
12761TIP3   OH238227   7.641   6.654   5.717
12761TIP3    H138228   7.643   6.580   5.656
12761TIP3    H238229   7.702   6.629   5.786
12762TIP3   OH238230   8.168   6.331   5.568
12762TIP3    H138231   8.225   6.255   5.557
12762TIP3    H238232   8.119   6.337   5.486
12763TIP3   OH238233   7.429   7.777   3.809
12763TIP3    H138234   7.521   7.796   3.789
12763TIP3    H238235   7.383   7.795   3.727
12764TIP3   OH238236   6.931   7.154   4.026
12764TIP3    H138237   7.024   7.176   4.012
12764TIP3    H238238   6.921   7.068   3.987
12765TIP3   OH238239   6.842   7.765   4.445
12765TIP3    H138240   6.778   7.706   4.406
12765TIP3    H238241   6.889   7.710   4.508
12766TIP3   OH238242   6.978   7.613   4.631
12766TIP3    H138243   6.965   7.542   4.694
12766TIP3    H238244   7.029   7.678   4.680
12767TIP3   OH238245   0.042   6.664   3.726
12767TIP3    H138246   0.008   6.716   3.653
12767TIP3    H238247   0.002   6.578   3.714
12768TIP3   OH238248   0.040   6.943   4.250
12768TIP3    H138249   0.030   6.848   4.242
12768TIP3    H238250   0.041   6.958   4.345
12769TIP3   OH238251   7.161   7.025   4.996
12769TIP3    H138252   7.152   6.991   4.907
12769TIP3    H238253   7.255   7.021   5.013
12770TIP3   OH238254   8.501   6.375   3.761
12770TIP3    H138255   8.526   6.302   3.703
12770TIP3    H238256   8.405   6.378   3.754
12771TIP3   OH238257   0.033   6.671   4.164
12771TIP3    H138258   0.087   6.598   4.195
12771TIP3    H238259   0.087   6.713   4.097
12772TIP3   OH238260   7.368   6.689   5.683
12772TIP3    H138261   7.463   6.688   5.688
12772TIP3    H238262   7.342   6.602   5.712
12773TIP3   OH238263   7.351   6.400   5.001
12773TIP3    H138264   7.410   6.330   5.029
12773TIP3    H238265   7.406   6.478   4.998
12774TIP3   OH238266   7.142   6.680   5.070
12774TIP3    H138267   7.190   6.675   4.987
12774TIP3    H238268   7.185   6.751   5.118
12775TIP3   OH238269   7.130   6.182   4.583
12775TIP3    H138270   7.038   6.174   4.610
12775TIP3    H238271   7.127   6.237   4.505
12776TIP3   OH238272   7.349   6.246   5.399
12776TIP3    H138273   7.345   6.273   5.491
12776TIP3    H238274   7.272   6.287   5.358
12777TIP3   OH238275   7.159   7.764   4.790
12777TIP3    H138276   7.184   7.735   4.878
12777TIP3    H238277   7.224   7.725   4.732
12778TIP3   OH238278   7.343   7.636   4.644
12778TIP3    H138279   7.356   7.554   4.692
12778TIP3    H238280   7.431   7.671   4.632
12779TIP3   OH238281   7.600   7.713   4.644
12779TIP3    H138282   7.640   7.626   4.645
12779TIP3    H238283   7.646   7.761   4.713
12780TIP3   OH238284   8.203   6.377   4.730
12780TIP3    H138285   8.154   6.296   4.742
12780TIP3    H238286   8.269   6.355   4.664
12781TIP3   OH238287   0.218   6.279   4.642
12781TIP3    H138288   0.254   6.325   4.566
12781TIP3    H238289   0.123   6.289   4.632
12782TIP3   OH238290   0.336   6.367   4.411
12782TIP3    H138291   0.364   6.303   4.345
12782TIP3    H238292   0.370   6.451   4.380
12783TIP3   OH238293   7.415   6.100   4.784
12783TIP3    H138294   7.325   6.067   4.779
12783TIP3    H238295   7.467   6.036   4.735
12784TIP3   OH238296   7.221   5.975   4.397
12784TIP3    H138297   7.259   6.026   4.325
12784TIP3    H238298   7.202   6.040   4.464
12785TIP3   OH238299   8.439   6.274   4.607
12785TIP3    H138300   8.435   6.228   4.523
12785TIP3    H238301   8.422   6.206   4.673
12786TIP3   OH238302   8.454   6.221   4.178
12786TIP3    H138303   8.366   6.252   4.201
12786TIP3    H238304   8.460   6.134   4.218
12787TIP3   OH238305   6.941   7.549   4.177
12787TIP3    H138306   6.859   7.512   4.145
12787TIP3    H238307   6.936   7.642   4.154
12788TIP3   OH238308   7.350   6.129   4.163
12788TIP3    H138309   7.395   6.072   4.101
12788TIP3    H238310   7.418   6.187   4.197
12789TIP3   OH238311   7.860   6.307   4.258
12789TIP3    H138312   7.893   6.253   4.330
12789TIP3    H238313   7.883   6.396   4.283
12790TIP3   OH238314   7.712   7.725   3.775
12790TIP3    H138315   7.783   7.782   3.745
12790TIP3    H238316   7.668   7.697   3.695
12791TIP3   OH238317   7.652   6.405   5.614
12791TIP3    H138318   7.575   6.367   5.656
12791TIP3    H238319   7.725   6.374   5.667
12792TIP3   OH238320   7.893   6.353   5.755
12792TIP3    H138321   7.972   6.373   5.705
12792TIP3    H238322   7.913   6.270   5.799
12793TIP3   OH238323   7.009   7.551   3.825
12793TIP3    H138324   7.013   7.596   3.909
12793TIP3    H238325   7.092   7.504   3.819
12794TIP3   OH238326   1.393   7.433   6.419
12794TIP3    H138327   1.422   7.513   6.463
12794TIP3    H238328   1.422   7.444   6.328
12795TIP3   OH238329   0.835   7.331   6.042
12795TIP3    H138330   0.892   7.346   6.117
12795TIP3    H238331   0.863   7.396   5.977
12796TIP3   OH238332   1.467   7.632   6.594
12796TIP3    H138333   1.413   7.707   6.568
12796TIP3    H238334   1.441   7.614   6.685
12797TIP3   OH238335   1.023   7.395   6.230
12797TIP3    H138336   1.040   7.311   6.273
12797TIP3    H238337   1.090   7.454   6.266
12798TIP3   OH238338   1.194   7.352   6.599
12798TIP3    H138339   1.109   7.378   6.563
12798TIP3    H238340   1.257   7.371   6.529
12799TIP3   OH238341   1.117   6.934   5.684
12799TIP3    H138342   1.038   6.947   5.737
12799TIP3    H238343   1.133   7.019   5.643
12800TIP3   OH238344   1.155   7.554   5.578
12800TIP3    H138345   1.094   7.511   5.519
12800TIP3    H238346   1.150   7.647   5.555
12801TIP3   OH238347   1.264   7.531   6.794
12801TIP3    H138348   1.184   7.530   6.847
12801TIP3    H238349   1.249   7.465   6.727
12802TIP3   OH238350   0.926   7.739   6.218
12802TIP3    H138351   0.867   7.663   6.216
12802TIP3    H238352   1.008   7.704   6.254
12803TIP3   OH238353   0.942   7.835   5.236
12803TIP3    H138354   0.887   7.785   5.176
12803TIP3    H238355   0.887   7.909   5.262
12804TIP3   OH238356   1.064   8.009   5.588
12804TIP3    H138357   1.141   8.064   5.576
12804TIP3    H238358   1.080   7.965   5.671
12805TIP3   OH238359   1.179   7.879   5.796
12805TIP3    H138360   1.120   7.833   5.855
12805TIP3    H238361   1.247   7.915   5.853
12806TIP3   OH238362   1.114   7.789   5.441
12806TIP3    H138363   1.050   7.792   5.370
12806TIP3    H238364   1.088   7.860   5.499
12807TIP3   OH238365   0.996   7.458   5.380
12807TIP3    H138366   0.932   7.506   5.327
12807TIP3    H238367   0.966   7.367   5.377
12808TIP3   OH238368   1.022   7.731   5.955
12808TIP3    H138369   0.998   7.642   5.929
12808TIP3    H238370   0.982   7.742   6.041
12809TIP3   OH238371   0.927   7.192   5.399
12809TIP3    H138372   1.014   7.183   5.440
12809TIP3    H238373   0.889   7.104   5.406
12810TIP3   OH238374   1.000   7.463   5.853
12810TIP3    H138375   1.034   7.374   5.867
12810TIP3    H238376   1.036   7.489   5.768
12811TIP3   OH238377   1.153   7.633   6.339
12811TIP3    H138378   1.235   7.663   6.301
12811TIP3    H238379   1.155   7.665   6.430
12812TIP3   OH238380   7.403   3.382   0.164
12812TIP3    H138381   7.429   3.303   0.117
12812TIP3    H238382   7.348   3.430   0.103
12813TIP3   OH238383   1.107   7.200   5.869
12813TIP3    H138384   1.147   7.194   5.956
12813TIP3    H238385   1.037   7.136   5.870
12814TIP3   OH238386   1.614   7.447   6.864
12814TIP3    H138387   1.557   7.515   6.899
12814TIP3    H238388   1.553   7.381   6.830
12815TIP3   OH238389   1.176   7.144   5.499
12815TIP3    H138390   1.219   7.069   5.459
12815TIP3    H238391   1.244   7.211   5.506
12816TIP3   OH238392   1.436   7.251   6.774
12816TIP3    H138393   1.346   7.239   6.745
12816TIP3    H238394   1.474   7.163   6.774
12817TIP3   OH238395   1.185   7.060   6.327
12817TIP3    H138396   1.224   7.106   6.253
12817TIP3    H238397   1.091   7.077   6.319
12818TIP3   OH238398   1.266   7.165   6.092
12818TIP3    H138399   1.334   7.110   6.053
12818TIP3    H238400   1.297   7.255   6.076
12819TIP3   OH238401   0.924   7.101   6.287
12819TIP3    H138402   0.839   7.128   6.253
12819TIP3    H238403   0.904   7.024   6.340
12820TIP3   OH238404   0.912   6.989   5.863
12820TIP3    H138405   0.830   7.036   5.880
12820TIP3    H238406   0.900   6.904   5.906
12821TIP3   OH238407   5.215   0.126   5.501
12821TIP3    H138408   5.180   0.212   5.477
12821TIP3    H238409   5.146   0.064   5.474
12822TIP3   OH238410   5.216   0.138   5.882
12822TIP3    H138411   5.253   0.119   5.969
12822TIP3    H238412   5.174   0.056   5.855
12823TIP3   OH238413   4.542   0.057   6.253
12823TIP3    H138414   4.545  -0.022   6.308
12823TIP3    H238415   4.620   0.051   6.198
12824TIP3   OH238416   5.433   0.442   5.570
12824TIP3    H138417   5.429   0.369   5.632
12824TIP3    H238418   5.486   0.508   5.613
12825TIP3   OH238419   4.562   0.362   6.054
12825TIP3    H138420   4.517   0.294   6.004
12825TIP3    H238421   4.639   0.384   6.001
12826TIP3   OH238422   1.360   7.662   5.745
12826TIP3    H138423   1.322   7.746   5.769
12826TIP3    H238424   1.285   7.608   5.718
12827TIP3   OH238425   1.419   7.947   5.913
12827TIP3    H138426   1.460   7.872   5.958
12827TIP3    H238427   1.492   8.004   5.891
12828TIP3   OH238428   5.033   0.356   5.915
12828TIP3    H138429   5.076   0.276   5.885
12828TIP3    H238430   5.105   0.413   5.944
12829TIP3   OH238431   3.196   7.703   5.923
12829TIP3    H138432   3.224   7.784   5.965
12829TIP3    H238433   3.216   7.715   5.830
12830TIP3   OH238434   2.593   7.879   5.953
12830TIP3    H138435   2.635   7.797   5.977
12830TIP3    H238436   2.559   7.864   5.865
12831TIP3   OH238437   1.931   7.542   5.917
12831TIP3    H138438   1.911   7.615   5.858
12831TIP3    H238439   1.884   7.467   5.879
12832TIP3   OH238440   2.629   7.634   5.541
12832TIP3    H138441   2.694   7.618   5.609
12832TIP3    H238442   2.680   7.668   5.467
12833TIP3   OH238443   1.564   7.742   6.031
12833TIP3    H138444   1.643   7.721   6.081
12833TIP3    H238445   1.573   7.691   5.951
12834TIP3   OH238446   2.000   7.938   5.832
12834TIP3    H138447   2.093   7.918   5.842
12834TIP3    H238448   1.961   7.857   5.798
12835TIP3   OH238449   3.266   7.914   6.093
12835TIP3    H138450   3.184   7.956   6.067
12835TIP3    H238451   3.272   7.928   6.187
12836TIP3   OH238452   1.925   7.525   6.359
12836TIP3    H138453   1.866   7.559   6.291
12836TIP3    H238454   1.876   7.537   6.440
12837TIP3   OH238455   5.095   0.329   5.363
12837TIP3    H138456   5.049   0.330   5.278
12837TIP3    H238457   5.124   0.419   5.375
12838TIP3   OH238458   4.868   0.298   6.150
12838TIP3    H138459   4.821   0.369   6.195
12838TIP3    H238460   4.904   0.340   6.072
12839TIP3   OH238461   2.830   7.640   5.721
12839TIP3    H138462   2.814   7.592   5.803
12839TIP3    H238463   2.881   7.717   5.748
12840TIP3   OH238464   1.801   7.639   6.139
12840TIP3    H138465   1.859   7.710   6.166
12840TIP3    H238466   1.847   7.597   6.066
12841TIP3   OH238467   4.107   0.151   5.507
12841TIP3    H138468   4.055   0.175   5.431
12841TIP3    H238469   4.118   0.233   5.556
12842TIP3   OH238470   2.987   7.604   6.090
12842TIP3    H138471   2.899   7.627   6.059
12842TIP3    H238472   3.046   7.634   6.020
12843TIP3   OH238473   2.276   7.239   6.076
12843TIP3    H138474   2.263   7.145   6.092
12843TIP3    H238475   2.202   7.281   6.119
12844TIP3   OH238476   5.464   0.456   5.287
12844TIP3    H138477   5.436   0.376   5.242
12844TIP3    H238478   5.473   0.430   5.378
12845TIP3   OH238479   5.752   0.597   6.072
12845TIP3    H138480   5.732   0.520   6.019
12845TIP3    H238481   5.771   0.666   6.008
12846TIP3   OH238482   5.045  -0.014   5.332
12846TIP3    H138483   4.966   0.039   5.318
12846TIP3    H238484   5.090  -0.013   5.248
12847TIP3   OH238485   2.171   7.792   5.040
12847TIP3    H138486   2.232   7.845   5.092
12847TIP3    H238487   2.227   7.730   4.992
12848TIP3   OH238488   5.949   0.242   5.915
12848TIP3    H138489   5.866   0.287   5.924
12848TIP3    H238490   5.979   0.263   5.827
12849TIP3   OH238491   5.395   0.066   5.306
12849TIP3    H138492   5.339   0.087   5.381
12849TIP3    H238493   5.478   0.041   5.345
12850TIP3   OH238494   5.623   0.115   6.213
12850TIP3    H138495   5.626   0.193   6.268
12850TIP3    H238496   5.538   0.119   6.170
12851TIP3   OH238497   4.636   0.069   5.702
12851TIP3    H138498   4.594   0.010   5.640
12851TIP3    H238499   4.707   0.018   5.740
12852TIP3   OH238500   4.770   0.447   5.905
12852TIP3    H138501   4.730   0.444   5.819
12852TIP3    H238502   4.862   0.426   5.889
12853TIP3   OH238503   4.752   0.052   6.074
12853TIP3    H138504   4.787   0.025   5.989
12853TIP3    H238505   4.795   0.136   6.092
12854TIP3   OH238506   2.395   7.950   5.126
12854TIP3    H138507   2.454   8.005   5.176
12854TIP3    H238508   2.422   7.962   5.035
12855TIP3   OH238509   2.913   7.189   5.174
12855TIP3    H138510   2.833   7.207   5.224
12855TIP3    H238511   2.929   7.269   5.124
12856TIP3   OH238512   1.661   7.927   5.510
12856TIP3    H138513   1.592   7.968   5.458
12856TIP3    H238514   1.620   7.850   5.549
12857TIP3   OH238515   5.880   0.073   6.390
12857TIP3    H138516   5.793   0.090   6.352
12857TIP3    H238517   5.894  -0.020   6.377
12858TIP3   OH238518   2.039   7.321   6.203
12858TIP3    H138519   1.955   7.287   6.172
12858TIP3    H238520   2.016   7.399   6.253
12859TIP3   OH238521   2.576   7.433   6.398
12859TIP3    H138522   2.644   7.406   6.459
12859TIP3    H238523   2.494   7.414   6.443
12860TIP3   OH238524   2.818   7.871   6.317
12860TIP3    H138525   2.765   7.862   6.396
12860TIP3    H238526   2.790   7.954   6.279
12861TIP3   OH238527   2.477   7.975   4.869
12861TIP3    H138528   2.441   7.954   4.783
12861TIP3    H238529   2.539   8.046   4.853
12862TIP3   OH238530   2.168   7.374   5.164
12862TIP3    H138531   2.149   7.375   5.258
12862TIP3    H238532   2.137   7.288   5.135
12863TIP3   OH238533   1.973   7.840   6.220
12863TIP3    H138534   1.935   7.861   6.305
12863TIP3    H238535   1.960   7.919   6.167
12864TIP3   OH238536   1.854   7.723   5.732
12864TIP3    H138537   1.765   7.697   5.756
12864TIP3    H238538   1.869   7.682   5.647
12865TIP3   OH238539   2.351   7.805   5.462
12865TIP3    H138540   2.298   7.872   5.419
12865TIP3    H238541   2.406   7.770   5.392
12866TIP3   OH238542   5.358   0.064   6.530
12866TIP3    H138543   5.339   0.000   6.598
12866TIP3    H238544   5.444   0.100   6.554
12867TIP3   OH238545   2.505   7.831   5.695
12867TIP3    H138546   2.441   7.862   5.631
12867TIP3    H238547   2.543   7.753   5.656
12868TIP3   OH238548   1.793   7.861   6.434
12868TIP3    H138549   1.836   7.901   6.510
12868TIP3    H238550   1.766   7.774   6.464
12869TIP3   OH238551   1.393   7.382   6.006
12869TIP3    H138552   1.463   7.416   6.061
12869TIP3    H238553   1.437   7.352   5.927
12870TIP3   OH238554   1.351   7.365   5.519
12870TIP3    H138555   1.414   7.403   5.457
12870TIP3    H238556   1.293   7.438   5.541
12871TIP3   OH238557   5.348   0.063   6.119
12871TIP3    H138558   5.383  -0.004   6.060
12871TIP3    H238559   5.317   0.015   6.195
12872TIP3   OH238560   2.189   7.546   5.796
12872TIP3    H138561   2.108   7.543   5.846
12872TIP3    H238562   2.258   7.536   5.861
12873TIP3   OH238563   1.619   7.601   5.800
12873TIP3    H138564   1.528   7.612   5.774
12873TIP3    H238565   1.640   7.510   5.781
12874TIP3   OH238566   1.888   7.591   5.496
12874TIP3    H138567   1.980   7.606   5.477
12874TIP3    H238568   1.843   7.615   5.414
12875TIP3   OH238569   2.676   7.618   5.998
12875TIP3    H138570   2.649   7.633   6.088
12875TIP3    H238571   2.610   7.559   5.962
12876TIP3   OH238572   1.734   7.632   5.276
12876TIP3    H138573   1.647   7.603   5.249
12876TIP3    H238574   1.775   7.664   5.196
12877TIP3   OH238575   2.267   7.875   5.895
12877TIP3    H138576   2.337   7.832   5.846
12877TIP3    H238577   2.268   7.832   5.980
12878TIP3   OH238578   1.787   7.355   5.777
12878TIP3    H138579   1.749   7.282   5.827
12878TIP3    H238580   1.837   7.312   5.708
12879TIP3   OH238581   2.243   7.776   6.175
12879TIP3    H138582   2.154   7.808   6.194
12879TIP3    H238583   2.300   7.832   6.227
12880TIP3   OH238584   4.812   0.130   5.286
12880TIP3    H138585   4.737   0.073   5.269
12880TIP3    H238586   4.790   0.176   5.367
12881TIP3   OH238587   5.713   0.378   5.905
12881TIP3    H138588   5.740   0.427   5.828
12881TIP3    H238589   5.630   0.337   5.879
12882TIP3   OH238590   2.431   7.471   5.143
12882TIP3    H138591   2.336   7.457   5.150
12882TIP3    H238592   2.444   7.563   5.168
12883TIP3   OH238593   5.253   0.469   6.274
12883TIP3    H138594   5.295   0.426   6.348
12883TIP3    H238595   5.175   0.509   6.312
12884TIP3   OH238596   2.508   7.720   5.244
12884TIP3    H138597   2.602   7.724   5.260
12884TIP3    H238598   2.489   7.799   5.193
12885TIP3   OH238599   4.482   0.117   5.929
12885TIP3    H138600   4.537   0.108   5.851
12885TIP3    H238601   4.538   0.085   6.001
12886TIP3   OH238602   4.920   0.319   5.122
12886TIP3    H138603   4.883   0.390   5.174
12886TIP3    H238604   4.888   0.239   5.164
12887TIP3   OH238605   5.116   0.195   6.582
12887TIP3    H138606   5.084   0.175   6.494
12887TIP3    H238607   5.210   0.172   6.578
12888TIP3   OH238608   2.944   7.815   5.075
12888TIP3    H138609   2.886   7.767   5.017
12888TIP3    H238610   2.945   7.904   5.040
12889TIP3   OH238611   6.001   0.646   6.162
12889TIP3    H138612   5.907   0.651   6.151
12889TIP3    H238613   6.035   0.628   6.074
12890TIP3   OH238614   5.476   0.248   5.807
12890TIP3    H138615   5.387   0.224   5.831
12890TIP3    H238616   5.513   0.167   5.771
12891TIP3   OH238617   1.341   7.790   5.290
12891TIP3    H138618   1.384   7.873   5.308
12891TIP3    H238619   1.264   7.790   5.346
12892TIP3   OH238620   4.738   0.254   5.523
12892TIP3    H138621   4.699   0.332   5.562
12892TIP3    H238622   4.716   0.184   5.585
12893TIP3   OH238623   5.272   0.451   6.000
12893TIP3    H138624   5.260   0.458   6.094
12893TIP3    H238625   5.354   0.402   5.990
12894TIP3   OH238626   5.274   0.279   4.861
12894TIP3    H138627   5.307   0.266   4.949
12894TIP3    H238628   5.195   0.332   4.872
12895TIP3   OH238629   1.763   7.600   6.575
12895TIP3    H138630   1.668   7.597   6.585
12895TIP3    H238631   1.797   7.545   6.646
12896TIP3   OH238632   5.401   0.251   5.106
12896TIP3    H138633   5.393   0.182   5.172
12896TIP3    H238634   5.494   0.255   5.086
12897TIP3   OH238635   4.570   0.263   4.937
12897TIP3    H138636   4.622   0.188   4.912
12897TIP3    H238637   4.620   0.306   5.006
12898TIP3   OH238638   4.289   0.021   5.357
12898TIP3    H138639   4.230   0.056   5.423
12898TIP3    H238640   4.301   0.093   5.295
12899TIP3   OH238641   2.609   7.668   6.258
12899TIP3    H138642   2.683   7.709   6.302
12899TIP3    H238643   2.590   7.590   6.309
12900TIP3   OH238644   2.485   7.422   5.425
12900TIP3    H138645   2.472   7.443   5.332
12900TIP3    H238646   2.524   7.501   5.462
12901TIP3   OH238647   2.170   7.606   5.527
12901TIP3    H138648   2.233   7.676   5.509
12901TIP3    H238649   2.173   7.595   5.622
12902TIP3   OH238650   2.439   7.917   6.325
12902TIP3    H138651   2.461   7.975   6.398
12902TIP3    H238652   2.492   7.839   6.339
12903TIP3   OH238653   2.313   7.328   5.625
12903TIP3    H138654   2.307   7.402   5.684
12903TIP3    H238655   2.373   7.357   5.556
12904TIP3   OH238656   1.826   7.325   5.417
12904TIP3    H138657   1.824   7.415   5.449
12904TIP3    H238658   1.919   7.303   5.412
12905TIP3   OH238659   3.079   7.818   6.306
12905TIP3    H138660   2.985   7.825   6.322
12905TIP3    H238661   3.086   7.767   6.226
12906TIP3   OH238662   2.731   8.014   5.702
12906TIP3    H138663   2.655   7.957   5.714
12906TIP3    H238664   2.802   7.969   5.748
12907TIP3   OH238665   4.300   0.234   5.165
12907TIP3    H138666   4.328   0.326   5.157
12907TIP3    H238667   4.362   0.186   5.111
12908TIP3   OH238668   1.391   7.523   5.267
12908TIP3    H138669   1.389   7.617   5.286
12908TIP3    H238670   1.302   7.493   5.285
12909TIP3   OH238671   1.776   7.237   6.172
12909TIP3    H138672   1.746   7.204   6.087
12909TIP3    H238673   1.767   7.163   6.232
12910TIP3   OH238674   4.427   0.023   5.039
12910TIP3    H138675   4.474  -0.006   5.118
12910TIP3    H238676   4.495   0.031   4.972
12911TIP3   OH238677   4.843   0.209   4.853
12911TIP3    H138678   4.894   0.237   4.929
12911TIP3    H238679   4.879   0.124   4.829
12912TIP3   OH238680   5.535   0.474   6.205
12912TIP3    H138681   5.589   0.543   6.166
12912TIP3    H238682   5.448   0.512   6.212
12913TIP3   OH238683   1.774   7.958   5.239
12913TIP3    H138684   1.750   7.924   5.325
12913TIP3    H238685   1.817   7.884   5.195
12914TIP3   OH238686   4.896  -0.004   6.461
12914TIP3    H138687   4.870   0.073   6.512
12914TIP3    H238688   4.950   0.031   6.391
12915TIP3   OH238689   1.890   7.753   5.080
12915TIP3    H138690   1.867   7.759   4.987
12915TIP3    H238691   1.986   7.756   5.081
12916TIP3   OH238692   5.406   0.388   6.551
12916TIP3    H138693   5.498   0.413   6.557
12916TIP3    H238694   5.383   0.362   6.640
12917TIP3   OH238695   5.541   0.081   4.742
12917TIP3    H138696   5.519   0.027   4.667
12917TIP3    H238697   5.521   0.170   4.715
12918TIP3   OH238698   2.193   7.808   6.582
12918TIP3    H138699   2.191   7.728   6.528
12918TIP3    H238700   2.149   7.874   6.528
12919TIP3   OH238701   2.185   7.599   6.399
12919TIP3    H138702   2.211   7.639   6.316
12919TIP3    H238703   2.093   7.576   6.386
12920TIP3   OH238704   5.042   0.130   6.282
12920TIP3    H138705   5.125   0.137   6.235
12920TIP3    H238706   4.984   0.192   6.238
12921TIP3   OH238707   5.639   0.080   6.632
12921TIP3    H138708   5.686  -0.003   6.637
12921TIP3    H238709   5.708   0.147   6.627
12922TIP3   OH238710   5.675   0.335   6.385
12922TIP3    H138711   5.611   0.384   6.333
12922TIP3    H238712   5.759   0.360   6.347
12923TIP3   OH238713   2.050   7.907   6.803
12923TIP3    H138714   1.992   7.832   6.813
12923TIP3    H238715   2.091   7.894   6.717
12924TIP3   OH238716   2.313   7.363   6.476
12924TIP3    H138717   2.266   7.444   6.452
12924TIP3    H238718   2.248   7.294   6.465
12925TIP3   OH238719   2.444   7.860   6.678
12925TIP3    H138720   2.423   7.842   6.770
12925TIP3    H238721   2.362   7.846   6.632
12926TIP3   OH238722   2.681   7.805   6.539
12926TIP3    H138723   2.606   7.818   6.596
12926TIP3    H238724   2.752   7.780   6.598
12927TIP3   OH238725   2.917   7.755   6.693
12927TIP3    H138726   2.927   7.660   6.700
12927TIP3    H238727   2.908   7.785   6.783
12928TIP3   OH238728   1.895   7.699   6.881
12928TIP3    H138729   1.878   7.617   6.834
12928TIP3    H238730   1.942   7.672   6.960
12929TIP3   OH238731   2.411   7.367   6.732
12929TIP3    H138732   2.475   7.297   6.726
12929TIP3    H238733   2.368   7.368   6.646
12930TIP3   OH238734   2.479   7.585   6.887
12930TIP3    H138735   2.464   7.511   6.828
12930TIP3    H238736   2.401   7.640   6.878
12931TIP3   OH238737   4.032   0.185   5.124
12931TIP3    H138738   4.124   0.190   5.149
12931TIP3    H238739   4.013   0.091   5.121
12932TIP3   OH238740   5.673   0.250   5.089
12932TIP3    H138741   5.740   0.308   5.053
12932TIP3    H238742   5.715   0.210   5.166
12933TIP3   OH238743   5.806   0.122   5.288
12933TIP3    H138744   5.744   0.080   5.348
12933TIP3    H238745   5.874   0.157   5.345
12934TIP3   OH238746   5.848   0.513   5.713
12934TIP3    H138747   5.912   0.456   5.670
12934TIP3    H238748   5.852   0.595   5.664
12935TIP3   OH238749   5.740   0.036   4.928
12935TIP3    H138750   5.672   0.038   4.860
12935TIP3    H238751   5.716   0.107   4.987
12936TIP3   OH238752   2.782   7.718   4.883
12936TIP3    H138753   2.735   7.756   4.808
12936TIP3    H238754   2.761   7.625   4.878
12937TIP3   OH238755   2.787   7.994   5.435
12937TIP3    H138756   2.796   7.899   5.424
12937TIP3    H238757   2.773   8.006   5.529
12938TIP3   OH238758   4.256   0.025   6.184
12938TIP3    H138759   4.246   0.030   6.089
12938TIP3    H238760   4.344   0.060   6.201
12939TIP3   OH238761   5.918   0.409   6.292
12939TIP3    H138762   5.985   0.341   6.280
12939TIP3    H238763   5.936   0.473   6.223
12940TIP3   OH238764   6.097   0.205   6.296
12940TIP3    H138765   6.021   0.163   6.336
12940TIP3    H238766   6.171   0.148   6.318
12941TIP3   OH238767   2.726   7.453   4.870
12941TIP3    H138768   2.799   7.422   4.923
12941TIP3    H238769   2.654   7.393   4.891
12942TIP3   OH238770   2.787   7.712   5.321
12942TIP3    H138771   2.823   7.625   5.338
12942TIP3    H238772   2.842   7.747   5.251
12943TIP3   OH238773   2.947   7.885   5.821
12943TIP3    H138774   3.029   7.907   5.777
12943TIP3    H238775   2.956   7.920   5.909
12944TIP3   OH238776   5.848   0.018   6.049
12944TIP3    H138777   5.773   0.048   6.101
12944TIP3    H238778   5.881   0.098   6.007
12945TIP3   OH238779   3.471   7.629   6.603
12945TIP3    H138780   3.528   7.561   6.566
12945TIP3    H238781   3.437   7.676   6.527
12946TIP3   OH238782   2.892   7.462   5.365
12946TIP3    H138783   2.940   7.448   5.446
12946TIP3    H238784   2.831   7.388   5.360
12947TIP3   OH238785   1.594   7.447   6.184
12947TIP3    H138786   1.653   7.371   6.192
12947TIP3    H238787   1.653   7.522   6.176
12948TIP3   OH238788   1.393   7.746   6.260
12948TIP3    H138789   1.440   7.727   6.178
12948TIP3    H238790   1.397   7.841   6.268
12949TIP3   OH238791   3.332   7.758   6.409
12949TIP3    H138792   3.250   7.803   6.431
12949TIP3    H238793   3.304   7.686   6.352
12950TIP3   OH238794   2.971   7.395   4.995
12950TIP3    H138795   3.009   7.324   4.943
12950TIP3    H238796   3.037   7.464   4.993
12951TIP3   OH238797   1.376   7.223   5.750
12951TIP3    H138798   1.289   7.218   5.789
12951TIP3    H238799   1.366   7.284   5.678
12952TIP3   OH238800   1.600   7.302   6.553
12952TIP3    H138801   1.552   7.295   6.636
12952TIP3    H238802   1.536   7.339   6.492
12953TIP3   OH238803   3.235   7.519   6.292
12953TIP3    H138804   3.145   7.511   6.258
12953TIP3    H238805   3.271   7.430   6.284
12954TIP3   OH238806   2.438   7.434   5.911
12954TIP3    H138807   2.397   7.366   5.964
12954TIP3    H238808   2.513   7.391   5.869
12955TIP3   OH238809   2.960   7.323   5.815
12955TIP3    H138810   2.996   7.371   5.741
12955TIP3    H238811   2.865   7.337   5.809
12956TIP3   OH238812   3.060   7.419   5.578
12956TIP3    H138813   3.130   7.365   5.542
12956TIP3    H238814   3.090   7.509   5.566
12957TIP3   OH238815   1.686   7.143   5.925
12957TIP3    H138816   1.595   7.113   5.931
12957TIP3    H238817   1.737   7.062   5.923
12958TIP3   OH238818   1.459   7.023   5.576
12958TIP3    H138819   1.500   7.078   5.510
12958TIP3    H238820   1.439   7.082   5.648
12959TIP3   OH238821   2.133   7.182   5.806
12959TIP3    H138822   2.191   7.229   5.745
12959TIP3    H238823   2.157   7.215   5.893
12960TIP3   OH238824   2.677   7.324   5.790
12960TIP3    H138825   2.679   7.284   5.703
12960TIP3    H238826   2.666   7.250   5.850
12961TIP3   OH238827   2.707   7.250   5.356
12961TIP3    H138828   2.623   7.293   5.372
12961TIP3    H238829   2.699   7.165   5.399
12962TIP3   OH238830   1.603   7.191   5.322
12962TIP3    H138831   1.646   7.111   5.294
12962TIP3    H238832   1.672   7.242   5.365
12963TIP3   OH238833   2.109   7.357   5.431
12963TIP3    H138834   2.157   7.301   5.492
12963TIP3    H238835   2.128   7.446   5.460
12964TIP3   OH238836   1.909   7.434   6.794
12964TIP3    H138837   1.847   7.392   6.854
12964TIP3    H238838   1.994   7.422   6.835
12965TIP3   OH238839   2.154   7.411   6.930
12965TIP3    H138840   2.236   7.388   6.887
12965TIP3    H238841   2.140   7.341   6.993
12966TIP3   OH238842   2.976   7.486   6.725
12966TIP3    H138843   2.989   7.456   6.815
12966TIP3    H238844   3.062   7.480   6.684
12967TIP3   OH238845   7.011   0.381   4.989
12967TIP3    H138846   6.978   0.468   4.963
12967TIP3    H238847   6.943   0.320   4.960
12968TIP3   OH238848   7.012   0.395   5.368
12968TIP3    H138849   7.047   0.374   5.454
12968TIP3    H238850   6.970   0.314   5.339
12969TIP3   OH238851   6.307   0.291   5.732
12969TIP3    H138852   6.335   0.222   5.792
12969TIP3    H238853   6.383   0.348   5.723
12970TIP3   OH238854   7.229   0.699   5.057
12970TIP3    H138855   7.227   0.626   5.119
12970TIP3    H238856   7.285   0.764   5.099
12971TIP3   OH238857   6.339   0.640   5.531
12971TIP3    H138858   6.308   0.555   5.502
12971TIP3    H238859   6.421   0.654   5.483
12972TIP3   OH238860   3.152   7.916   5.233
12972TIP3    H138861   3.110   8.000   5.254
12972TIP3    H238862   3.083   7.864   5.192
12973TIP3   OH238863   6.042   0.191   5.415
12973TIP3    H138864   6.089   0.113   5.447
12973TIP3    H238865   6.110   0.244   5.374
12974TIP3   OH238866   6.828   0.613   5.405
12974TIP3    H138867   6.871   0.534   5.372
12974TIP3    H238868   6.900   0.670   5.434
12975TIP3   OH238869   4.992   7.957   5.409
12975TIP3    H138870   5.019   8.038   5.452
12975TIP3    H238871   5.016   7.970   5.317
12976TIP3   OH238872   7.221   0.122   5.441
12976TIP3    H138873   7.264   0.040   5.464
12976TIP3    H238874   7.188   0.107   5.352
12977TIP3   OH238875   3.727   7.798   5.405
12977TIP3    H138876   3.708   7.871   5.346
12977TIP3    H238877   3.681   7.724   5.366
12978TIP3   OH238878   4.425   7.891   5.028
12978TIP3    H138879   4.491   7.876   5.096
12978TIP3    H238880   4.475   7.925   4.953
12979TIP3   OH238881   3.360   7.998   5.516
12979TIP3    H138882   3.440   7.982   5.566
12979TIP3    H238883   3.370   7.946   5.437
12980TIP3   OH238884   6.632   0.181   5.314
12980TIP3    H138885   6.724   0.160   5.325
12980TIP3    H238886   6.592   0.100   5.281
12981TIP3   OH238887   7.894   0.152   5.584
12981TIP3    H138888   7.812   0.196   5.565
12981TIP3    H238889   7.926   0.192   5.665
12982TIP3   OH238890   3.719   7.784   5.846
12982TIP3    H138891   3.663   7.819   5.776
12982TIP3    H238892   3.670   7.799   5.926
12983TIP3   OH238893   6.893   0.583   4.848
12983TIP3    H138894   6.842   0.582   4.767
12983TIP3    H238895   6.915   0.675   4.861
12984TIP3   OH238896   6.658   0.551   5.635
12984TIP3    H138897   6.594   0.614   5.669
12984TIP3    H238898   6.693   0.593   5.556
12985TIP3   OH238899   4.626   7.898   5.208
12985TIP3    H138900   4.614   7.847   5.288
12985TIP3    H238901   4.679   7.973   5.234
12986TIP3   OH238902   3.597   7.897   5.626
12986TIP3    H138903   3.655   7.969   5.651
12986TIP3    H238904   3.642   7.855   5.552
12987TIP3   OH238905   6.485   0.760   5.741
12987TIP3    H138906   6.444   0.753   5.655
12987TIP3    H238907   6.412   0.758   5.803
12988TIP3   OH238908   5.879   0.394   4.977
12988TIP3    H138909   5.845   0.403   4.887
12988TIP3    H238910   5.896   0.484   5.004
12989TIP3   OH238911   4.782   7.858   5.575
12989TIP3    H138912   4.695   7.883   5.543
12989TIP3    H238913   4.842   7.889   5.507
12990TIP3   OH238914   4.072   7.496   5.561
12990TIP3    H138915   4.060   7.402   5.578
12990TIP3    H238916   3.998   7.537   5.605
12991TIP3   OH238917   7.255   0.714   4.774
12991TIP3    H138918   7.233   0.632   4.728
12991TIP3    H238919   7.267   0.688   4.865
12992TIP3   OH238920   7.541   0.852   5.558
12992TIP3    H138921   7.529   0.776   5.501
12992TIP3    H238922   7.571   0.922   5.499
12993TIP3   OH238923   6.843   0.243   4.818
12993TIP3    H138924   6.763   0.294   4.804
12993TIP3    H238925   6.886   0.242   4.733
12994TIP3   OH238926   6.802   0.036   4.527
12994TIP3    H138927   6.865   0.088   4.576
12994TIP3    H238928   6.855  -0.028   4.479
12995TIP3   OH238929   7.745   0.496   5.401
12995TIP3    H138930   7.663   0.543   5.409
12995TIP3    H238931   7.776   0.517   5.313
12996TIP3   OH238932   7.191   0.323   4.793
12996TIP3    H138933   7.135   0.343   4.868
12996TIP3    H238934   7.275   0.298   4.832
12997TIP3   OH238935   7.419   0.372   5.701
12997TIP3    H138936   7.420   0.454   5.750
12997TIP3    H238937   7.335   0.372   5.656
12998TIP3   OH238938   6.429   0.327   5.193
12998TIP3    H138939   6.386   0.269   5.130
12998TIP3    H238940   6.502   0.275   5.227
12999TIP3   OH238941   6.561   0.693   5.397
12999TIP3    H138942   6.523   0.691   5.309
12999TIP3    H238943   6.656   0.690   5.381
13000TIP3   OH238944   6.552   0.306   5.554
13000TIP3    H138945   6.586   0.279   5.469
13000TIP3    H238946   6.596   0.389   5.572
13001TIP3   OH238947   6.736   0.761   5.878
13001TIP3    H138948   6.704   0.848   5.901
13001TIP3    H238949   6.666   0.723   5.825
13002TIP3   OH238950   7.025   0.193   4.611
13002TIP3    H138951   7.083   0.248   4.663
13002TIP3    H238952   7.051   0.210   4.520
13003TIP3   OH238953   6.448   0.411   5.990
13003TIP3    H138954   6.456   0.499   6.027
13003TIP3    H238955   6.356   0.388   5.999
13004TIP3   OH238956   4.709   7.445   4.661
13004TIP3    H138957   4.630   7.464   4.711
13004TIP3    H238958   4.726   7.525   4.611
13005TIP3   OH238959   6.289   0.171   5.003
13005TIP3    H138960   6.222   0.213   4.949
13005TIP3    H238961   6.252   0.085   5.024
13006TIP3   OH238962   6.084   0.556   5.921
13006TIP3    H138963   6.014   0.542   5.857
13006TIP3    H238964   6.116   0.468   5.941
13007TIP3   OH238965   7.678   0.332   5.874
13007TIP3    H138966   7.594   0.347   5.830
13007TIP3    H238967   7.693   0.238   5.864
13008TIP3   OH238968   6.276   0.755   5.915
13008TIP3    H138969   6.327   0.721   5.989
13008TIP3    H238970   6.202   0.695   5.907
13009TIP3   OH238971   3.834   7.577   5.690
13009TIP3    H138972   3.750   7.544   5.659
13009TIP3    H238973   3.812   7.657   5.738
13010TIP3   OH238974   4.373   7.690   5.884
13010TIP3    H138975   4.441   7.662   5.945
13010TIP3    H238976   4.291   7.671   5.930
13011TIP3   OH238977   7.441   0.109   5.802
13011TIP3    H138978   7.392   0.105   5.884
13011TIP3    H238979   7.420   0.195   5.765
13012TIP3   OH238980   7.107   0.230   4.356
13012TIP3    H138981   7.069   0.207   4.271
13012TIP3    H238982   7.187   0.278   4.334
13013TIP3   OH238983   3.980   7.622   4.661
13013TIP3    H138984   3.949   7.622   4.751
13013TIP3    H238985   3.944   7.542   4.622
13014TIP3   OH238986   6.602   0.084   5.704
13014TIP3    H138987   6.554   0.099   5.786
13014TIP3    H238988   6.586   0.163   5.652
13015TIP3   OH238989   3.651   7.978   5.218
13015TIP3    H138990   3.561   7.953   5.241
13015TIP3    H238991   3.665   7.939   5.132
13016TIP3   OH238992   6.981   0.048   4.950
13016TIP3    H138993   6.928   0.115   4.907
13016TIP3    H238994   7.036   0.012   4.880
13017TIP3   OH238995   7.158   0.321   6.032
13017TIP3    H138996   7.133   0.252   6.093
13017TIP3    H238997   7.249   0.340   6.053
13018TIP3   OH238998   7.134   0.074   5.183
13018TIP3    H138999   7.070   0.104   5.117
13018TIP3    H239000   7.172  -0.004   5.144
13019TIP3   OH239001   6.424   0.106   5.914
13019TIP3    H139002   6.449   0.171   5.979
13019TIP3    H239003   6.410   0.026   5.965
13020TIP3   OH239004   3.637   7.601   4.625
13020TIP3    H139005   3.631   7.597   4.721
13020TIP3    H239006   3.561   7.652   4.598
13021TIP3   OH239007   3.183   7.641   5.497
13021TIP3    H139008   3.256   7.673   5.549
13021TIP3    H239009   3.223   7.610   5.415
13022TIP3   OH239010   3.147   7.624   5.013
13022TIP3    H139011   3.195   7.656   4.936
13022TIP3    H239012   3.086   7.695   5.034
13023TIP3   OH239013   7.145   0.319   5.607
13023TIP3    H139014   7.178   0.252   5.548
13023TIP3    H239015   7.113   0.270   5.683
13024TIP3   OH239016   3.986   7.802   5.283
13024TIP3    H139017   3.905   7.799   5.334
13024TIP3    H239018   4.056   7.792   5.347
13025TIP3   OH239019   3.414   7.856   5.287
13025TIP3    H139020   3.323   7.865   5.261
13025TIP3    H239021   3.438   7.766   5.266
13026TIP3   OH239022   3.680   7.851   4.979
13026TIP3    H139023   3.773   7.865   4.958
13026TIP3    H239024   3.634   7.873   4.897
13027TIP3   OH239025   4.472   7.876   5.487
13027TIP3    H139026   4.441   7.891   5.577
13027TIP3    H239027   4.408   7.816   5.449
13028TIP3   OH239028   3.529   7.888   4.753
13028TIP3    H139029   3.458   7.842   4.709
13028TIP3    H239030   3.582   7.924   4.682
13029TIP3   OH239031   6.435   0.660   6.129
13029TIP3    H139032   6.516   0.687   6.172
13029TIP3    H239033   6.370   0.657   6.199
13030TIP3   OH239034   6.897   0.117   5.381
13030TIP3    H139035   6.968   0.077   5.330
13030TIP3    H239036   6.900   0.073   5.465
13031TIP3   OH239037   3.583   7.613   5.262
13031TIP3    H139038   3.546   7.540   5.312
13031TIP3    H239039   3.630   7.571   5.191
13032TIP3   OH239040   6.872   0.017   5.667
13032TIP3    H139041   6.783   0.050   5.681
13032TIP3    H239042   6.928   0.077   5.717
13033TIP3   OH239043   6.610   0.388   4.772
13033TIP3    H139044   6.537   0.329   4.756
13033TIP3    H239045   6.588   0.434   4.853
13034TIP3   OH239046   7.509   0.633   5.390
13034TIP3    H139047   7.537   0.683   5.314
13034TIP3    H239048   7.427   0.593   5.364
13035TIP3   OH239049   4.232   7.727   4.630
13035TIP3    H139050   4.139   7.707   4.639
13035TIP3    H239051   4.240   7.819   4.656
13036TIP3   OH239052   7.019   0.744   5.761
13036TIP3    H139053   7.053   0.692   5.834
13036TIP3    H239054   6.936   0.780   5.794
13037TIP3   OH239055   4.304   7.978   4.733
13037TIP3    H139056   4.398   7.981   4.747
13037TIP3    H239057   4.285   8.056   4.680
13038TIP3   OH239058   6.287   0.381   5.425
13038TIP3    H139059   6.335   0.373   5.343
13038TIP3    H239060   6.343   0.338   5.490
13039TIP3   OH239061   6.720   0.571   4.604
13039TIP3    H139062   6.684   0.644   4.653
13039TIP3    H239063   6.688   0.493   4.650
13040TIP3   OH239064   6.186   0.331   6.055
13040TIP3    H139065   6.193   0.315   6.149
13040TIP3    H239066   6.115   0.274   6.026
13041TIP3   OH239067   6.916   0.443   6.084
13041TIP3    H139068   6.851   0.397   6.030
13041TIP3    H239069   7.000   0.413   6.051
13042TIP3   OH239070   7.572   0.058   4.563
13042TIP3    H139071   7.514   0.009   4.504
13042TIP3    H239072   7.574   0.146   4.527
13043TIP3   OH239073   7.797   0.888   5.651
13043TIP3    H139074   7.704   0.908   5.645
13043TIP3    H239075   7.826   0.878   5.560
13044TIP3   OH239076   7.272   0.504   5.294
13044TIP3    H139077   7.182   0.481   5.317
13044TIP3    H239078   7.309   0.423   5.258
13045TIP3   OH239079   5.969   0.033   4.773
13045TIP3    H139080   6.015   0.115   4.790
13045TIP3    H239081   5.891   0.036   4.829
13046TIP3   OH239082   6.534   0.510   5.011
13046TIP3    H139083   6.492   0.587   5.050
13046TIP3    H239084   6.516   0.440   5.073
13047TIP3   OH239085   7.066   0.705   5.491
13047TIP3    H139086   7.052   0.718   5.585
13047TIP3    H239087   7.150   0.661   5.485
13048TIP3   OH239088   7.066   0.566   4.353
13048TIP3    H139089   7.099   0.543   4.440
13048TIP3    H239090   6.971   0.567   4.363
13049TIP3   OH239091   3.556   7.864   6.061
13049TIP3    H139092   3.461   7.869   6.068
13049TIP3    H239093   3.582   7.801   6.129
13050TIP3   OH239094   7.197   0.508   4.594
13050TIP3    H139095   7.188   0.438   4.659
13050TIP3    H239096   7.290   0.510   4.573
13051TIP3   OH239097   6.402   0.530   4.420
13051TIP3    H139098   6.426   0.440   4.400
13051TIP3    H239099   6.402   0.535   4.516
13052TIP3   OH239100   6.086   0.275   4.847
13052TIP3    H139101   6.020   0.305   4.909
13052TIP3    H239102   6.093   0.345   4.782
13053TIP3   OH239103   4.400   7.929   5.748
13053TIP3    H139104   4.481   7.966   5.782
13053TIP3    H239105   4.387   7.849   5.798
13054TIP3   OH239106   4.281   7.678   4.911
13054TIP3    H139107   4.267   7.697   4.819
13054TIP3    H239108   4.320   7.758   4.947
13055TIP3   OH239109   3.965   7.863   5.013
13055TIP3    H139110   4.029   7.932   4.994
13055TIP3    H239111   3.970   7.852   5.108
13056TIP3   OH239112   7.072   0.162   5.815
13056TIP3    H139113   7.097   0.213   5.892
13056TIP3    H239114   7.123   0.081   5.823
13057TIP3   OH239115   4.110   7.583   5.110
13057TIP3    H139116   4.102   7.658   5.170
13057TIP3    H239117   4.170   7.613   5.042
13058TIP3   OH239118   3.626   7.588   4.901
13058TIP3    H139119   3.619   7.675   4.940
13058TIP3    H239120   3.719   7.566   4.907
13059TIP3   OH239121   7.706   0.063   5.803
13059TIP3    H139122   7.611   0.062   5.811
13059TIP3    H239123   7.724   0.025   5.717
13060TIP3   OH239124   7.360   0.256   5.189
13060TIP3    H139125   7.285   0.199   5.200
13060TIP3    H239126   7.431   0.212   5.235
13061TIP3   OH239127   6.078   0.488   4.661
13061TIP3    H139128   6.103   0.579   4.649
13061TIP3    H239129   6.132   0.440   4.597
13062TIP3   OH239130   3.183   7.777   4.790
13062TIP3    H139131   3.185   7.872   4.789
13062TIP3    H239132   3.103   7.754   4.743
13063TIP3   OH239133   3.572   7.494   5.659
13063TIP3    H139134   3.542   7.462   5.574
13063TIP3    H239135   3.562   7.419   5.718
13064TIP3   OH239136   6.229   0.637   6.314
13064TIP3    H139137   6.256   0.545   6.313
13064TIP3    H239138   6.147   0.638   6.265
13065TIP3   OH239139   6.211   0.293   4.515
13065TIP3    H139140   6.253   0.256   4.593
13065TIP3    H239141   6.279   0.292   4.448
13066TIP3   OH239142   6.853   0.707   6.120
13066TIP3    H139143   6.821   0.725   6.032
13066TIP3    H239144   6.887   0.618   6.115
13067TIP3   OH239145   6.689   0.477   4.326
13067TIP3    H139146   6.685   0.487   4.421
13067TIP3    H239147   6.705   0.383   4.312
13068TIP3   OH239148   7.329   0.739   5.694
13068TIP3    H139149   7.398   0.789   5.651
13068TIP3    H239150   7.252   0.796   5.690
13069TIP3   OH239151   6.356   0.391   6.298
13069TIP3    H139152   6.430   0.345   6.258
13069TIP3    H239153   6.391   0.423   6.381
13070TIP3   OH239154   6.410   0.202   4.726
13070TIP3    H139155   6.383   0.164   4.809
13070TIP3    H239156   6.450   0.129   4.678
13071TIP3   OH239157   6.687   0.269   5.957
13071TIP3    H139158   6.610   0.326   5.961
13071TIP3    H239159   6.738   0.303   5.883
13072TIP3   OH239160   6.523   0.001   4.569
13072TIP3    H139161   6.495   0.001   4.477
13072TIP3    H239162   6.619   0.002   4.565
13073TIP3   OH239163   7.212   0.658   6.090
13073TIP3    H139164   7.290   0.632   6.042
13073TIP3    H239165   7.207   0.596   6.163
13074TIP3   OH239166   7.333   0.332   4.233
13074TIP3    H139167   7.316   0.280   4.155
13074TIP3    H239168   7.312   0.422   4.207
13075TIP3   OH239169   6.811   0.059   6.081
13075TIP3    H139170   6.813  -0.019   6.026
13075TIP3    H239171   6.768   0.125   6.027
13076TIP3   OH239172   3.979   7.860   5.891
13076TIP3    H139173   4.008   7.900   5.809
13076TIP3    H239174   3.888   7.836   5.875
13077TIP3   OH239175   6.833   0.384   5.766
13077TIP3    H139176   6.917   0.391   5.720
13077TIP3    H239177   6.777   0.448   5.722
13078TIP3   OH239178   7.424   0.347   6.144
13078TIP3    H139179   7.471   0.264   6.155
13078TIP3    H239180   7.491   0.409   6.114
13079TIP3   OH239181   7.462   0.597   5.878
13079TIP3    H139182   7.403   0.649   5.823
13079TIP3    H239183   7.550   0.617   5.844
13080TIP3   OH239184   6.683   0.161   6.313
13080TIP3    H139185   6.622   0.087   6.323
13080TIP3    H239186   6.722   0.149   6.227
13081TIP3   OH239187   4.109   7.621   5.961
13081TIP3    H139188   4.062   7.701   5.938
13081TIP3    H239189   4.045   7.551   5.950
13082TIP3   OH239190   7.068   0.107   6.177
13082TIP3    H139191   7.055   0.096   6.271
13082TIP3    H239192   6.983   0.087   6.138
13083TIP3   OH239193   7.311   0.061   6.034
13083TIP3    H139194   7.236   0.061   6.093
13083TIP3    H239195   7.383   0.029   6.087
13084TIP3   OH239196   4.706   8.010   6.180
13084TIP3    H139197   4.718   7.916   6.196
13084TIP3    H239198   4.703   8.049   6.267
13085TIP3   OH239199   3.696   7.955   6.379
13085TIP3    H139200   3.693   7.870   6.334
13085TIP3    H239201   3.744   7.937   6.460
13086TIP3   OH239202   4.205   7.629   6.218
13086TIP3    H139203   4.271   7.560   6.215
13086TIP3    H239204   4.165   7.627   6.131
13087TIP3   OH239205   4.270   7.845   6.376
13087TIP3    H139206   4.253   7.774   6.314
13087TIP3    H239207   4.194   7.903   6.367
13088TIP3   OH239208   5.817   0.393   4.703
13088TIP3    H139209   5.896   0.436   4.671
13088TIP3    H239210   5.802   0.321   4.642
13089TIP3   OH239211   7.690   1.033   5.944
13089TIP3    H139212   7.611   1.002   5.988
13089TIP3    H239213   7.739   1.078   6.012
13090TIP3   OH239214   7.469   0.507   4.575
13090TIP3    H139215   7.536   0.565   4.539
13090TIP3    H239216   7.511   0.468   4.652
13091TIP3   OH239217   7.602   0.380   4.774
13091TIP3    H139218   7.541   0.338   4.835
13091TIP3    H239219   7.672   0.414   4.829
13092TIP3   OH239220   7.643   0.769   5.197
13092TIP3    H139221   7.707   0.712   5.154
13092TIP3    H239222   7.650   0.852   5.150
13093TIP3   OH239223   7.537   0.293   4.416
13093TIP3    H139224   7.468   0.293   4.348
13093TIP3    H239225   7.513   0.365   4.474
13094TIP3   OH239226   4.575   7.975   4.370
13094TIP3    H139227   4.533   8.010   4.291
13094TIP3    H239228   4.556   7.881   4.367
13095TIP3   OH239229   7.416   0.236   4.921
13095TIP3    H139230   7.425   0.142   4.910
13095TIP3    H239231   7.403   0.248   5.016
13096TIP3   OH239232   6.043   0.316   5.664
13096TIP3    H139233   6.036   0.281   5.576
13096TIP3    H239234   6.137   0.318   5.682
13097TIP3   OH239235   7.709   0.661   5.783
13097TIP3    H139236   7.781   0.600   5.771
13097TIP3    H239237   7.730   0.733   5.723
13098TIP3   OH239238   7.899   0.467   5.793
13098TIP3    H139239   7.822   0.422   5.826
13098TIP3    H239240   7.971   0.404   5.804
13099TIP3   OH239241   4.521   7.710   4.356
13099TIP3    H139242   4.594   7.678   4.409
13099TIP3    H239243   4.449   7.651   4.376
13100TIP3   OH239244   4.583   7.968   4.807
13100TIP3    H139245   4.621   7.882   4.825
13100TIP3    H239246   4.638   8.004   4.737
13101TIP3   OH239247   7.576   0.129   5.309
13101TIP3    H139248   7.658   0.151   5.264
13101TIP3    H239249   7.587   0.163   5.398
13102TIP3   OH239250   7.646   0.275   5.539
13102TIP3    H139251   7.569   0.307   5.586
13102TIP3    H239252   7.679   0.353   5.493
13103TIP3   OH239253   3.431   8.011   6.349
13103TIP3    H139254   3.527   8.003   6.346
13103TIP3    H239255   3.401   7.926   6.380
13104TIP3   OH239256   5.243   7.874   6.091
13104TIP3    H139257   5.315   7.818   6.062
13104TIP3    H239258   5.224   7.930   6.016
13105TIP3   OH239259   4.688   7.719   4.852
13105TIP3    H139260   4.736   7.705   4.933
13105TIP3    H239261   4.627   7.645   4.847
13106TIP3   OH239262   3.391   7.705   5.670
13106TIP3    H139263   3.449   7.629   5.678
13106TIP3    H239264   3.451   7.779   5.661
13107TIP3   OH239265   3.190   7.979   5.741
13107TIP3    H139266   3.238   7.973   5.658
13107TIP3    H239267   3.218   8.062   5.779
13108TIP3   OH239268   5.120   8.013   5.892
13108TIP3    H139269   5.035   8.058   5.888
13108TIP3    H239270   5.108   7.934   5.840
13109TIP3   OH239271   4.767   7.651   4.482
13109TIP3    H139272   4.805   7.581   4.429
13109TIP3    H239273   4.833   7.721   4.481
13110TIP3   OH239274   3.174   7.484   5.243
13110TIP3    H139275   3.084   7.476   5.272
13110TIP3    H239276   3.170   7.541   5.166
13111TIP3   OH239277   3.395   7.567   6.060
13111TIP3    H139278   3.344   7.557   6.141
13111TIP3    H239279   3.332   7.601   5.996
13112TIP3   OH239280   5.031   7.775   5.777
13112TIP3    H139281   4.942   7.768   5.743
13112TIP3    H239282   5.066   7.686   5.769
13113TIP3   OH239283   4.236   7.692   5.399
13113TIP3    H139284   4.194   7.622   5.450
13113TIP3    H239285   4.309   7.649   5.355
13114TIP3   OH239286   4.756   7.580   5.303
13114TIP3    H139287   4.792   7.627   5.228
13114TIP3    H239288   4.662   7.593   5.296
13115TIP3   OH239289   4.855   7.674   5.066
13115TIP3    H139290   4.925   7.620   5.029
13115TIP3    H239291   4.885   7.764   5.053
13116TIP3   OH239292   3.483   7.400   5.413
13116TIP3    H139293   3.392   7.371   5.417
13116TIP3    H239294   3.533   7.318   5.409
13117TIP3   OH239295   3.272   7.277   5.065
13117TIP3    H139296   3.302   7.330   4.991
13117TIP3    H239297   3.247   7.341   5.131
13118TIP3   OH239298   3.931   7.437   5.295
13118TIP3    H139299   3.987   7.482   5.232
13118TIP3    H239300   3.958   7.472   5.380
13119TIP3   OH239301   4.473   7.580   5.278
13119TIP3    H139302   4.476   7.542   5.190
13119TIP3    H239303   4.462   7.506   5.336
13120TIP3   OH239304   4.504   7.507   4.843
13120TIP3    H139305   4.420   7.550   4.857
13120TIP3    H239306   4.494   7.421   4.885
13121TIP3   OH239307   3.394   7.433   4.823
13121TIP3    H139308   3.438   7.368   4.767
13121TIP3    H239309   3.465   7.485   4.859
13122TIP3   OH239310   3.902   7.612   4.925
13122TIP3    H139311   3.958   7.560   4.982
13122TIP3    H239312   3.922   7.703   4.948
13123TIP3   OH239313   3.693   7.686   6.311
13123TIP3    H139314   3.655   7.614   6.361
13123TIP3    H239315   3.786   7.685   6.334
13124TIP3   OH239316   3.943   7.684   6.429
13124TIP3    H139317   4.025   7.660   6.385
13124TIP3    H239318   3.930   7.614   6.494
13125TIP3   OH239319   4.770   7.742   6.211
13125TIP3    H139320   4.785   7.711   6.300
13125TIP3    H239321   4.856   7.737   6.169
13126TIP3   OH239322   0.304   0.640   4.476
13126TIP3    H139323   0.271   0.726   4.451
13126TIP3    H239324   0.239   0.578   4.444
13127TIP3   OH239325   0.293   0.648   4.859
13127TIP3    H139326   0.331   0.622   4.944
13127TIP3    H239327   0.256   0.567   4.824
13128TIP3   OH239328   8.100   0.544   5.217
13128TIP3    H139329   8.129   0.476   5.279
13128TIP3    H239330   8.176   0.602   5.208
13129TIP3   OH239331   0.522   0.949   4.548
13129TIP3    H139332   0.515   0.875   4.608
13129TIP3    H239333   0.582   1.009   4.592
13130TIP3   OH239334   8.134   0.892   5.015
13130TIP3    H139335   8.106   0.807   4.982
13130TIP3    H239336   8.218   0.909   4.971
13131TIP3   OH239337   7.781   0.157   4.719
13131TIP3    H139338   7.742   0.242   4.740
13131TIP3    H239339   7.710   0.107   4.678
13132TIP3   OH239340   7.839   0.447   4.900
13132TIP3    H139341   7.885   0.369   4.932
13132TIP3    H239342   7.909   0.505   4.868
13133TIP3   OH239343   0.122   0.870   4.885
13133TIP3    H139344   0.163   0.787   4.860
13133TIP3    H239345   0.196   0.929   4.902
13134TIP3   OH239346   1.116   0.197   4.902
13134TIP3    H139347   1.136   0.280   4.947
13134TIP3    H239348   1.148   0.209   4.813
13135TIP3   OH239349   0.513   0.382   4.927
13135TIP3    H139350   0.559   0.302   4.952
13135TIP3    H239351   0.483   0.364   4.837
13136TIP3   OH239352   8.356   0.041   4.893
13136TIP3    H139353   8.339   0.115   4.834
13136TIP3    H239354   8.309  -0.032   4.852
13137TIP3   OH239355   0.554   0.133   4.515
13137TIP3    H139356   0.620   0.118   4.584
13137TIP3    H239357   0.605   0.167   4.441
13138TIP3   OH239358   7.989   0.240   5.003
13138TIP3    H139359   8.069   0.226   5.053
13138TIP3    H239360   8.001   0.189   4.923
13139TIP3   OH239361   8.429   0.438   4.800
13139TIP3    H139362   8.522   0.417   4.811
13139TIP3    H239363   8.389   0.357   4.768
13140TIP3   OH239364   8.348   0.026   5.331
13140TIP3    H139365   8.293   0.062   5.261
13140TIP3    H239366   8.299   0.043   5.411
13141TIP3   OH239367   0.186   0.842   4.337
13141TIP3    H139368   0.143   0.841   4.252
13141TIP3    H239369   0.214   0.933   4.348
13142TIP3   OH239370   8.458   0.807   5.121
13142TIP3    H139371   8.403   0.871   5.167
13142TIP3    H239372   8.487   0.853   5.042
13143TIP3   OH239373   0.756   0.140   4.695
13143TIP3    H139374   0.744   0.093   4.778
13143TIP3    H239375   0.809   0.216   4.719
13144TIP3   OH239376   8.225   0.140   5.113
13144TIP3    H139377   8.281   0.213   5.139
13144TIP3    H239378   8.271   0.099   5.040
13145TIP3   OH239379   8.286   1.007   5.232
13145TIP3    H139380   8.255   1.013   5.141
13145TIP3    H239381   8.206   1.009   5.285
13146TIP3   OH239382   7.675   0.649   4.464
13146TIP3    H139383   7.644   0.660   4.374
13146TIP3    H239384   7.698   0.737   4.493
13147TIP3   OH239385   0.894   0.089   5.055
13147TIP3    H139386   0.813   0.118   5.012
13147TIP3    H239387   0.963   0.124   4.999
13148TIP3   OH239388   5.867   7.753   5.046
13148TIP3    H139389   5.855   7.660   5.062
13148TIP3    H239390   5.794   7.795   5.091
13149TIP3   OH239391   0.552   0.971   4.260
13149TIP3    H139392   0.531   0.892   4.210
13149TIP3    H239393   0.564   0.940   4.350
13150TIP3   OH239394   0.139   0.501   4.306
13150TIP3    H139395   0.059   0.552   4.290
13150TIP3    H239396   0.183   0.499   4.221
13151TIP3   OH239397   0.098   0.292   4.014
13151TIP3    H139398   0.160   0.345   4.063
13151TIP3    H239399   0.152   0.229   3.967
13152TIP3   OH239400   0.486   0.579   4.280
13152TIP3    H139401   0.431   0.600   4.355
13152TIP3    H239402   0.570   0.554   4.318
13153TIP3   OH239403   8.226   0.584   4.679
13153TIP3    H139404   8.183   0.526   4.617
13153TIP3    H239405   8.299   0.533   4.714
13154TIP3   OH239406   8.359   0.954   4.883
13154TIP3    H139407   8.316   0.949   4.798
13154TIP3    H239408   8.451   0.939   4.864
13155TIP3   OH239409   8.345   0.565   5.039
13155TIP3    H139410   8.383   0.537   4.955
13155TIP3    H239411   8.391   0.646   5.060
13156TIP3   OH239412   8.392   0.936   5.481
13156TIP3    H139413   8.484   0.964   5.479
13156TIP3    H239414   8.360   0.951   5.392
13157TIP3   OH239415   0.320   0.449   4.099
13157TIP3    H139416   0.379   0.504   4.150
13157TIP3    H239417   0.347   0.463   4.008
13158TIP3   OH239418   8.246   0.661   5.460
13158TIP3    H139419   8.265   0.754   5.476
13158TIP3    H239420   8.155   0.650   5.487
13159TIP3   OH239421   6.506   7.703   4.147
13159TIP3    H139422   6.426   7.722   4.197
13159TIP3    H239423   6.522   7.782   4.097
13160TIP3   OH239424   8.085   0.427   4.491
13160TIP3    H139425   8.019   0.469   4.435
13160TIP3    H239426   8.049   0.341   4.511
13161TIP3   OH239427   7.880   0.814   5.403
13161TIP3    H139428   7.812   0.796   5.338
13161TIP3    H239429   7.910   0.727   5.431
13162TIP3   OH239430   8.067   1.018   5.394
13162TIP3    H139431   8.091   1.022   5.487
13162TIP3    H239432   7.999   0.951   5.389
13163TIP3   OH239433   5.631   7.832   5.179
13163TIP3    H139434   5.546   7.800   5.147
13163TIP3    H239435   5.610   7.913   5.226
13164TIP3   OH239436   6.165   7.945   5.374
13164TIP3    H139437   6.227   7.916   5.441
13164TIP3    H239438   6.079   7.929   5.412
13165TIP3   OH239439   0.402   0.475   3.842
13165TIP3    H139440   0.367   0.454   3.755
13165TIP3    H239441   0.470   0.541   3.825
13166TIP3   OH239442   5.775   7.880   4.147
13166TIP3    H139443   5.745   7.879   4.238
13166TIP3    H239444   5.740   7.800   4.110
13167TIP3   OH239445   8.394   0.340   5.187
13167TIP3    H139446   8.356   0.360   5.273
13167TIP3    H239447   8.380   0.420   5.136
13168TIP3   OH239448   8.281   0.221   4.705
13168TIP3    H139449   8.191   0.196   4.728
13168TIP3    H239450   8.295   0.181   4.620
13169TIP3   OH239451   0.275   0.303   4.435
13169TIP3    H139452   0.224   0.371   4.392
13169TIP3    H239453   0.332   0.268   4.366
13170TIP3   OH239454   0.427   0.330   4.668
13170TIP3    H139455   0.366   0.359   4.602
13170TIP3    H239456   0.468   0.252   4.631
13171TIP3   OH239457   8.215   0.362   5.400
13171TIP3    H139458   8.259   0.426   5.455
13171TIP3    H239459   8.209   0.283   5.455
13172TIP3   OH239460   5.432   7.857   4.112
13172TIP3    H139461   5.426   7.853   4.208
13172TIP3    H239462   5.356   7.909   4.086
13173TIP3   OH239463   4.979   7.897   4.985
13173TIP3    H139464   5.052   7.931   5.037
13173TIP3    H239465   5.020   7.869   4.903
13174TIP3   OH239466   4.943   7.881   4.500
13174TIP3    H139467   4.991   7.912   4.423
13174TIP3    H239468   4.883   7.952   4.522
13175TIP3   OH239469   0.409   0.569   5.095
13175TIP3    H139470   0.458   0.509   5.039
13175TIP3    H239471   0.384   0.517   5.171
13176TIP3   OH239472   0.114   0.044   4.769
13176TIP3    H139473   0.035   0.042   4.822
13176TIP3    H239474   0.186   0.036   4.832
13177TIP3   OH239475   8.044   0.099   4.774
13177TIP3    H139476   7.952   0.106   4.748
13177TIP3    H239477   8.068   0.009   4.752
13178TIP3   OH239478   8.309   0.094   4.465
13178TIP3    H139479   8.402   0.108   4.447
13178TIP3    H239480   8.265   0.116   4.384
13179TIP3   OH239481   0.601   0.120   4.967
13179TIP3    H139482   0.579   0.133   5.059
13179TIP3    H239483   0.534   0.061   4.933
13180TIP3   OH239484   8.159   0.130   4.239
13180TIP3    H139485   8.088   0.085   4.193
13180TIP3    H239486   8.212   0.168   4.169
13181TIP3   OH239487   8.190   1.041   5.649
13181TIP3    H139488   8.266   0.999   5.610
13181TIP3    H239489   8.155   0.977   5.710
13182TIP3   OH239490   0.193   0.373   4.865
13182TIP3    H139491   0.266   0.334   4.816
13182TIP3    H239492   0.196   0.329   4.950
13183TIP3   OH239493   5.378   7.870   4.748
13183TIP3    H139494   5.342   7.796   4.796
13183TIP3    H239495   5.427   7.831   4.676
13184TIP3   OH239496   0.162   0.266   5.149
13184TIP3    H139497   0.076   0.304   5.165
13184TIP3    H239498   0.222   0.320   5.201
13185TIP3   OH239499   8.405   0.643   4.259
13185TIP3    H139500   8.330   0.585   4.243
13185TIP3    H239501   8.383   0.689   4.340
13186TIP3   OH239502   6.028   7.983   4.117
13186TIP3    H139503   5.935   7.964   4.126
13186TIP3    H239504   6.037   8.075   4.142
13187TIP3   OH239505   0.434   0.220   4.219
13187TIP3    H139506   0.528   0.223   4.235
13187TIP3    H239507   0.415   0.299   4.167
13188TIP3   OH239508   8.078   0.630   4.910
13188TIP3    H139509   8.129   0.624   4.829
13188TIP3    H239510   8.135   0.594   4.977
13189TIP3   OH239511   8.513   0.831   4.094
13189TIP3    H139512   8.475   0.902   4.146
13189TIP3    H239513   8.482   0.751   4.137
13190TIP3   OH239514   7.976   0.592   5.545
13190TIP3    H139515   7.987   0.567   5.636
13190TIP3    H239516   7.909   0.534   5.511
13191TIP3   OH239517   0.865   0.314   4.050
13191TIP3    H139518   0.809   0.266   3.990
13191TIP3    H239519   0.867   0.403   4.014
13192TIP3   OH239520   0.532   0.766   4.770
13192TIP3    H139521   0.450   0.718   4.785
13192TIP3    H239522   0.597   0.698   4.753
13193TIP3   OH239523   7.765   0.289   4.259
13193TIP3    H139524   7.812   0.370   4.275
13193TIP3    H239525   7.689   0.292   4.316
13194TIP3   OH239526   8.331   0.766   4.497
13194TIP3    H139527   8.293   0.845   4.535
13194TIP3    H239528   8.309   0.697   4.560
13195TIP3   OH239529   0.379   0.943   4.979
13195TIP3    H139530   0.356   0.882   5.049
13195TIP3    H239531   0.436   0.892   4.921
13196TIP3   OH239532   0.367   0.795   3.835
13196TIP3    H139533   0.399   0.781   3.924
13196TIP3    H239534   0.287   0.846   3.846
13197TIP3   OH239535   8.187   0.104   5.544
13197TIP3    H139536   8.092   0.110   5.555
13197TIP3    H239537   8.217   0.053   5.619
13198TIP3   OH239538   0.492   0.765   4.082
13198TIP3    H139539   0.484   0.696   4.148
13198TIP3    H239540   0.585   0.767   4.060
13199TIP3   OH239541   8.181   0.784   3.910
13199TIP3    H139542   8.219   0.699   3.885
13199TIP3    H239543   8.217   0.801   3.997
13200TIP3   OH239544   7.883   0.530   4.333
13200TIP3    H139545   7.817   0.562   4.395
13200TIP3    H239546   7.889   0.600   4.268
13201TIP3   OH239547   0.541   0.166   5.229
13201TIP3    H139548   0.586   0.223   5.290
13201TIP3    H239549   0.518   0.088   5.280
13202TIP3   OH239550   6.076   7.935   4.398
13202TIP3    H139551   6.064   7.954   4.305
13202TIP3    H239552   6.117   8.014   4.434
13203TIP3   OH239553   0.093   0.106   4.500
13203TIP3    H139554   0.157   0.174   4.481
13203TIP3    H239555   0.099   0.094   4.595
13204TIP3   OH239556   0.341   0.408   5.308
13204TIP3    H139557   0.320   0.427   5.399
13204TIP3    H239558   0.430   0.371   5.311
13205TIP3   OH239559   5.906   7.838   4.596
13205TIP3    H139560   5.902   7.911   4.658
13205TIP3    H239561   5.966   7.869   4.528
13206TIP3   OH239562   5.422   7.844   4.388
13206TIP3    H139563   5.415   7.932   4.426
13206TIP3    H239564   5.515   7.823   4.394
13207TIP3   OH239565   0.655   0.514   4.674
13207TIP3    H139566   0.581   0.456   4.687
13207TIP3    H239567   0.727   0.473   4.722
13208TIP3   OH239568   7.873   0.744   4.145
13208TIP3    H139569   7.902   0.834   4.137
13208TIP3    H239570   7.928   0.695   4.084
13209TIP3   OH239571   7.812   0.019   4.277
13209TIP3    H139572   7.815   0.114   4.277
13209TIP3    H239573   7.733  -0.003   4.227
13210TIP3   OH239574   5.367   7.753   5.145
13210TIP3    H139575   5.338   7.722   5.060
13210TIP3    H239576   5.357   7.677   5.203
13211TIP3   OH239577   8.029   0.865   5.801
13211TIP3    H139578   8.063   0.778   5.782
13211TIP3    H239579   7.944   0.868   5.756
13212TIP3   OH239580   8.005   0.545   4.003
13212TIP3    H139581   8.051   0.511   4.080
13212TIP3    H239582   8.073   0.551   3.935
13213TIP3   OH239583   8.454   0.725   3.815
13213TIP3    H139584   8.488   0.746   3.902
13213TIP3    H239585   8.485   0.636   3.798
13214TIP3   OH239586   8.168   0.631   5.788
13214TIP3    H139587   8.234   0.571   5.753
13214TIP3    H239588   8.149   0.599   5.876
13215TIP3   OH239589   8.203   0.458   4.212
13215TIP3    H139590   8.179   0.418   4.296
13215TIP3    H239591   8.245   0.387   4.163
13216TIP3   OH239592   8.475   0.510   5.432
13216TIP3    H139593   8.407   0.576   5.441
13216TIP3    H239594   8.541   0.550   5.374
13217TIP3   OH239595   8.319   0.257   4.056
13217TIP3    H139596   8.292   0.258   3.964
13217TIP3    H239597   8.415   0.259   4.053
13218TIP3   OH239598   0.629   0.597   3.716
13218TIP3    H139599   0.612   0.540   3.641
13218TIP3    H239600   0.610   0.685   3.685
13219TIP3   OH239601   0.084   0.304   5.572
13219TIP3    H139602   0.098   0.230   5.513
13219TIP3    H239603   0.050   0.374   5.515
13220TIP3   OH239604   0.108   0.099   5.375
13220TIP3    H139605   0.138   0.142   5.295
13220TIP3    H239606   0.016   0.079   5.359
13221TIP3   OH239607   0.127   0.631   5.246
13221TIP3    H139608   0.209   0.632   5.198
13221TIP3    H239609   0.073   0.697   5.203
13222TIP3   OH239610   8.476   0.419   5.798
13222TIP3    H139611   8.404   0.359   5.818
13222TIP3    H239612   8.510   0.389   5.714
13223TIP3   OH239613   5.904   7.876   5.443
13223TIP3    H139614   5.858   7.958   5.422
13223TIP3    H239615   5.838   7.808   5.433
13224TIP3   OH239616   0.359   0.366   5.590
13224TIP3    H139617   0.399   0.383   5.676
13224TIP3    H239618   0.269   0.341   5.609
13225TIP3   OH239619   8.322   0.192   5.851
13225TIP3    H139620   8.327   0.103   5.815
13225TIP3    H239621   8.355   0.184   5.940
13226TIP3   OH239622   5.996   7.875   5.701
13226TIP3    H139623   6.067   7.811   5.696
13226TIP3    H239624   5.959   7.877   5.613
13227TIP3   OH239625   0.363   0.065   5.884
13227TIP3    H139626   0.353  -0.001   5.816
13227TIP3    H239627   0.298   0.132   5.862
13228TIP3   OH239628   7.608   0.652   4.190
13228TIP3    H139629   7.687   0.696   4.160
13228TIP3    H239630   7.596   0.579   4.130
13229TIP3   OH239631   0.763   0.764   4.062
13229TIP3    H139632   0.829   0.824   4.028
13229TIP3    H239633   0.805   0.723   4.138
13230TIP3   OH239634   0.894   0.638   4.260
13230TIP3    H139635   0.836   0.595   4.323
13230TIP3    H239636   0.968   0.669   4.313
13231TIP3   OH239637   0.828   0.548   3.903
13231TIP3    H139638   0.760   0.552   3.835
13231TIP3    H239639   0.807   0.621   3.962
13232TIP3   OH239640   0.706   0.218   3.855
13232TIP3    H139641   0.660   0.254   3.779
13232TIP3    H239642   0.686   0.125   3.853
13233TIP3   OH239643   0.711   0.493   4.408
13233TIP3    H139644   0.722   0.398   4.397
13233TIP3    H239645   0.699   0.505   4.502
13234TIP3   OH239646   7.838   0.573   5.150
13234TIP3    H139647   7.831   0.538   5.061
13234TIP3    H239648   7.931   0.574   5.169
13235TIP3   OH239649   6.318   7.968   3.844
13235TIP3    H139650   6.393   7.937   3.895
13235TIP3    H239651   6.248   7.907   3.865
13236TIP3   OH239652   0.713   0.211   4.294
13236TIP3    H139653   0.749   0.125   4.312
13236TIP3    H239654   0.767   0.246   4.224
13237TIP3   OH239655   0.874   0.391   4.794
13237TIP3    H139656   0.954   0.414   4.748
13237TIP3    H239657   0.886   0.425   4.883
13238TIP3   OH239658   8.053   0.244   5.811
13238TIP3    H139659   8.147   0.258   5.827
13238TIP3    H239660   8.033   0.162   5.857
13239TIP3   OH239661   6.483   7.976   4.339
13239TIP3    H139662   6.534   7.962   4.419
13239TIP3    H239663   6.424   7.901   4.335
13240TIP3   OH239664   5.186   7.963   5.160
13240TIP3    H139665   5.245   7.887   5.166
13240TIP3    H239666   5.245   8.037   5.149
13241TIP3   OH239667   7.820   0.222   5.227
13241TIP3    H139668   7.867   0.215   5.144
13241TIP3    H239669   7.853   0.303   5.266
13242TIP3   OH239670   6.564   7.908   3.968
13242TIP3    H139671   6.603   7.838   3.917
13242TIP3    H239672   6.630   7.977   3.968
13243TIP3   OH239673   4.971   7.739   4.730
13243TIP3    H139674   4.880   7.733   4.759
13243TIP3    H239675   4.967   7.796   4.653
13244TIP3   OH239676   5.189   7.816   5.543
13244TIP3    H139677   5.140   7.812   5.626
13244TIP3    H239678   5.128   7.856   5.481
13245TIP3   OH239679   6.811   8.018   5.238
13245TIP3    H139680   6.718   7.999   5.237
13245TIP3    H239681   6.853   7.932   5.237
13246TIP3   OH239682   6.030   7.948   4.881
13246TIP3    H139683   5.990   7.878   4.933
13246TIP3    H239684   6.106   7.908   4.840
13247TIP3   OH239685   6.552   7.830   4.785
13247TIP3    H139686   6.591   7.881   4.714
13247TIP3    H239687   6.459   7.853   4.782
13248TIP3   OH239688   6.652   7.933   4.552
13248TIP3    H139689   6.722   7.878   4.516
13248TIP3    H239690   6.683   8.022   4.540
13249TIP3   OH239691   5.279   7.656   4.900
13249TIP3    H139692   5.187   7.628   4.903
13249TIP3    H239693   5.329   7.574   4.896
13250TIP3   OH239694   5.069   7.533   4.551
13250TIP3    H139695   5.099   7.586   4.478
13250TIP3    H239696   5.043   7.597   4.618
13251TIP3   OH239697   5.728   7.693   4.783
13251TIP3    H139698   5.781   7.737   4.717
13251TIP3    H239699   5.757   7.731   4.866
13252TIP3   OH239700   6.264   7.837   4.766
13252TIP3    H139701   6.275   7.799   4.679
13252TIP3    H239702   6.255   7.761   4.824
13253TIP3   OH239703   6.300   7.763   4.329
13253TIP3    H139704   6.216   7.807   4.344
13253TIP3    H239705   6.290   7.678   4.372
13254TIP3   OH239706   5.190   7.689   4.311
13254TIP3    H139707   5.234   7.625   4.254
13254TIP3    H239708   5.261   7.742   4.346
13255TIP3   OH239709   5.698   7.869   4.412
13255TIP3    H139710   5.756   7.818   4.469
13255TIP3    H239711   5.716   7.960   4.434
13256TIP3   OH239712   5.490   7.927   5.792
13256TIP3    H139713   5.453   7.860   5.850
13256TIP3    H239714   5.582   7.933   5.819
13257TIP3   OH239715   5.736   7.937   5.919
13257TIP3    H139716   5.824   7.928   5.883
13257TIP3    H239717   5.728   7.865   5.982
13258TIP3   OH239718   1.070   0.413   4.207
13258TIP3    H139719   1.032   0.498   4.228
13258TIP3    H239720   0.999   0.365   4.163
13259TIP3   OH239721   1.137   0.692   4.371
13259TIP3    H139722   1.181   0.627   4.426
13259TIP3    H239723   1.208   0.738   4.326
13260TIP3   OH239724   1.615   0.300   4.406
13260TIP3    H139725   1.619   0.372   4.342
13260TIP3    H239726   1.582   0.225   4.355
13261TIP3   OH239727   1.293   0.498   4.495
13261TIP3    H139728   1.385   0.508   4.515
13261TIP3    H239729   1.291   0.437   4.420
13262TIP3   OH239730   0.971   0.912   3.966
13262TIP3    H139731   0.952   0.930   3.874
13262TIP3    H239732   1.015   0.991   3.997
13263TIP3   OH239733   1.354   0.670   3.915
13263TIP3    H139734   1.353   0.755   3.958
13263TIP3    H239735   1.325   0.608   3.983
13264TIP3   OH239736   1.560   0.455   4.182
13264TIP3    H139737   1.476   0.427   4.216
13264TIP3    H239738   1.538   0.505   4.103
13265TIP3   OH239739   1.554   0.120   3.612
13265TIP3    H139740   1.552   0.089   3.703
13265TIP3    H239741   1.480   0.078   3.570
13266TIP3   OH239742   1.110   0.141   4.471
13266TIP3    H139743   1.183   0.175   4.524
13266TIP3    H239744   1.151   0.110   4.390
13267TIP3   OH239745   1.073   0.122   3.987
13267TIP3    H139746   1.119   0.150   3.908
13267TIP3    H239747   1.015   0.195   4.008
13268TIP3   OH239748   1.326   0.348   4.270
13268TIP3    H139749   1.236   0.355   4.239
13268TIP3    H239750   1.354   0.259   4.246
13269TIP3   OH239751   1.390   0.371   3.757
13269TIP3    H139752   1.336   0.321   3.695
13269TIP3    H239753   1.410   0.452   3.711
13270TIP3   OH239754   1.508   0.113   4.229
13270TIP3    H139755   1.473   0.040   4.281
13270TIP3    H239756   1.566   0.071   4.166
13271TIP3   OH239757   1.051   0.537   3.744
13271TIP3    H139758   1.106   0.611   3.771
13271TIP3    H239759   0.975   0.541   3.801
13272TIP3   OH239760   1.520   0.069   3.881
13272TIP3    H139761   1.501   0.161   3.899
13272TIP3    H239762   1.612   0.058   3.907
13273TIP3   OH239763   1.093   0.265   3.759
13273TIP3    H139764   1.106   0.359   3.760
13273TIP3    H239765   1.007   0.253   3.716
13274TIP3   OH239766   7.134   8.009   4.644
13274TIP3    H139767   7.135   7.977   4.553
13274TIP3    H239768   7.151   7.931   4.696
13275TIP3   OH239769   0.898   0.912   3.660
13275TIP3    H139770   0.977   0.952   3.624
13275TIP3    H239771   0.884   0.834   3.606
13276TIP3   OH239772   1.312   0.213   4.651
13276TIP3    H139773   1.359   0.130   4.654
13276TIP3    H239774   1.381   0.279   4.644
13277TIP3   OH239775   1.121   0.490   4.719
13277TIP3    H139776   1.170   0.460   4.642
13277TIP3    H239777   1.153   0.579   4.734
13278TIP3   OH239778   6.767   7.995   4.217
13278TIP3    H139779   6.675   7.989   4.246
13278TIP3    H239780   6.764   8.053   4.140
13279TIP3   OH239781   1.327   0.056   5.045
13279TIP3    H139782   1.266   0.056   5.119
13279TIP3    H239783   1.277   0.092   4.972
13280TIP3   OH239784   7.078   7.914   4.381
13280TIP3    H139785   6.987   7.887   4.388
13280TIP3    H239786   7.128   7.832   4.379
13281TIP3   OH239787   6.865   7.790   4.036
13281TIP3    H139788   6.894   7.844   3.962
13281TIP3    H239789   6.842   7.853   4.104
13282TIP3   OH239790   7.512   7.942   4.289
13282TIP3    H139791   7.585   7.983   4.244
13282TIP3    H239792   7.504   7.991   4.371
13283TIP3   OH239793   6.969   7.936   3.801
13283TIP3    H139794   7.010   7.867   3.747
13283TIP3    H239795   7.042   7.986   3.836
13284TIP3   OH239796   1.787   0.084   3.927
13284TIP3    H139797   1.824   0.008   3.882
13284TIP3    H239798   1.838   0.159   3.895
13285TIP3   OH239799   7.446   5.753   1.017
13285TIP3    H139800   7.455   5.845   0.990
13285TIP3    H239801   7.531   5.714   0.997
13286TIP3   OH239802   7.002   5.987   1.095
13286TIP3    H139803   7.045   5.905   1.071
13286TIP3    H239804   6.964   5.969   1.181
13287TIP3   OH239805   7.201   5.245   1.150
13287TIP3    H139806   7.161   5.209   1.071
13287TIP3    H239807   7.294   5.253   1.129
13288TIP3   OH239808   7.361   5.814   1.270
13288TIP3    H139809   7.354   5.725   1.304
13288TIP3    H239810   7.399   5.804   1.183
13289TIP3   OH239811   7.475   6.025   0.992
13289TIP3    H139812   7.521   6.092   0.940
13289TIP3    H239813   7.395   6.068   1.021
13290TIP3   OH239814   6.646   5.721   1.059
13290TIP3    H139815   6.654   5.640   1.109
13290TIP3    H239816   6.726   5.725   1.006
13291TIP3   OH239817   7.117   5.753   0.990
13291TIP3    H139818   7.200   5.748   1.038
13291TIP3    H239819   7.144   5.759   0.898
13292TIP3   OH239820   7.438   5.284   1.025
13292TIP3    H139821   7.426   5.223   0.953
13292TIP3    H239822   7.410   5.369   0.989
13293TIP3   OH239823   7.657   5.323   1.191
13293TIP3    H139824   7.578   5.298   1.142
13293TIP3    H239825   7.643   5.288   1.279
13294TIP3   OH239826   7.398   6.095   1.314
13294TIP3    H139827   7.399   5.999   1.305
13294TIP3    H239828   7.362   6.126   1.231
13295TIP3   OH239829   0.376   5.620   1.284
13295TIP3    H139830   0.358   5.708   1.253
13295TIP3    H239831   0.321   5.563   1.231
13296TIP3   OH239832   0.604   5.883   1.329
13296TIP3    H139833   0.536   5.847   1.386
13296TIP3    H239834   0.624   5.968   1.368
13297TIP3   OH239835   0.285   6.360   1.328
13297TIP3    H139836   0.343   6.289   1.299
13297TIP3    H239837   0.287   6.355   1.424
13298TIP3   OH239838   0.294   5.833   1.133
13298TIP3    H139839   0.254   5.812   1.049
13298TIP3    H239840   0.251   5.913   1.161
13299TIP3   OH239841   7.772   5.642   1.239
13299TIP3    H139842   7.725   5.636   1.156
13299TIP3    H239843   7.793   5.735   1.247
13300TIP3   OH239844   0.677   6.123   1.436
13300TIP3    H139845   0.603   6.133   1.496
13300TIP3    H239846   0.701   6.213   1.412
13301TIP3   OH239847   0.432   6.189   1.173
13301TIP3    H139848   0.478   6.109   1.146
13301TIP3    H239849   0.485   6.260   1.136
13302TIP3   OH239850   0.564   5.973   1.073
13302TIP3    H139851   0.519   5.906   1.021
13302TIP3    H239852   0.578   5.933   1.158
13303TIP3   OH239853   0.237   5.488   1.092
13303TIP3    H139854   0.153   5.530   1.074
13303TIP3    H239855   0.277   5.477   1.006
13304TIP3   OH239856   0.196   5.242   0.818
13304TIP3    H139857   0.262   5.296   0.860
13304TIP3    H239858   0.246   5.182   0.763
13305TIP3   OH239859   0.565   5.563   1.084
13305TIP3    H139860   0.501   5.598   1.145
13305TIP3    H239861   0.624   5.510   1.138
13306TIP3   OH239862   0.469   6.161   1.609
13306TIP3    H139863   0.531   6.222   1.650
13306TIP3    H239864   0.476   6.082   1.662
13307TIP3   OH239865   0.421   5.411   0.893
13307TIP3    H139866   0.476   5.471   0.943
13307TIP3    H239867   0.445   5.426   0.802
13308TIP3   OH239868   0.170   6.076   1.170
13308TIP3    H139869   0.247   6.127   1.196
13308TIP3    H239870   0.111   6.140   1.131
13309TIP3   OH239871   8.194   5.352   1.248
13309TIP3    H139872   8.120   5.402   1.215
13309TIP3    H239873   8.162   5.311   1.328
13310TIP3   OH239874   0.742   6.006   0.501
13310TIP3    H139875   0.747   6.100   0.484
13310TIP3    H239876   0.831   5.974   0.486
13311TIP3   OH239877   0.048   6.321   0.979
13311TIP3    H139878   0.005   6.305   0.895
13311TIP3    H239879   0.018   6.408   1.005
13312TIP3   OH239880   7.970   6.163   1.334
13312TIP3    H139881   7.986   6.111   1.412
13312TIP3    H239882   7.889   6.127   1.297
13313TIP3   OH239883   0.250   6.224   0.619
13313TIP3    H139884   0.306   6.156   0.581
13313TIP3    H239885   0.283   6.235   0.708
13314TIP3   OH239886   0.299   6.272   0.890
13314TIP3    H139887   0.212   6.282   0.929
13314TIP3    H239888   0.353   6.237   0.961
13315TIP3   OH239889   0.497   5.449   0.639
13315TIP3    H139890   0.460   5.417   0.557
13315TIP3    H239891   0.583   5.483   0.615
13316TIP3   OH239892   0.330   5.256   1.205
13316TIP3    H139893   0.296   5.340   1.174
13316TIP3    H239894   0.392   5.229   1.138
13317TIP3   OH239895   8.390   5.033   1.268
13317TIP3    H139896   8.480   5.033   1.236
13317TIP3    H239897   8.336   5.052   1.191
13318TIP3   OH239898   8.241   5.060   1.033
13318TIP3    H139899   8.178   5.034   0.965
13318TIP3    H239900   8.308   5.110   0.986
13319TIP3   OH239901   8.494   5.608   1.036
13319TIP3    H139902   8.428   5.541   1.019
13319TIP3    H239903   8.470   5.645   1.121
13320TIP3   OH239904   0.443   4.964   0.853
13320TIP3    H139905   0.382   4.913   0.906
13320TIP3    H239906   0.465   5.039   0.909
13321TIP3   OH239907   0.505   5.179   1.012
13321TIP3    H139908   0.594   5.189   1.044
13321TIP3    H239909   0.489   5.257   0.959
13322TIP3   OH239910   0.153   5.762   0.877
13322TIP3    H139911   0.107   5.846   0.877
13322TIP3    H239912   0.097   5.704   0.929
13323TIP3   OH239913   0.684   6.076   0.766
13323TIP3    H139914   0.642   6.009   0.821
13323TIP3    H239915   0.692   6.035   0.680
13324TIP3   OH239916   8.271   5.947   1.324
13324TIP3    H139917   8.333   6.016   1.299
13324TIP3    H239918   8.187   5.977   1.290
13325TIP3   OH239919   7.874   5.243   1.053
13325TIP3    H139920   7.933   5.316   1.072
13325TIP3    H239921   7.795   5.262   1.102
13326TIP3   OH239922   8.425   5.720   1.269
13326TIP3    H139923   8.380   5.800   1.295
13326TIP3    H239924   8.471   5.692   1.348
13327TIP3   OH239925   8.211   6.196   1.191
13327TIP3    H139926   8.125   6.201   1.231
13327TIP3    H239927   8.247   6.285   1.199
13328TIP3   OH239928   0.428   5.812   0.661
13328TIP3    H139929   0.481   5.788   0.737
13328TIP3    H239930   0.340   5.781   0.683
13329TIP3   OH239931   0.770   6.282   0.483
13329TIP3    H139932   0.805   6.348   0.424
13329TIP3    H239933   0.691   6.322   0.520
13330TIP3   OH239934   0.580   5.749   0.879
13330TIP3    H139935   0.569   5.685   0.949
13330TIP3    H239936   0.673   5.747   0.860
13331TIP3   OH239937   8.295   5.785   0.668
13331TIP3    H139938   8.309   5.696   0.638
13331TIP3    H239939   8.274   5.777   0.761
13332TIP3   OH239940   8.236   5.795   0.941
13332TIP3    H139941   8.309   5.762   0.993
13332TIP3    H239942   8.244   5.890   0.946
13333TIP3   OH239943   7.978   5.490   1.144
13333TIP3    H139944   7.903   5.525   1.193
13333TIP3    H239945   7.994   5.555   1.075
13334TIP3   OH239946   8.507   5.989   0.882
13334TIP3    H139947   8.421   6.011   0.920
13334TIP3    H239948   8.527   6.063   0.824
13335TIP3   OH239949   0.171   5.038   1.223
13335TIP3    H139950   0.214   5.121   1.202
13335TIP3    H239951   0.195   5.020   1.314
13336TIP3   OH239952   8.253   6.068   0.953
13336TIP3    H139953   8.226   6.133   0.888
13336TIP3    H239954   8.242   6.113   1.038
13337TIP3   OH239955   7.972   5.692   0.939
13337TIP3    H139956   8.042   5.755   0.953
13337TIP3    H239957   8.008   5.629   0.877
13338TIP3   OH239958   7.895   4.954   1.021
13338TIP3    H139959   7.905   5.049   1.035
13338TIP3    H239960   7.826   4.929   1.082
13339TIP3   OH239961   0.745   6.388   1.381
13339TIP3    H139962   0.675   6.433   1.334
13339TIP3    H239963   0.816   6.452   1.386
13340TIP3   OH239964   7.831   5.896   1.309
13340TIP3    H139965   7.802   5.938   1.390
13340TIP3    H239966   7.793   5.948   1.239
13341TIP3   OH239967   8.459   5.986   0.574
13341TIP3    H139968   8.404   5.918   0.613
13341TIP3    H239969   8.536   5.939   0.541
13342TIP3   OH239970   0.396   6.030   0.488
13342TIP3    H139971   0.433   5.963   0.545
13342TIP3    H239972   0.451   6.026   0.409
13343TIP3   OH239973   8.110   5.504   0.802
13343TIP3    H139974   8.164   5.473   0.875
13343TIP3    H239975   8.172   5.511   0.729
13344TIP3   OH239976   0.121   5.707   0.609
13344TIP3    H139977   0.122   5.721   0.703
13344TIP3    H239978   0.123   5.612   0.599
13345TIP3   OH239979   8.304   5.415   1.005
13345TIP3    H139980   8.277   5.388   1.093
13345TIP3    H239981   8.343   5.336   0.967
13346TIP3   OH239982   8.415   5.202   0.866
13346TIP3    H139983   8.385   5.209   0.775
13346TIP3    H239984   8.511   5.204   0.860
13347TIP3   OH239985   0.723   5.533   0.515
13347TIP3    H139986   0.707   5.487   0.433
13347TIP3    H239987   0.693   5.622   0.500
13348TIP3   OH239988   8.225   6.269   0.764
13348TIP3    H139989   8.319   6.258   0.750
13348TIP3    H239990   8.196   6.320   0.689
13349TIP3   OH239991   7.698   5.649   0.966
13349TIP3    H139992   7.790   5.672   0.957
13349TIP3    H239993   7.691   5.561   0.929
13350TIP3   OH239994   7.625   6.247   1.379
13350TIP3    H139995   7.547   6.205   1.343
13350TIP3    H239996   7.660   6.184   1.442
13351TIP3   OH239997   0.953   6.572   1.376
13351TIP3    H139998   0.973   6.616   1.459
13351TIP3    H239999   0.993   6.628   1.309
13352TIP3   OH240000   0.847   5.727   0.849
13352TIP3    H140001   0.904   5.794   0.811
13352TIP3    H240002   0.907   5.658   0.878
13353TIP3   OH240003   0.917   5.516   0.696
13353TIP3    H140004   0.859   5.487   0.625
13353TIP3    H240005   0.874   5.594   0.731
13354TIP3   OH240006   0.733   5.167   0.658
13354TIP3    H140007   0.778   5.233   0.605
13354TIP3    H240008   0.761   5.084   0.620
13355TIP3   OH240009   0.565   6.380   1.036
13355TIP3    H140010   0.617   6.373   0.956
13355TIP3    H240011   0.609   6.448   1.087
13356TIP3   OH240012   0.217   6.497   1.572
13356TIP3    H140013   0.126   6.486   1.545
13356TIP3    H240014   0.215   6.486   1.668
13357TIP3   OH240015   0.443   6.460   1.722
13357TIP3    H140016   0.396   6.473   1.639
13357TIP3    H240017   0.530   6.496   1.705
13358TIP3   OH240018   0.598   6.622   1.569
13358TIP3    H140019   0.616   6.715   1.555
13358TIP3    H240020   0.681   6.578   1.552
13359TIP3   OH240021   7.715   6.057   1.129
13359TIP3    H140022   7.636   6.015   1.095
13359TIP3    H240023   7.710   6.147   1.096
13360TIP3   OH240024  -0.008   6.222   0.711
13360TIP3    H140025   0.078   6.248   0.678
13360TIP3    H240026  -0.033   6.149   0.654
13361TIP3   OH240027   0.710   6.344   0.805
13361TIP3    H140028   0.705   6.249   0.798
13361TIP3    H240029   0.664   6.377   0.728
13362TIP3   OH240030   7.796   6.060   0.770
13362TIP3    H140031   7.805   6.081   0.863
13362TIP3    H240032   7.879   6.017   0.747
13363TIP3   OH240033   1.048   5.891   0.785
13363TIP3    H140034   1.042   5.899   0.689
13363TIP3    H240035   1.072   5.979   0.814
13364TIP3   OH240036   1.824   6.600   0.455
13364TIP3    H140037   1.792   6.561   0.373
13364TIP3    H240038   1.778   6.684   0.461
13365TIP3   OH240039   1.252   6.452   0.839
13365TIP3    H140040   1.314   6.385   0.870
13365TIP3    H240041   1.168   6.406   0.836
13366TIP3   OH240042   2.030   6.465   0.079
13366TIP3    H140043   2.060   6.382   0.042
13366TIP3    H240044   2.095   6.487   0.146
13367TIP3   OH240045   1.134   5.496   0.539
13367TIP3    H140046   1.171   5.584   0.544
13367TIP3    H240047   1.063   5.495   0.603
13368TIP3   OH240048   1.523   6.449   0.669
13368TIP3    H140049   1.452   6.425   0.728
13368TIP3    H240050   1.528   6.545   0.674
13369TIP3   OH240051   1.601   6.038   0.131
13369TIP3    H140052   1.607   5.946   0.105
13369TIP3    H240053   1.576   6.036   0.223
13370TIP3   OH240054   1.530   6.061   0.394
13370TIP3    H140055   1.555   6.025   0.479
13370TIP3    H240056   1.539   6.155   0.404
13371TIP3   OH240057   1.216   5.750   0.594
13371TIP3    H140058   1.216   5.785   0.683
13371TIP3    H240059   1.264   5.815   0.543
13372TIP3   OH240060   1.804   6.246   0.363
13372TIP3    H140061   1.720   6.273   0.402
13372TIP3    H240062   1.824   6.313   0.298
13373TIP3   OH240063   1.551   6.328   0.429
13373TIP3    H140064   1.517   6.396   0.370
13373TIP3    H240065   1.541   6.365   0.516
13374TIP3   OH240066   1.268   5.969   0.412
13374TIP3    H140067   1.333   6.039   0.420
13374TIP3    H240068   1.305   5.907   0.350
13375TIP3   OH240069   1.220   5.230   0.513
13375TIP3    H140070   1.192   5.318   0.538
13375TIP3    H240071   1.196   5.176   0.588
13376TIP3   OH240072   1.109   6.147   0.832
13376TIP3    H140073   1.031   6.202   0.825
13376TIP3    H240074   1.164   6.175   0.759
13377TIP3   OH240075   1.750   6.252   0.058
13377TIP3    H140076   1.697   6.180   0.090
13377TIP3    H240077   1.823   6.209   0.012
13378TIP3   OH240078   7.834   2.243   6.895
13378TIP3    H140079   7.908   2.259   6.953
13378TIP3    H240080   7.871   2.248   6.807
13379TIP3   OH240081   1.406   5.771   0.279
13379TIP3    H140082   1.448   5.734   0.357
13379TIP3    H240083   1.476   5.779   0.215
13380TIP3   OH240084   1.897   5.958   0.099
13380TIP3    H140085   1.883   5.989   0.189
13380TIP3    H240086   1.873   5.866   0.102
13381TIP3   OH240087   1.512   6.538   0.254
13381TIP3    H140088   1.605   6.523   0.237
13381TIP3    H240089   1.480   6.582   0.176
13382TIP3   OH240090   0.999   5.909   0.464
13382TIP3    H140091   1.090   5.935   0.451
13382TIP3    H240092   0.993   5.821   0.428
13383TIP3   OH240093   0.908   6.523   0.880
13383TIP3    H140094   0.846   6.464   0.838
13383TIP3    H240095   0.955   6.469   0.943
13384TIP3   OH240096   1.046   6.372   1.056
13384TIP3    H140097   1.054   6.292   1.107
13384TIP3    H240098   1.080   6.441   1.114
13385TIP3   OH240099   1.007   6.312   0.631
13385TIP3    H140100   0.929   6.268   0.596
13385TIP3    H240101   1.003   6.400   0.594
13386TIP3   OH240102   1.777   6.485   0.195
13386TIP3    H140103   1.864   6.508   0.161
13386TIP3    H240104   1.748   6.412   0.140
13387TIP3   OH240105   1.090   6.318   0.254
13387TIP3    H140106   1.092   6.341   0.347
13387TIP3    H240107   1.174   6.275   0.239
13388TIP3   OH240108   5.286   7.292   1.078
13388TIP3    H140109   5.284   7.388   1.084
13388TIP3    H240110   5.379   7.270   1.089
13389TIP3   OH240111   5.328   7.603   1.135
13389TIP3    H140112   5.370   7.681   1.099
13389TIP3    H240113   5.237   7.609   1.109
13390TIP3   OH240114   6.752   7.166   1.427
13390TIP3    H140115   6.726   7.257   1.414
13390TIP3    H240116   6.691   7.116   1.374
13391TIP3   OH240117   6.975   7.496   1.448
13391TIP3    H140118   6.990   7.414   1.496
13391TIP3    H240119   7.002   7.565   1.508
13392TIP3   OH240120   6.620   7.921   1.492
13392TIP3    H140121   6.663   7.862   1.430
13392TIP3    H240122   6.652   7.894   1.578
13393TIP3   OH240123   6.623   7.382   1.295
13393TIP3    H140124   6.598   7.366   1.204
13393TIP3    H240125   6.599   7.474   1.310
13394TIP3   OH240126   6.766   7.771   1.315
13394TIP3    H140127   6.804   7.684   1.299
13394TIP3    H240128   6.828   7.832   1.276
13395TIP3   OH240129   6.879   7.548   1.203
13395TIP3    H140130   6.863   7.463   1.162
13395TIP3    H240131   6.920   7.526   1.287
13396TIP3   OH240132   6.588   7.028   1.262
13396TIP3    H140133   6.505   7.071   1.244
13396TIP3    H240134   6.625   7.010   1.175
13397TIP3   OH240135   6.541   6.801   0.965
13397TIP3    H140136   6.604   6.856   1.011
13397TIP3    H240137   6.594   6.738   0.916
13398TIP3   OH240138   6.915   7.107   1.208
13398TIP3    H140139   6.868   7.117   1.291
13398TIP3    H240140   7.000   7.070   1.233
13399TIP3   OH240141   6.759   6.956   1.045
13399TIP3    H140142   6.812   7.017   1.096
13399TIP3    H240143   6.784   6.973   0.954
13400TIP3   OH240144   6.522   7.644   1.326
13400TIP3    H140145   6.593   7.707   1.313
13400TIP3    H240146   6.447   7.682   1.280
13401TIP3   OH240147   7.280   6.192   1.085
13401TIP3    H140148   7.193   6.203   1.124
13401TIP3    H240149   7.296   6.274   1.038
13402TIP3   OH240150   7.079   7.551   0.646
13402TIP3    H140151   7.075   7.644   0.622
13402TIP3    H240152   7.170   7.527   0.633
13403TIP3   OH240153   6.393   7.880   1.129
13403TIP3    H140154   6.346   7.858   1.049
13403TIP3    H240155   6.363   7.967   1.152
13404TIP3   OH240156   6.592   7.782   0.768
13404TIP3    H140157   6.648   7.714   0.732
13404TIP3    H240158   6.625   7.795   0.857
13405TIP3   OH240159   6.642   7.830   1.036
13405TIP3    H140160   6.556   7.840   1.076
13405TIP3    H240161   6.695   7.787   1.104
13406TIP3   OH240162   6.844   6.998   0.793
13406TIP3    H140163   6.805   6.976   0.709
13406TIP3    H240164   6.926   7.042   0.771
13407TIP3   OH240165   6.558   6.376   1.100
13407TIP3    H140166   6.500   6.401   1.172
13407TIP3    H240167   6.517   6.296   1.064
13408TIP3   OH240168   6.802   6.852   1.358
13408TIP3    H140169   6.715   6.888   1.340
13408TIP3    H240170   6.812   6.780   1.296
13409TIP3   OH240171   6.240   6.392   1.069
13409TIP3    H140172   6.213   6.322   1.128
13409TIP3    H240173   6.159   6.425   1.031
13410TIP3   OH240174   6.075   6.628   1.170
13410TIP3    H140175   6.021   6.621   1.091
13410TIP3    H240176   6.160   6.657   1.139
13411TIP3   OH240177   6.348   7.163   1.201
13411TIP3    H140178   6.283   7.108   1.157
13411TIP3    H240179   6.304   7.192   1.281
13412TIP3   OH240180   6.807   6.471   1.057
13412TIP3    H140181   6.714   6.454   1.071
13412TIP3    H240182   6.818   6.564   1.076
13413TIP3   OH240183   6.887   6.718   1.135
13413TIP3    H140184   6.979   6.725   1.159
13413TIP3    H240185   6.865   6.804   1.098
13414TIP3   OH240186   6.497   7.321   1.031
13414TIP3    H140187   6.450   7.405   1.030
13414TIP3    H240188   6.443   7.264   1.086
13415TIP3   OH240189   7.297   6.806   0.993
13415TIP3    H140190   7.238   6.771   0.927
13415TIP3    H240191   7.307   6.898   0.971
13416TIP3   OH240192   7.015   7.624   0.914
13416TIP3    H140193   6.983   7.567   0.983
13416TIP3    H240194   7.022   7.566   0.837
13417TIP3   OH240195   6.039   7.754   1.307
13417TIP3    H140196   5.990   7.746   1.389
13417TIP3    H240197   6.081   7.839   1.312
13418TIP3   OH240198   6.772   7.368   0.813
13418TIP3    H140199   6.826   7.347   0.890
13418TIP3    H240200   6.684   7.338   0.837
13419TIP3   OH240201   6.938   7.310   1.027
13419TIP3    H140202   6.920   7.241   1.090
13419TIP3    H240203   7.033   7.303   1.011
13420TIP3   OH240204   6.142   7.340   0.817
13420TIP3    H140205   6.150   7.250   0.786
13420TIP3    H240206   6.118   7.332   0.909
13421TIP3   OH240207   6.082   7.350   1.086
13421TIP3    H140208   6.132   7.333   1.166
13421TIP3    H240209   6.081   7.446   1.080
13422TIP3   OH240210   6.892   6.455   1.321
13422TIP3    H140211   6.862   6.459   1.230
13422TIP3    H240212   6.824   6.501   1.371
13423TIP3   OH240213   6.355   7.552   1.037
13423TIP3    H140214   6.265   7.565   1.066
13423TIP3    H240215   6.369   7.619   0.970
13424TIP3   OH240216   6.092   7.619   1.080
13424TIP3    H140217   6.067   7.686   1.017
13424TIP3    H240218   6.070   7.657   1.165
13425TIP3   OH240219   5.815   7.264   1.095
13425TIP3    H140220   5.889   7.324   1.101
13425TIP3    H240221   5.847   7.191   1.042
13426TIP3   OH240222   1.397  -0.007   1.590
13426TIP3    H140223   1.361   0.038   1.514
13426TIP3    H240224   1.492  -0.004   1.577
13427TIP3   OH240225   6.301   7.544   0.727
13427TIP3    H140226   6.245   7.475   0.762
13427TIP3    H240227   6.376   7.497   0.689
13428TIP3   OH240228   6.736   7.586   0.640
13428TIP3    H140229   6.773   7.518   0.696
13428TIP3    H240230   6.787   7.579   0.559
13429TIP3   OH240231   5.953   7.069   0.949
13429TIP3    H140232   6.012   7.043   1.020
13429TIP3    H240233   6.009   7.077   0.872
13430TIP3   OH240234   6.468   7.264   0.760
13430TIP3    H140235   6.465   7.277   0.855
13430TIP3    H240236   6.464   7.169   0.749
13431TIP3   OH240237   6.161   6.986   1.108
13431TIP3    H140238   6.131   6.964   1.197
13431TIP3    H240239   6.195   6.903   1.074
13432TIP3   OH240240   6.266   6.749   1.003
13432TIP3    H140241   6.239   6.758   0.912
13432TIP3    H240242   6.362   6.753   1.000
13433TIP3   OH240243   7.077   7.092   0.674
13433TIP3    H140244   7.059   7.044   0.593
13433TIP3    H240245   7.044   7.180   0.658
13434TIP3   OH240246   6.067   7.833   0.911
13434TIP3    H140247   6.161   7.823   0.896
13434TIP3    H240248   6.035   7.882   0.835
13435TIP3   OH240249   5.546   7.214   1.108
13435TIP3    H140250   5.640   7.230   1.104
13435TIP3    H240251   5.536   7.122   1.086
13436TIP3   OH240252   1.670   0.056   1.551
13436TIP3    H140253   1.696   0.126   1.611
13436TIP3    H240254   1.722   0.071   1.472
13437TIP3   OH240255   7.216   7.284   1.002
13437TIP3    H140256   7.277   7.350   0.969
13437TIP3    H240257   7.261   7.245   1.077
13438TIP3   OH240258   7.353   7.152   1.194
13438TIP3    H140259   7.283   7.108   1.241
13438TIP3    H240260   7.412   7.183   1.262
13439TIP3   OH240261   7.370   7.542   1.609
13439TIP3    H140262   7.440   7.477   1.605
13439TIP3    H240263   7.403   7.617   1.559
13440TIP3   OH240264   7.276   7.054   0.858
13440TIP3    H140265   7.210   7.052   0.790
13440TIP3    H240266   7.253   7.129   0.913
13441TIP3   OH240267   7.140   6.723   0.796
13441TIP3    H140268   7.095   6.763   0.722
13441TIP3    H240269   7.118   6.630   0.790
13442TIP3   OH240270   7.148   6.986   1.286
13442TIP3    H140271   7.144   6.893   1.264
13442TIP3    H240272   7.159   6.989   1.381
13443TIP3   OH240273   7.088   6.458   0.791
13443TIP3    H140274   7.153   6.422   0.852
13443TIP3    H240275   7.010   6.405   0.806
13444TIP3   OH240276   7.158   6.718   1.216
13444TIP3    H140277   7.192   6.637   1.254
13444TIP3    H240278   7.215   6.734   1.141
13445TIP3   OH240279   7.264   6.449   1.277
13445TIP3    H140280   7.269   6.409   1.363
13445TIP3    H240281   7.188   6.407   1.235
13446TIP3   OH240282   7.340   6.398   0.916
13446TIP3    H140283   7.365   6.321   0.866
13446TIP3    H240284   7.394   6.469   0.880
13447TIP3   OH240285   6.920   7.943   1.180
13447TIP3    H140286   6.965   7.927   1.097
13447TIP3    H240287   6.971   8.012   1.222
13448TIP3   OH240288   7.061   6.256   1.237
13448TIP3    H140289   6.989   6.317   1.254
13448TIP3    H240290   7.028   6.171   1.265
13449TIP3   OH240291   5.600   7.632   1.264
13449TIP3    H140292   5.528   7.613   1.204
13449TIP3    H240293   5.570   7.707   1.315
13450TIP3   OH240294   6.333   7.780   0.861
13450TIP3    H140295   6.419   7.806   0.828
13450TIP3    H240296   6.307   7.708   0.804
13451TIP3   OH240297   7.050   7.890   0.940
13451TIP3    H140298   7.035   7.795   0.935
13451TIP3    H240299   7.003   7.925   0.865
13452TIP3   OH240300   5.640   7.619   0.926
13452TIP3    H140301   5.650   7.638   1.019
13452TIP3    H240302   5.722   7.576   0.901
13453TIP3   OH240303   0.042   7.423   0.904
13453TIP3    H140304   0.013   7.512   0.884
13453TIP3    H240305  -0.031   7.367   0.875
13454TIP3   OH240306   0.040   7.419   1.297
13454TIP3    H140307   0.078   7.397   1.382
13454TIP3    H240308   0.001   7.337   1.266
13455TIP3   OH240309   7.859   7.358   1.643
13455TIP3    H140310   7.869   7.289   1.709
13455TIP3    H240311   7.943   7.359   1.597
13456TIP3   OH240312   0.291   7.720   0.976
13456TIP3    H140313   0.270   7.654   1.041
13456TIP3    H240314   0.318   7.797   1.027
13457TIP3   OH240315   7.815   7.721   1.387
13457TIP3    H140316   7.800   7.627   1.378
13457TIP3    H240317   7.909   7.731   1.374
13458TIP3   OH240318   7.512   6.947   1.121
13458TIP3    H140319   7.488   7.039   1.131
13458TIP3    H240320   7.439   6.899   1.159
13459TIP3   OH240321   7.587   7.215   1.332
13459TIP3    H140322   7.639   7.144   1.370
13459TIP3    H240323   7.650   7.272   1.290
13460TIP3   OH240324   2.775   0.170   0.990
13460TIP3    H140325   2.815   0.101   0.938
13460TIP3    H240326   2.755   0.129   1.074
13461TIP3   OH240327   8.346   7.644   1.339
13461TIP3    H140328   8.379   7.566   1.297
13461TIP3    H240329   8.424   7.694   1.364
13462TIP3   OH240330   0.844   6.988   1.319
13462TIP3    H140331   0.879   7.063   1.367
13462TIP3    H240332   0.849   7.014   1.227
13463TIP3   OH240333   0.253   7.143   1.366
13463TIP3    H140334   0.297   7.061   1.388
13463TIP3    H240335   0.222   7.131   1.276
13464TIP3   OH240336   8.100   6.796   1.336
13464TIP3    H140337   8.083   6.874   1.284
13464TIP3    H240338   8.060   6.725   1.287
13465TIP3   OH240339   0.292   6.897   0.955
13465TIP3    H140340   0.359   6.880   1.022
13465TIP3    H240341   0.341   6.933   0.881
13466TIP3   OH240342   7.727   7.002   1.438
13466TIP3    H140343   7.805   7.002   1.494
13466TIP3    H240344   7.673   6.931   1.472
13467TIP3   OH240345   8.162   7.207   1.243
13467TIP3    H140346   8.256   7.191   1.248
13467TIP3    H240347   8.125   7.123   1.216
13468TIP3   OH240348   0.913   7.186   1.498
13468TIP3    H140349   0.832   7.235   1.484
13468TIP3    H240350   0.901   7.142   1.582
13469TIP3   OH240351   8.429   7.643   0.776
13469TIP3    H140352   8.392   7.628   0.689
13469TIP3    H240353   8.386   7.723   0.806
13470TIP3   OH240354   8.202   7.582   1.565
13470TIP3    H140355   8.138   7.647   1.593
13470TIP3    H240356   8.245   7.622   1.489
13471TIP3   OH240357   0.494   6.900   1.138
13471TIP3    H140358   0.461   6.869   1.222
13471TIP3    H240359   0.544   6.979   1.159
13472TIP3   OH240360   7.949   6.888   1.552
13472TIP3    H140361   8.007   6.963   1.562
13472TIP3    H240362   7.992   6.833   1.487
13473TIP3   OH240363   8.013   7.759   1.668
13473TIP3    H140364   7.984   7.841   1.628
13473TIP3    H240365   7.953   7.746   1.742
13474TIP3   OH240366   7.411   7.456   0.893
13474TIP3    H140367   7.372   7.479   0.809
13474TIP3    H240368   7.430   7.541   0.934
13475TIP3   OH240369   0.354   7.969   1.136
13475TIP3    H140370   0.268   7.958   1.176
13475TIP3    H240371   0.348   8.053   1.090
13476TIP3   OH240372   0.650   6.893   1.497
13476TIP3    H140373   0.559   6.902   1.469
13476TIP3    H240374   0.701   6.923   1.422
13477TIP3   OH240375   8.442   6.498   1.464
13477TIP3    H140376   8.452   6.406   1.489
13477TIP3    H240377   8.427   6.543   1.547
13478TIP3   OH240378   0.059   8.009   0.809
13478TIP3    H140379   0.104   7.926   0.792
13478TIP3    H240380   0.117   8.076   0.773
13479TIP3   OH240381   0.201   7.793   0.725
13479TIP3    H140382   0.162   7.715   0.684
13479TIP3    H240383   0.237   7.760   0.807
13480TIP3   OH240384   0.573   7.877   1.479
13480TIP3    H140385   0.566   7.799   1.425
13480TIP3    H240386   0.559   7.950   1.418
13481TIP3   OH240387   8.373   7.272   0.740
13481TIP3    H140388   8.295   7.324   0.722
13481TIP3    H240389   8.420   7.269   0.657
13482TIP3   OH240390   8.335   7.056   0.455
13482TIP3    H140391   8.397   7.111   0.502
13482TIP3    H240392   8.390   6.995   0.405
13483TIP3   OH240393   0.779   7.523   1.323
13483TIP3    H140394   0.696   7.569   1.336
13483TIP3    H240395   0.803   7.543   1.232
13484TIP3   OH240396   0.223   7.354   0.713
13484TIP3    H140397   0.166   7.378   0.786
13484TIP3    H240398   0.306   7.330   0.753
13485TIP3   OH240399   0.452   7.385   1.630
13485TIP3    H140400   0.458   7.462   1.687
13485TIP3    H240401   0.367   7.395   1.586
13486TIP3   OH240402   7.958   7.348   1.125
13486TIP3    H140403   7.918   7.292   1.059
13486TIP3    H240404   8.032   7.297   1.158
13487TIP3   OH240405   8.082   7.754   1.278
13487TIP3    H140406   8.062   7.729   1.187
13487TIP3    H240407   8.171   7.722   1.292
13488TIP3   OH240408   8.080   7.352   1.474
13488TIP3    H140409   8.113   7.320   1.390
13488TIP3    H240410   8.131   7.432   1.490
13489TIP3   OH240411   0.117   7.963   1.262
13489TIP3    H140412   0.098   8.040   1.315
13489TIP3    H240413   0.100   7.889   1.320
13490TIP3   OH240414   8.226   7.907   1.756
13490TIP3    H140415   8.182   7.955   1.827
13490TIP3    H240416   8.160   7.846   1.724
13491TIP3   OH240417   0.060   7.216   0.536
13491TIP3    H140418   0.117   7.273   0.586
13491TIP3    H240419   0.083   7.233   0.444
13492TIP3   OH240420   8.307   7.891   0.814
13492TIP3    H140421   8.388   7.941   0.822
13492TIP3    H240422   8.246   7.951   0.771
13493TIP3   OH240423   0.576   6.452   0.589
13493TIP3    H140424   0.496   6.473   0.637
13493TIP3    H240425   0.593   6.531   0.537
13494TIP3   OH240426   7.820   7.195   0.928
13494TIP3    H140427   7.759   7.246   0.875
13494TIP3    H240428   7.774   7.113   0.946
13495TIP3   OH240429   0.379   7.820   0.140
13495TIP3    H140430   0.385   7.914   0.122
13495TIP3    H240431   0.468   7.787   0.125
13496TIP3   OH240432   7.462   7.780   1.468
13496TIP3    H140433   7.555   7.769   1.446
13496TIP3    H240434   7.458   7.864   1.515
13497TIP3   OH240435   3.656   0.212   1.534
13497TIP3    H140436   3.659   0.117   1.545
13497TIP3    H240437   3.571   0.238   1.570
13498TIP3   OH240438   2.777  -0.001   1.650
13498TIP3    H140439   2.776   0.088   1.686
13498TIP3    H240440   2.697  -0.041   1.684
13499TIP3   OH240441   2.523   0.122   0.616
13499TIP3    H140442   2.476   0.107   0.534
13499TIP3    H240443   2.487   0.204   0.650
13500TIP3   OH240444   2.722   0.024   0.255
13500TIP3    H140445   2.778  -0.044   0.218
13500TIP3    H240446   2.755   0.036   0.344
13501TIP3   OH240447   2.773   0.073   0.525
13501TIP3    H140448   2.686   0.084   0.561
13501TIP3    H240449   2.825   0.036   0.597
13502TIP3   OH240450   0.721   7.356   1.768
13502TIP3    H140451   0.628   7.373   1.758
13502TIP3    H240452   0.729   7.261   1.772
13503TIP3   OH240453   0.479   7.138   1.753
13503TIP3    H140454   0.450   7.158   1.842
13503TIP3    H240455   0.455   7.216   1.702
13504TIP3   OH240456   0.139   7.257   0.280
13504TIP3    H140457   0.101   7.232   0.196
13504TIP3    H240458   0.223   7.296   0.258
13505TIP3   OH240459   8.345   6.630   0.587
13505TIP3    H140460   8.314   6.629   0.678
13505TIP3    H240461   8.309   6.549   0.549
13506TIP3   OH240462   8.105   7.099   1.572
13506TIP3    H140463   8.168   7.091   1.644
13506TIP3    H240464   8.111   7.190   1.544
13507TIP3   OH240465   8.027   6.980   1.147
13507TIP3    H140466   7.933   6.967   1.158
13507TIP3    H240467   8.046   6.944   1.061
13508TIP3   OH240468   0.009   7.070   0.873
13508TIP3    H140469  -0.041   7.141   0.832
13508TIP3    H240470   0.065   7.037   0.803
13509TIP3   OH240471   0.170   7.098   1.107
13509TIP3    H140472   0.103   7.127   1.046
13509TIP3    H240473   0.206   7.018   1.066
13510TIP3   OH240474   8.003   6.607   0.552
13510TIP3    H140475   7.996   6.608   0.648
13510TIP3    H240476   7.928   6.660   0.523
13511TIP3   OH240477   7.568   6.705   1.277
13511TIP3    H140478   7.587   6.706   1.371
13511TIP3    H240479   7.562   6.612   1.255
13512TIP3   OH240480   7.535   6.678   0.960
13512TIP3    H140481   7.559   6.688   0.868
13512TIP3    H240482   7.446   6.712   0.965
13513TIP3   OH240483   0.176   7.344   1.530
13513TIP3    H140484   0.209   7.274   1.475
13513TIP3    H240485   0.155   7.301   1.613
13514TIP3   OH240486   8.353   6.809   1.206
13514TIP3    H140487   8.275   6.804   1.262
13514TIP3    H240488   8.427   6.802   1.267
13515TIP3   OH240489   7.790   6.844   1.188
13515TIP3    H140490   7.755   6.869   1.274
13515TIP3    H240491   7.851   6.773   1.207
13516TIP3   OH240492   8.047   6.858   0.902
13516TIP3    H140493   8.140   6.874   0.887
13516TIP3    H240494   8.005   6.883   0.820
13517TIP3   OH240495   0.347   6.882   1.394
13517TIP3    H140496   0.335   6.890   1.489
13517TIP3    H240497   0.279   6.822   1.366
13518TIP3   OH240498   7.893   6.892   0.675
13518TIP3    H140499   7.829   6.846   0.621
13518TIP3    H240500   7.950   6.936   0.611
13519TIP3   OH240501   3.357   0.555   1.614
13519TIP3    H140502   3.357   0.574   1.520
13519TIP3    H240503   3.389   0.635   1.655
13520TIP3   OH240504   8.428   7.152   1.292
13520TIP3    H140505   8.503   7.102   1.262
13520TIP3    H240506   8.419   7.130   1.385
13521TIP3   OH240507   7.956   6.624   1.183
13521TIP3    H140508   7.912   6.550   1.224
13521TIP3    H240509   8.006   6.585   1.111
13522TIP3   OH240510   8.411   7.077   1.555
13522TIP3    H140511   8.337   7.027   1.589
13522TIP3    H240512   8.485   7.050   1.609
13523TIP3   OH240513   8.141   7.423   0.690
13523TIP3    H140514   8.070   7.359   0.675
13523TIP3    H240515   8.123   7.458   0.778
13524TIP3   OH240516   0.541   7.658   1.314
13524TIP3    H140517   0.564   7.711   1.238
13524TIP3    H240518   0.458   7.616   1.291
13525TIP3   OH240519   0.100   6.732   0.562
13525TIP3    H140520   0.005   6.715   0.565
13525TIP3    H240521   0.108   6.826   0.580
13526TIP3   OH240522   0.049   7.746   1.678
13526TIP3    H140523   0.042   7.699   1.760
13526TIP3    H240524   0.004   7.829   1.694
13527TIP3   OH240525   0.170   6.987   0.657
13527TIP3    H140526   0.264   6.992   0.671
13527TIP3    H240527   0.149   7.064   0.604
13528TIP3   OH240528   7.824   7.445   1.344
13528TIP3    H140529   7.871   7.418   1.266
13528TIP3    H240530   7.872   7.404   1.417
13529TIP3   OH240531   8.287   7.576   0.516
13529TIP3    H140532   8.241   7.659   0.516
13529TIP3    H240533   8.235   7.520   0.574
13530TIP3   OH240534   3.041  -0.008   1.585
13530TIP3    H140535   2.947  -0.025   1.589
13530TIP3    H240536   3.056   0.061   1.649
13531TIP3   OH240537   0.610   7.080   0.487
13531TIP3    H140538   0.548   7.032   0.432
13531TIP3    H240539   0.609   7.169   0.452
13532TIP3   OH240540   0.819   7.946   1.563
13532TIP3    H140541   0.725   7.929   1.552
13532TIP3    H240542   0.860   7.910   1.485
13533TIP3   OH240543   0.323   7.890   0.405
13533TIP3    H140544   0.276   7.825   0.456
13533TIP3    H240545   0.329   7.851   0.317
13534TIP3   OH240546   0.305   7.523   1.232
13534TIP3    H140547   0.213   7.499   1.248
13534TIP3    H240548   0.342   7.446   1.188
13535TIP3   OH240549   7.939   7.757   0.991
13535TIP3    H140550   7.938   7.837   0.939
13535TIP3    H240551   7.848   7.744   1.018
13536TIP3   OH240552   7.506   7.055   0.702
13536TIP3    H140553   7.550   7.139   0.718
13536TIP3    H240554   7.429   7.057   0.758
13537TIP3   OH240555   8.068   7.517   0.932
13537TIP3    H140556   8.037   7.606   0.949
13537TIP3    H240557   8.036   7.465   1.006
13538TIP3   OH240558   2.541   0.084   1.456
13538TIP3    H140559   2.575   0.156   1.404
13538TIP3    H240560   2.618   0.043   1.495
13539TIP3   OH240561   2.171  -0.012   0.851
13539TIP3    H140562   2.090   0.029   0.882
13539TIP3    H240563   2.234   0.059   0.846
13540TIP3   OH240564   0.096   7.728   1.415
13540TIP3    H140565   0.086   7.730   1.510
13540TIP3    H240566   0.170   7.670   1.400
13541TIP3   OH240567   0.070   7.625   0.305
13541TIP3    H140568   0.122   7.599   0.381
13541TIP3    H240569  -0.019   7.596   0.326
13542TIP3   OH240570   3.166   0.248   1.465
13542TIP3    H140571   3.088   0.194   1.447
13542TIP3    H240572   3.165   0.314   1.396
13543TIP3   OH240573   3.242   0.083   0.121
13543TIP3    H140574   3.278   0.149   0.063
13543TIP3    H240575   3.163   0.123   0.158
13544TIP3   OH240576   0.227   7.554   0.521
13544TIP3    H140577   0.213   7.490   0.591
13544TIP3    H240578   0.320   7.547   0.501
13545TIP3   OH240579   7.650   7.964   1.599
13545TIP3    H140580   7.704   7.886   1.612
13545TIP3    H240581   7.643   8.003   1.685
13546TIP3   OH240582   7.935   7.599   0.305
13546TIP3    H140583   7.947   7.509   0.275
13546TIP3    H240584   7.912   7.592   0.397
13547TIP3   OH240585   7.876   7.612   0.579
13547TIP3    H140586   7.954   7.583   0.627
13547TIP3    H240587   7.878   7.707   0.583
13548TIP3   OH240588   7.612   7.304   0.778
13548TIP3    H140589   7.547   7.346   0.834
13548TIP3    H240590   7.629   7.367   0.708
13549TIP3   OH240591   0.299   6.921   1.654
13549TIP3    H140592   0.357   6.965   1.717
13549TIP3    H240593   0.217   6.908   1.702
13550TIP3   OH240594   0.148   6.685   0.838
13550TIP3    H140595   0.133   6.704   0.746
13550TIP3    H240596   0.187   6.765   0.874
13551TIP3   OH240597   8.142   7.804   0.522
13551TIP3    H140598   8.057   7.829   0.561
13551TIP3    H240599   8.163   7.875   0.462
13552TIP3   OH240600   8.327   6.872   0.939
13552TIP3    H140601   8.390   6.941   0.918
13552TIP3    H240602   8.336   6.859   1.033
13553TIP3   OH240603   0.131   7.218   1.768
13553TIP3    H140604   0.147   7.271   1.846
13553TIP3    H240605   0.148   7.128   1.796
13554TIP3   OH240606   8.476   6.589   1.034
13554TIP3    H140607   8.472   6.660   1.098
13554TIP3    H240608   8.537   6.621   0.967
13555TIP3   OH240609   7.887   7.884   0.596
13555TIP3    H140610   7.862   7.950   0.531
13555TIP3    H240611   7.868   7.926   0.680
13556TIP3   OH240612   7.991   6.597   0.830
13556TIP3    H140613   7.990   6.687   0.863
13556TIP3    H240614   8.083   6.571   0.834
13557TIP3   OH240615   0.737   7.069   1.697
13557TIP3    H140616   0.646   7.089   1.719
13557TIP3    H240617   0.731   6.996   1.634
13558TIP3   OH240618   0.391   7.282   1.110
13558TIP3    H140619   0.315   7.225   1.119
13558TIP3    H240620   0.461   7.237   1.157
13559TIP3   OH240621   7.614   7.506   0.581
13559TIP3    H140622   7.684   7.570   0.592
13559TIP3    H240623   7.647   7.446   0.514
13560TIP3   OH240624   7.531   6.780   0.713
13560TIP3    H140625   7.543   6.875   0.713
13560TIP3    H240626   7.469   6.764   0.642
13561TIP3   OH240627   3.199   0.226   1.058
13561TIP3    H140628   3.153   0.270   0.987
13561TIP3    H240629   3.292   0.240   1.040
13562TIP3   OH240630   7.447   7.728   0.971
13562TIP3    H140631   7.424   7.769   1.054
13562TIP3    H240632   7.524   7.776   0.940
13563TIP3   OH240633   8.097   7.802   0.211
13563TIP3    H140634   8.043   7.732   0.249
13563TIP3    H240635   8.172   7.756   0.173
13564TIP3   OH240636   3.109   0.105   1.836
13564TIP3    H140637   3.149   0.019   1.823
13564TIP3    H240638   3.179   0.167   1.820
13565TIP3   OH240639   0.033   7.843   0.125
13565TIP3    H140640   0.074   7.778   0.182
13565TIP3    H240641   0.086   7.840   0.045
13566TIP3   OH240642   7.745   7.317   0.438
13566TIP3    H140643   7.801   7.291   0.512
13566TIP3    H240644   7.806   7.324   0.364
13567TIP3   OH240645   8.260   7.518   0.247
13567TIP3    H140646   8.260   7.533   0.341
13567TIP3    H240647   8.259   7.423   0.238
13568TIP3   OH240648   0.368   7.776   1.632
13568TIP3    H140649   0.444   7.808   1.584
13568TIP3    H240650   0.297   7.835   1.607
13569TIP3   OH240651   7.946   7.227   0.653
13569TIP3    H140652   7.923   7.189   0.738
13569TIP3    H240653   7.986   7.156   0.604
13570TIP3   OH240654   8.056   7.022   0.497
13570TIP3    H140655   8.027   7.029   0.406
13570TIP3    H240656   8.151   7.024   0.492
13571TIP3   OH240657   0.369   7.348   0.161
13571TIP3    H140658   0.360   7.297   0.080
13571TIP3    H240659   0.336   7.435   0.139
13572TIP3   OH240660   8.369   7.420   1.720
13572TIP3    H140661   8.447   7.383   1.678
13572TIP3    H240662   8.332   7.479   1.653
13573TIP3   OH240663   0.499   7.601   1.796
13573TIP3    H140664   0.438   7.660   1.752
13573TIP3    H240665   0.586   7.632   1.770
13574TIP3   OH240666   2.195   0.062   0.397
13574TIP3    H140667   2.290   0.055   0.384
13574TIP3    H240668   2.165   0.117   0.325
13575TIP3   OH240669   7.340   7.468   0.610
13575TIP3    H140670   7.432   7.491   0.598
13575TIP3    H240671   7.332   7.380   0.573
13576TIP3   OH240672   1.554   0.050   1.064
13576TIP3    H140673   1.504  -0.013   1.012
13576TIP3    H240674   1.626  -0.001   1.101
13577TIP3   OH240675   7.398   7.900   1.210
13577TIP3    H140676   7.385   7.847   1.289
13577TIP3    H240677   7.450   7.975   1.240
13578TIP3   OH240678   3.457   0.304   1.022
13578TIP3    H140679   3.474   0.340   1.109
13578TIP3    H240680   3.507   0.359   0.962
13579TIP3   OH240681   3.474   0.330   1.301
13579TIP3    H140682   3.434   0.243   1.297
13579TIP3    H240683   3.552   0.318   1.355
13580TIP3   OH240684   0.501   7.533   0.496
13580TIP3    H140685   0.533   7.623   0.490
13580TIP3    H240686   0.547   7.496   0.572
13581TIP3   OH240687   0.636   7.408   0.702
13581TIP3    H140688   0.568   7.363   0.753
13581TIP3    H240689   0.692   7.450   0.767
13582TIP3   OH240690   0.696   7.800   1.131
13582TIP3    H140691   0.745   7.733   1.084
13582TIP3    H240692   0.691   7.874   1.070
13583TIP3   OH240693   3.351   0.084   1.321
13583TIP3    H140694   3.280   0.123   1.373
13583TIP3    H240695   3.306   0.039   1.250
13584TIP3   OH240696   0.569   7.315   0.342
13584TIP3    H140697   0.504   7.308   0.273
13584TIP3    H240698   0.538   7.387   0.397
13585TIP3   OH240699   0.442   6.988   0.300
13585TIP3    H140700   0.443   7.022   0.211
13585TIP3    H240701   0.415   6.897   0.291
13586TIP3   OH240702   0.452   7.262   0.842
13586TIP3    H140703   0.456   7.167   0.832
13586TIP3    H240704   0.435   7.275   0.936
13587TIP3   OH240705   7.588   7.382   1.563
13587TIP3    H140706   7.578   7.325   1.487
13587TIP3    H240707   7.679   7.372   1.589
13588TIP3   OH240708   0.738   7.699   1.701
13588TIP3    H140709   0.807   7.632   1.695
13588TIP3    H240710   0.779   7.778   1.667
13589TIP3   OH240711   0.936   7.505   1.703
13589TIP3    H140712   0.863   7.446   1.719
13589TIP3    H240713   0.980   7.512   1.788
13590TIP3   OH240714   0.387   6.721   0.287
13590TIP3    H140715   0.459   6.686   0.340
13590TIP3    H240716   0.315   6.660   0.301
13591TIP3   OH240717   0.452   6.978   0.736
13591TIP3    H140718   0.488   6.891   0.753
13591TIP3    H240719   0.503   7.012   0.663
13592TIP3   OH240720   0.603   7.154   1.230
13592TIP3    H140721   0.686   7.175   1.188
13592TIP3    H240722   0.611   7.190   1.319
13593TIP3   OH240723   0.667   7.303   1.455
13593TIP3    H140724   0.597   7.330   1.514
13593TIP3    H240725   0.703   7.385   1.422
13594TIP3   OH240726   0.554   6.726   0.776
13594TIP3    H140727   0.601   6.713   0.858
13594TIP3    H240728   0.492   6.653   0.772
13595TIP3   OH240729   0.638   6.657   0.413
13595TIP3    H140730   0.672   6.588   0.355
13595TIP3    H240731   0.701   6.729   0.404
13596TIP3   OH240732   7.520   6.470   1.150
13596TIP3    H140733   7.428   6.454   1.174
13596TIP3    H240734   7.516   6.532   1.078
13597TIP3   OH240735   3.038   0.179   0.677
13597TIP3    H140736   3.086   0.169   0.594
13597TIP3    H240737   3.084   0.249   0.722
13598TIP3   OH240738   2.313   0.013   1.603
13598TIP3    H140739   2.258   0.083   1.569
13598TIP3    H240740   2.399   0.028   1.564
13599TIP3   OH240741   2.784   0.252   1.751
13599TIP3    H140742   2.829   0.268   1.834
13599TIP3    H240743   2.829   0.306   1.688
13600TIP3   OH240744   2.951   0.410   1.608
13600TIP3    H140745   3.005   0.356   1.550
13600TIP3    H240746   3.008   0.483   1.633
13601TIP3   OH240747   1.991   0.295   1.627
13601TIP3    H140748   1.911   0.332   1.589
13601TIP3    H240749   1.974   0.293   1.721
13602TIP3   OH240750   2.228   0.253   1.490
13602TIP3    H140751   2.145   0.270   1.535
13602TIP3    H240752   2.212   0.280   1.400
13603TIP3   OH240753   2.651   0.280   1.290
13603TIP3    H140754   2.580   0.290   1.227
13603TIP3    H240755   2.663   0.367   1.327
13604TIP3   OH240756   2.918   0.221   1.345
13604TIP3    H140757   2.826   0.236   1.325
13604TIP3    H240758   2.965   0.287   1.293
13605TIP3   OH240759   3.123   0.408   1.251
13605TIP3    H140760   3.110   0.492   1.208
13605TIP3    H240761   3.151   0.349   1.180
13606TIP3   OH240762   1.893   0.060   1.367
13606TIP3    H140763   1.928   0.043   1.454
13606TIP3    H240764   1.960   0.027   1.307
13607TIP3   OH240765   7.762   7.951   1.244
13607TIP3    H140766   7.783   7.872   1.294
13607TIP3    H240767   7.847   7.991   1.226
13608TIP3   OH240768   2.363   0.028   1.240
13608TIP3    H140769   2.394  -0.062   1.228
13608TIP3    H240770   2.406   0.057   1.321
13609TIP3   OH240771   0.100   6.698   1.313
13609TIP3    H140772   0.063   6.626   1.363
13609TIP3    H240773   0.182   6.663   1.277
13610TIP3   OH240774   0.618   6.576   1.226
13610TIP3    H140775   0.655   6.632   1.157
13610TIP3    H240776   0.528   6.605   1.234
13611TIP3   OH240777   0.718   6.683   0.993
13611TIP3    H140778   0.789   6.632   0.955
13611TIP3    H240779   0.744   6.774   0.979
13612TIP3   OH240780   7.841   6.407   1.291
13612TIP3    H140781   7.755   6.380   1.324
13612TIP3    H240782   7.897   6.331   1.307
13613TIP3   OH240783   7.642   6.277   0.986
13613TIP3    H140784   7.676   6.331   0.916
13613TIP3    H240785   7.611   6.339   1.052
13614TIP3   OH240786   8.299   6.452   1.226
13614TIP3    H140787   8.349   6.496   1.158
13614TIP3    H240788   8.344   6.475   1.307
13615TIP3   OH240789   0.333   6.590   1.204
13615TIP3    H140790   0.343   6.555   1.115
13615TIP3    H240791   0.319   6.512   1.258
13616TIP3   OH240792   0.369   6.515   0.769
13616TIP3    H140793   0.286   6.561   0.783
13616TIP3    H240794   0.358   6.430   0.812
13617TIP3   OH240795   7.311   7.857   0.731
13617TIP3    H140796   7.272   7.794   0.792
13617TIP3    H240797   7.357   7.919   0.786
13618TIP3   OH240798   7.761   6.440   0.755
13618TIP3    H140799   7.802   6.376   0.697
13618TIP3    H240800   7.833   6.494   0.787
13619TIP3   OH240801   8.268   6.620   0.853
13619TIP3    H140802   8.329   6.571   0.908
13619TIP3    H240803   8.285   6.711   0.873
13620TIP3   OH240804   2.463   0.021   0.348
13620TIP3    H140805   2.549   0.049   0.315
13620TIP3    H240806   2.438  -0.051   0.291
13621TIP3   OH240807   3.181   0.146   0.443
13621TIP3    H140808   3.177   0.050   0.434
13621TIP3    H240809   3.135   0.178   0.366
13622TIP3   OH240810   3.403   0.283   1.617
13622TIP3    H140811   3.325   0.261   1.566
13622TIP3    H240812   3.395   0.377   1.633
13623TIP3   OH240813   1.831   7.673   0.400
13623TIP3    H140814   1.810   7.764   0.382
13623TIP3    H240815   1.764   7.623   0.352
13624TIP3   OH240816   1.824   7.671   0.778
13624TIP3    H140817   1.903   7.627   0.809
13624TIP3    H240818   1.792   7.614   0.708
13625TIP3   OH240819   1.138   7.578   1.128
13625TIP3    H140820   1.157   7.506   1.188
13625TIP3    H240821   1.214   7.636   1.136
13626TIP3   OH240822   2.083   7.975   0.460
13626TIP3    H140823   2.081   7.904   0.524
13626TIP3    H240824   2.115   8.050   0.509
13627TIP3   OH240825   1.115   7.979   0.860
13627TIP3    H140826   1.103   7.885   0.868
13627TIP3    H240827   1.210   7.992   0.857
13628TIP3   OH240828   0.813   7.193   0.648
13628TIP3    H140829   0.757   7.269   0.668
13628TIP3    H240830   0.754   7.129   0.608
13629TIP3   OH240831   0.884   7.478   0.814
13629TIP3    H140832   0.918   7.410   0.872
13629TIP3    H240833   0.916   7.454   0.727
13630TIP3   OH240834   4.565   0.424   0.476
13630TIP3    H140835   4.606   0.354   0.426
13630TIP3    H240836   4.563   0.392   0.566
13631TIP3   OH240837   1.641   7.901   0.821
13631TIP3    H140838   1.683   7.817   0.801
13631TIP3    H240839   1.715   7.961   0.836
13632TIP3   OH240840   1.381   7.071   0.801
13632TIP3    H140841   1.359   7.144   0.743
13632TIP3    H240842   1.337   6.996   0.763
13633TIP3   OH240843   2.059   7.194   0.421
13633TIP3    H140844   2.118   7.129   0.459
13633TIP3    H240845   2.105   7.227   0.345
13634TIP3   OH240846   1.019   7.274   0.927
13634TIP3    H140847   1.104   7.264   0.972
13634TIP3    H240848   1.023   7.212   0.855
13635TIP3   OH240849   1.458   7.470   0.718
13635TIP3    H140850   1.549   7.444   0.731
13635TIP3    H240851   1.414   7.390   0.689
13636TIP3   OH240852   1.351   7.014   1.253
13636TIP3    H140853   1.321   7.088   1.199
13636TIP3    H240854   1.414   7.053   1.314
13637TIP3   OH240855   1.720   7.893   0.265
13637TIP3    H140856   1.692   7.884   0.174
13637TIP3    H240857   1.682   7.976   0.294
13638TIP3   OH240858   1.474   7.833   1.034
13638TIP3    H140859   1.421   7.901   1.075
13638TIP3    H240860   1.529   7.880   0.971
13639TIP3   OH240861   1.265   7.181   1.024
13639TIP3    H140862   1.324   7.250   1.055
13639TIP3    H240863   1.313   7.139   0.953
13640TIP3   OH240864   4.149   0.013   1.153
13640TIP3    H140865   4.131   0.101   1.119
13640TIP3    H240866   4.072  -0.007   1.207
13641TIP3   OH240867   4.984   0.216   0.616
13641TIP3    H140868   4.903   0.195   0.661
13641TIP3    H240869   4.970   0.303   0.579
13642TIP3   OH240870   4.684   0.252   0.291
13642TIP3    H140871   4.731   0.169   0.276
13642TIP3    H240872   4.743   0.319   0.257
13643TIP3   OH240873   1.995   8.049   0.212
13643TIP3    H140874   1.970   7.971   0.163
13643TIP3    H240875   2.029   8.017   0.295
13644TIP3   OH240876   1.669   7.540   0.220
13644TIP3    H140877   1.590   7.590   0.199
13644TIP3    H240878   1.714   7.531   0.137
13645TIP3   OH240879   7.299   3.304   6.884
13645TIP3    H140880   7.363   3.362   6.926
13645TIP3    H240881   7.352   3.241   6.835
13646TIP3   OH240882   2.015   7.614   0.201
13646TIP3    H140883   1.960   7.636   0.277
13646TIP3    H240884   2.099   7.590   0.239
13647TIP3   OH240885   1.245   7.594   0.608
13647TIP3    H140886   1.235   7.511   0.560
13647TIP3    H240887   1.325   7.582   0.659
13648TIP3   OH240888   1.383   8.012   0.765
13648TIP3    H140889   1.368   7.989   0.674
13648TIP3    H240890   1.471   7.981   0.784
13649TIP3   OH240891   1.388   7.582   0.965
13649TIP3    H140892   1.425   7.556   0.881
13649TIP3    H240893   1.419   7.672   0.979
13650TIP3   OH240894   4.747   0.211   0.736
13650TIP3    H140895   4.732   0.290   0.787
13650TIP3    H240896   4.731   0.139   0.798
13651TIP3   OH240897   4.354   0.135   1.296
13651TIP3    H140898   4.289   0.192   1.338
13651TIP3    H240899   4.301   0.073   1.244
13652TIP3   OH240900   1.855   7.473   0.022
13652TIP3    H140901   1.912   7.531   0.072
13652TIP3    H240902   1.878   7.490  -0.070
13653TIP3   OH240903   1.258   7.700   1.394
13653TIP3    H140904   1.259   7.786   1.436
13653TIP3    H240905   1.169   7.667   1.410
13654TIP3   OH240906   4.434   0.134   0.303
13654TIP3    H140907   4.516   0.182   0.311
13654TIP3    H240908   4.375   0.193   0.257
13655TIP3   OH240909   4.146   0.282   1.384
13655TIP3    H140910   4.109   0.297   1.296
13655TIP3    H240911   4.069   0.267   1.439
13656TIP3   OH240912   2.303   6.711   0.022
13656TIP3    H140913   2.247   6.728   0.098
13656TIP3    H240914   2.322   6.797  -0.014
13657TIP3   OH240915   1.064   7.466   0.443
13657TIP3    H140916   1.009   7.483   0.367
13657TIP3    H240917   1.070   7.370   0.447
13658TIP3   OH240918   7.843   4.069   6.565
13658TIP3    H140919   7.848   4.163   6.547
13658TIP3    H240920   7.932   4.037   6.551
13659TIP3   OH240921   0.896   7.833   1.328
13659TIP3    H140922   0.826   7.817   1.264
13659TIP3    H240923   0.928   7.746   1.351
13660TIP3   OH240924   3.585   0.017   0.963
13660TIP3    H140925   3.680   0.024   0.959
13660TIP3    H240926   3.557   0.096   1.010
13661TIP3   OH240927   4.534   0.267   1.146
13661TIP3    H140928   4.571   0.328   1.210
13661TIP3    H240929   4.469   0.217   1.195
13662TIP3   OH240930   4.318   0.378   0.104
13662TIP3    H140931   4.272   0.360   0.022
13662TIP3    H240932   4.285   0.463   0.131
13663TIP3   OH240933   3.755   0.230   0.489
13663TIP3    H140934   3.798   0.222   0.574
13663TIP3    H240935   3.698   0.152   0.484
13664TIP3   OH240936   7.353   4.289   6.682
13664TIP3    H140937   7.408   4.220   6.645
13664TIP3    H240938   7.385   4.300   6.771
13665TIP3   OH240939   4.569   0.330   0.013
13665TIP3    H140940   4.481   0.341   0.050
13665TIP3    H240941   4.620   0.294   0.086
13666TIP3   OH240942   1.096   8.016   1.316
13666TIP3    H140943   1.137   8.004   1.402
13666TIP3    H240944   1.022   7.956   1.316
13667TIP3   OH240945   0.686   6.198   1.423
13667TIP3    H140946   0.623   6.126   1.414
13667TIP3    H240947   0.656   6.247   1.499
13668TIP3   OH240948   7.604   3.505   6.710
13668TIP3    H140949   7.563   3.483   6.626
13668TIP3    H240950   7.687   3.546   6.686
13669TIP3   OH240951   1.644   6.884   0.073
13669TIP3    H140952   1.605   6.885   0.160
13669TIP3    H240953   1.606   6.806   0.031
13670TIP3   OH240954   1.434   7.366   1.127
13670TIP3    H140955   1.378   7.386   1.202
13670TIP3    H240956   1.431   7.445   1.073
13671TIP3   OH240957   1.301   7.259   0.619
13671TIP3    H140958   1.217   7.221   0.646
13671TIP3    H240959   1.323   7.212   0.538
13672TIP3   OH240960   1.790   7.333   0.354
13672TIP3    H140961   1.745   7.403   0.308
13672TIP3    H240962   1.855   7.301   0.292
13673TIP3   OH240963   1.933   7.376   0.591
13673TIP3    H140964   1.874   7.408   0.522
13673TIP3    H240965   1.977   7.301   0.552
13674TIP3   OH240966   1.233   7.401   1.316
13674TIP3    H140967   1.266   7.461   1.383
13674TIP3    H240968   1.195   7.329   1.365
13675TIP3   OH240969   1.307   6.867   0.041
13675TIP3    H140970   1.290   6.860   0.135
13675TIP3    H240971   1.230   6.913   0.006
13676TIP3   OH240972   0.826   6.911   0.897
13676TIP3    H140973   0.909   6.942   0.934
13676TIP3    H240974   0.852   6.869   0.814
13677TIP3   OH240975   0.811   6.891   0.429
13677TIP3    H140976   0.854   6.921   0.349
13677TIP3    H240977   0.747   6.959   0.448
13678TIP3   OH240978   1.635   7.054   0.707
13678TIP3    H140979   1.545   7.049   0.740
13678TIP3    H240980   1.688   7.074   0.784
13679TIP3   OH240981   1.076   7.127   0.694
13679TIP3    H140982   0.983   7.137   0.672
13679TIP3    H240983   1.095   7.035   0.679
13680TIP3   OH240984   1.346   7.124   0.388
13680TIP3    H140985   1.438   7.128   0.362
13680TIP3    H240986   1.297   7.139   0.307
13681TIP3   OH240987   1.192   7.164   0.167
13681TIP3    H140988   1.125   7.109   0.128
13681TIP3    H240989   1.244   7.195   0.093
13682TIP3   OH240990   1.239   7.925   1.552
13682TIP3    H140991   1.302   7.988   1.586
13682TIP3    H240992   1.195   7.891   1.630
13683TIP3   OH240993   1.721   7.380   0.771
13683TIP3    H140994   1.796   7.370   0.713
13683TIP3    H240995   1.757   7.369   0.860
13684TIP3   OH240996   1.250   6.881   0.661
13684TIP3    H140997   1.205   6.819   0.718
13684TIP3    H240998   1.280   6.828   0.587
13685TIP3   OH240999   1.432   7.678   0.171
13685TIP3    H141000   1.364   7.612   0.160
13685TIP3    H241001   1.415   7.715   0.258
13686TIP3   OH241002   1.896   6.988   0.051
13686TIP3    H141003   1.802   6.969   0.052
13686TIP3    H241004   1.901   7.083   0.063
13687TIP3   OH241005   1.777   7.996   1.130
13687TIP3    H141006   1.793   7.950   1.213
13687TIP3    H241007   1.768   8.087   1.155
13688TIP3   OH241008   1.967   7.250   0.137
13688TIP3    H141009   2.062   7.258   0.131
13688TIP3    H241010   1.934   7.324   0.086
13689TIP3   OH241011   1.131   7.703   0.854
13689TIP3    H141012   1.187   7.661   0.789
13689TIP3    H241013   1.146   7.652   0.934
13690TIP3   OH241014   1.587   7.833   0.005
13690TIP3    H141015   1.541   7.917   0.003
13690TIP3    H241016   1.532   7.777   0.059
13691TIP3   OH241017   1.005   7.606   1.458
13691TIP3    H141018   0.997   7.579   1.550
13691TIP3    H241019   0.936   7.558   1.413
13692TIP3   OH241020   4.814   0.276   1.083
13692TIP3    H141021   4.722   0.273   1.056
13692TIP3    H241022   4.815   0.336   1.158
13693TIP3   OH241023   8.069   3.330   6.922
13693TIP3    H141024   8.013   3.284   6.860
13693TIP3    H241025   8.076   3.419   6.886
13694TIP3   OH241026   7.784   4.142   6.830
13694TIP3    H141027   7.747   4.074   6.886
13694TIP3    H241028   7.792   4.101   6.744
13695TIP3   OH241029   2.095   7.779   0.659
13695TIP3    H141030   2.004   7.775   0.687
13695TIP3    H241031   2.117   7.689   0.635
13696TIP3   OH241032   4.052  -0.011   0.473
13696TIP3    H141033   4.080   0.064   0.419
13696TIP3    H241034   3.960   0.007   0.492
13697TIP3   OH241035   0.808   7.301   0.209
13697TIP3    H141036   0.818   7.390   0.173
13697TIP3    H241037   0.725   7.304   0.257
13698TIP3   OH241038   1.354   7.770   0.412
13698TIP3    H141039   1.327   7.861   0.426
13698TIP3    H241040   1.360   7.733   0.500
13699TIP3   OH241041   4.339   0.335   0.941
13699TIP3    H141042   4.376   0.403   0.885
13699TIP3    H241043   4.414   0.302   0.991
13700TIP3   OH241044   3.986   0.234   0.332
13700TIP3    H141045   3.901   0.243   0.374
13700TIP3    H241046   4.022   0.323   0.332
13701TIP3   OH241047   1.892   7.994   0.890
13701TIP3    H141048   1.852   7.993   0.977
13701TIP3    H241049   1.975   7.948   0.901
13702TIP3   OH241050   7.535   3.874   6.731
13702TIP3    H141051   7.586   3.850   6.808
13702TIP3    H241052   7.446   3.844   6.751
13703TIP3   OH241053   7.870   4.346   6.547
13703TIP3    H141054   7.903   4.411   6.485
13703TIP3    H241055   7.791   4.386   6.584
13704TIP3   OH241056   2.027   7.815   0.010
13704TIP3    H141057   2.014   7.747   0.076
13704TIP3    H241058   2.121   7.812  -0.010
13705TIP3   OH241059   3.778   0.199   1.104
13705TIP3    H141060   3.830   0.135   1.152
13705TIP3    H241061   3.793   0.281   1.150
13706TIP3   OH241062   6.899   3.849   6.732
13706TIP3    H141063   6.908   3.760   6.699
13706TIP3    H241064   6.875   3.839   6.824
13707TIP3   OH241065   1.180   7.865   0.066
13707TIP3    H141066   1.265   7.846   0.107
13707TIP3    H241067   1.174   7.961   0.068
13708TIP3   OH241068   0.903   7.614   0.283
13708TIP3    H141069   0.807   7.618   0.282
13708TIP3    H241070   0.931   7.666   0.208
13709TIP3   OH241071   1.938   6.955   0.321
13709TIP3    H141072   1.927   6.953   0.226
13709TIP3    H241073   1.961   7.046   0.340
13710TIP3   OH241074   4.273   0.046   0.010
13710TIP3    H141075   4.187   0.071   0.045
13710TIP3    H241076   4.293   0.114  -0.054
13711TIP3   OH241077   1.631   7.126   0.432
13711TIP3    H141078   1.687   7.199   0.404
13711TIP3    H241079   1.628   7.132   0.527
13712TIP3   OH241080   1.768   6.873   0.520
13712TIP3    H141081   1.732   6.956   0.553
13712TIP3    H241082   1.832   6.900   0.454
13713TIP3   OH241083   4.020   0.124   0.079
13713TIP3    H141084   3.991   0.189   0.015
13713TIP3    H241085   4.004   0.165   0.164
13714TIP3   OH241086   1.282   6.852   0.317
13714TIP3    H141087   1.277   6.940   0.356
13714TIP3    H241088   1.376   6.832   0.318
13715TIP3   OH241089   2.194   7.495   0.595
13715TIP3    H141090   2.107   7.461   0.618
13715TIP3    H241091   2.232   7.523   0.678
13716TIP3   OH241092   0.907   7.765   0.060
13716TIP3    H141093   0.966   7.840   0.064
13716TIP3    H241094   0.947   7.705  -0.003
13717TIP3   OH241095   0.847   7.032   0.203
13717TIP3    H141096   0.849   7.128   0.210
13717TIP3    H241097   0.772   7.013   0.148
13718TIP3   OH241098   4.982   0.487   0.548
13718TIP3    H141099   4.943   0.534   0.474
13718TIP3    H241100   5.076   0.487   0.529
13719TIP3   OH241101   1.402   6.708   1.013
13719TIP3    H141102   1.397   6.685   0.920
13719TIP3    H241103   1.351   6.641   1.058
13720TIP3   OH241104   0.795   7.984   0.457
13720TIP3    H141105   0.725   7.992   0.522
13720TIP3    H241106   0.755   8.013   0.375
13721TIP3   OH241107   3.766   0.495   1.501
13721TIP3    H141108   3.824   0.500   1.577
13721TIP3    H241109   3.727   0.407   1.506
13722TIP3   OH241110   7.062   4.052   6.639
13722TIP3    H141111   7.007   3.982   6.676
13722TIP3    H241112   7.135   4.005   6.600
13723TIP3   OH241113   7.497   4.092   6.553
13723TIP3    H141114   7.537   4.027   6.610
13723TIP3    H241115   7.549   4.089   6.473
13724TIP3   OH241116   6.710   3.569   6.863
13724TIP3    H141117   6.765   3.533   6.932
13724TIP3    H241118   6.767   3.575   6.787
13725TIP3   OH241119   7.226   3.770   6.675
13725TIP3    H141120   7.224   3.784   6.769
13725TIP3    H241121   7.225   3.675   6.664
13726TIP3   OH241122   1.251   7.467   0.152
13726TIP3    H141123   1.224   7.397   0.212
13726TIP3    H241124   1.291   7.422   0.078
13727TIP3   OH241125   1.494   7.566   1.381
13727TIP3    H141126   1.411   7.613   1.383
13727TIP3    H241127   1.539   7.599   1.303
13728TIP3   OH241128   7.020   3.278   6.918
13728TIP3    H141129   6.990   3.280   6.827
13728TIP3    H241130   7.115   3.275   6.913
13729TIP3   OH241131   7.833   3.598   6.589
13729TIP3    H141132   7.818   3.551   6.507
13729TIP3    H241133   7.802   3.687   6.572
13730TIP3   OH241134   1.632   7.651   1.163
13730TIP3    H141135   1.713   7.651   1.113
13730TIP3    H241136   1.576   7.716   1.120
13731TIP3   OH241137   6.826   4.330   6.829
13731TIP3    H141138   6.920   4.323   6.812
13731TIP3    H241139   6.792   4.381   6.755
13732TIP3   OH241140   0.633   7.718   0.093
13732TIP3    H141141   0.725   7.742   0.079
13732TIP3    H241142   0.624   7.633   0.049
13733TIP3   OH241143   3.386   0.315   0.522
13733TIP3    H141144   3.321   0.259   0.480
13733TIP3    H241145   3.431   0.258   0.584
13734TIP3   OH241146   3.522   0.163   0.709
13734TIP3    H141147   3.503   0.097   0.775
13734TIP3    H241148   3.575   0.229   0.755
13735TIP3   OH241149   7.970   3.788   6.920
13735TIP3    H141150   8.027   3.857   6.886
13735TIP3    H241151   8.019   3.751   6.994
13736TIP3   OH241152   2.431   7.666   0.192
13736TIP3    H141153   2.359   7.614   0.229
13736TIP3    H241154   2.452   7.729   0.261
13737TIP3   OH241155   5.241  -0.005   0.551
13737TIP3    H141156   5.335   0.002   0.564
13737TIP3    H241157   5.212   0.085   0.536
13738TIP3   OH241158   5.163   0.368   0.769
13738TIP3    H141159   5.117   0.379   0.852
13738TIP3    H241160   5.109   0.307   0.719
13739TIP3   OH241161   8.032   3.563   6.774
13739TIP3    H141162   7.967   3.557   6.704
13739TIP3    H241163   8.006   3.640   6.824
13740TIP3   OH241164   7.904   3.236   6.732
13740TIP3    H141165   7.876   3.276   6.649
13740TIP3    H241166   7.881   3.144   6.722
13741TIP3   OH241167   2.244   7.516   0.323
13741TIP3    H141168   2.251   7.424   0.297
13741TIP3    H241169   2.230   7.512   0.418
13742TIP3   OH241170   0.873   7.592   1.070
13742TIP3    H141171   0.872   7.573   0.976
13742TIP3    H241172   0.966   7.593   1.093
13743TIP3   OH241173   7.849   2.974   6.715
13743TIP3    H141174   7.923   2.934   6.762
13743TIP3    H241175   7.777   2.912   6.727
13744TIP3   OH241176   2.251   7.251   0.205
13744TIP3    H141177   2.271   7.158   0.213
13744TIP3    H241178   2.308   7.282   0.134
13745TIP3   OH241179   1.072   6.976   1.008
13745TIP3    H141180   1.131   6.908   0.977
13745TIP3    H241181   1.130   7.049   1.033
13746TIP3   OH241182   0.852   7.237   1.151
13746TIP3    H141183   0.903   7.244   1.070
13746TIP3    H241184   0.876   7.315   1.201
13747TIP3   OH241185   8.105   2.910   6.833
13747TIP3    H141186   8.146   2.851   6.769
13747TIP3    H241187   8.165   2.984   6.839
13748TIP3   OH241188   0.833   6.754   0.661
13748TIP3    H141189   0.741   6.737   0.680
13748TIP3    H241190   0.831   6.806   0.580
13749TIP3   OH241191   4.834   0.435   0.163
13749TIP3    H141192   4.884   0.427   0.081
13749TIP3    H241193   4.876   0.508   0.209
13750TIP3   OH241194   1.004   6.872   1.508
13750TIP3    H141195   0.958   6.809   1.563
13750TIP3    H241196   0.941   6.894   1.439
13751TIP3   OH241197   3.934   0.227   1.559
13751TIP3    H141198   3.846   0.216   1.521
13751TIP3    H241199   3.921   0.214   1.653
13752TIP3   OH241200   4.114   0.282   1.093
13752TIP3    H141201   4.061   0.353   1.059
13752TIP3    H241202   4.199   0.292   1.050
13753TIP3   OH241203   3.784   0.528   1.128
13753TIP3    H141204   3.695   0.553   1.102
13753TIP3    H241205   3.805   0.588   1.199
13754TIP3   OH241206   4.020   0.511   0.979
13754TIP3    H141207   3.936   0.521   1.024
13754TIP3    H241208   4.004   0.544   0.891
13755TIP3   OH241209   4.434   0.526   0.768
13755TIP3    H141210   4.369   0.551   0.702
13755TIP3    H241211   4.456   0.608   0.813
13756TIP3   OH241212   4.700   0.467   0.827
13756TIP3    H141213   4.610   0.490   0.804
13756TIP3    H241214   4.751   0.544   0.802
13757TIP3   OH241215   4.848   0.677   0.713
13757TIP3    H141216   4.925   0.732   0.730
13757TIP3    H241217   4.883   0.604   0.662
13758TIP3   OH241218   3.700   0.322   0.860
13758TIP3    H141219   3.720   0.297   0.950
13758TIP3    H241220   3.770   0.281   0.808
13759TIP3   OH241221   3.895   0.193   0.722
13759TIP3    H141222   3.907   0.113   0.772
13759TIP3    H241223   3.982   0.233   0.719
13760TIP3   OH241224   4.158   0.287   0.731
13760TIP3    H141225   4.192   0.198   0.719
13760TIP3    H241226   4.201   0.319   0.810
13761TIP3   OH241227   1.131   6.700   0.822
13761TIP3    H141228   1.039   6.678   0.837
13761TIP3    H241229   1.177   6.616   0.827
13762TIP3   OH241230   0.943   6.540   0.478
13762TIP3    H141231   0.967   6.593   0.402
13762TIP3    H241232   0.913   6.604   0.543
13763TIP3   OH241233   1.560   6.722   0.714
13763TIP3    H141234   1.605   6.787   0.660
13763TIP3    H241235   1.569   6.755   0.803
13764TIP3   OH241236   2.162   6.780   0.248
13764TIP3    H141237   2.088   6.828   0.285
13764TIP3    H241238   2.165   6.698   0.298
13765TIP3   OH241239   3.485   0.099   0.259
13765TIP3    H141240   3.403   0.061   0.228
13765TIP3    H241241   3.482   0.190   0.233
13766TIP3   OH241242   1.054   6.692   0.240
13766TIP3    H141243   1.097   6.630   0.181
13766TIP3    H241244   1.125   6.746   0.274
13767TIP3   OH241245   1.556   6.880   0.335
13767TIP3    H141246   1.611   6.823   0.389
13767TIP3    H241247   1.583   6.969   0.359
13768TIP3   OH241248   7.094   4.286   6.776
13768TIP3    H141249   7.179   4.313   6.742
13768TIP3    H241250   7.067   4.214   6.718
13769TIP3   OH241251   7.812   4.409   6.869
13769TIP3    H141252   7.806   4.314   6.861
13769TIP3    H241253   7.764   4.443   6.793
13770TIP3   OH241254   6.396   4.125   6.830
13770TIP3    H141255   6.396   4.152   6.922
13770TIP3    H241256   6.481   4.083   6.818
13771TIP3   OH241257   2.596   7.430   0.191
13771TIP3    H141258   2.555   7.517   0.183
13771TIP3    H241259   2.557   7.380   0.119
13772TIP3   OH241260   8.154   3.973   6.816
13772TIP3    H141261   8.119   3.992   6.729
13772TIP3    H241262   8.192   4.055   6.846
13773TIP3   OH241263   0.039   3.646   6.749
13773TIP3    H141264  -0.036   3.706   6.743
13773TIP3    H241265   0.061   3.646   6.842
13774TIP3   OH241266   5.358   0.287   0.464
13774TIP3    H141267   5.450   0.272   0.440
13774TIP3    H241268   5.355   0.269   0.558
13775TIP3   OH241269   0.401   4.618   6.539
13775TIP3    H141270   0.387   4.611   6.445
13775TIP3    H241271   0.387   4.710   6.560
13776TIP3   OH241272   5.550   0.487  -0.019
13776TIP3    H141273   5.579   0.467   0.070
13776TIP3    H241274   5.493   0.414  -0.042
13777TIP3   OH241275   0.231   3.170   6.456
13777TIP3    H141276   0.181   3.140   6.532
13777TIP3    H241277   0.169   3.223   6.407
13778TIP3   OH241278   8.272   3.131   6.863
13778TIP3    H141279   8.316   3.163   6.784
13778TIP3    H241280   8.210   3.200   6.886
13779TIP3   OH241281   0.128   3.400   6.583
13779TIP3    H141282   0.059   3.373   6.523
13779TIP3    H241283   0.195   3.439   6.527
13780TIP3   OH241284   0.358   3.956   6.608
13780TIP3    H141285   0.314   3.875   6.583
13780TIP3    H241286   0.342   3.965   6.702
13781TIP3   OH241287   0.501   4.077   6.401
13781TIP3    H141288   0.481   4.167   6.428
13781TIP3    H241289   0.475   4.023   6.476
13782TIP3   OH241290   0.195   4.269   6.871
13782TIP3    H141291   0.186   4.346   6.816
13782TIP3    H241292   0.111   4.263   6.918
13783TIP3   OH241293   8.256   3.560   6.604
13783TIP3    H141294   8.304   3.642   6.622
13783TIP3    H241295   8.184   3.560   6.667
13784TIP3   OH241296   0.319   4.028   6.885
13784TIP3    H141297   0.287   4.117   6.869
13784TIP3    H241298   0.251   3.987   6.938
13785TIP3   OH241299   0.106   4.505   6.752
13785TIP3    H141300   0.023   4.515   6.798
13785TIP3    H241301   0.156   4.583   6.777
13786TIP3   OH241302   0.186   4.105   6.218
13786TIP3    H141303   0.189   4.015   6.187
13786TIP3    H241304   0.168   4.097   6.312
13787TIP3   OH241305   0.139   4.115   6.489
13787TIP3    H141306   0.220   4.081   6.528
13787TIP3    H241307   0.146   4.210   6.500
13788TIP3   OH241308   8.339   3.821   6.681
13788TIP3    H141309   8.277   3.865   6.739
13788TIP3    H241310   8.359   3.887   6.614
13789TIP3   OH241311   0.408   4.324   6.462
13789TIP3    H141312   0.320   4.350   6.487
13789TIP3    H241313   0.433   4.386   6.394
13790TIP3   OH241314   0.145   4.393   6.502
13790TIP3    H141315   0.114   4.458   6.440
13790TIP3    H241316   0.133   4.434   6.588
13791TIP3   OH241317   8.372   4.017   6.483
13791TIP3    H141318   8.443   4.080   6.499
13791TIP3    H241319   8.408   3.956   6.419
13792TIP3   OH241320   8.298   3.286   6.640
13792TIP3    H141321   8.324   3.378   6.638
13792TIP3    H241322   8.236   3.277   6.568
13793TIP3   OH241323   8.235   4.236   6.878
13793TIP3    H141324   8.172   4.265   6.943
13793TIP3    H241325   8.203   4.273   6.796
13794TIP3   OH241326   0.355   4.301   6.136
13794TIP3    H141327   0.288   4.239   6.165
13794TIP3    H241328   0.437   4.251   6.139
13795TIP3   OH241329   0.009   3.826   6.346
13795TIP3    H141330   0.055   3.789   6.422
13795TIP3    H241331   0.076   3.830   6.277
13796TIP3   OH241332   0.495   4.012   6.143
13796TIP3    H141333   0.514   4.041   6.232
13796TIP3    H241334   0.422   3.951   6.153
13797TIP3   OH241335   0.219   3.726   6.567
13797TIP3    H141336   0.159   3.690   6.632
13797TIP3    H241337   0.253   3.649   6.521
13798TIP3   OH241338   0.317   3.520   6.409
13798TIP3    H141339   0.282   3.527   6.320
13798TIP3    H241340   0.410   3.504   6.396
13799TIP3   OH241341   0.113   4.607   6.325
13799TIP3    H141342   0.205   4.587   6.309
13799TIP3    H241343   0.082   4.644   6.242
13800TIP3   OH241344   8.102   3.969   6.536
13800TIP3    H141345   8.191   3.994   6.514
13800TIP3    H241346   8.091   3.882   6.497
13801TIP3   OH241347   5.183   0.574   0.002
13801TIP3    H141348   5.116   0.520  -0.039
13801TIP3    H241349   5.229   0.514   0.061
13802TIP3   OH241350   5.318   0.411   0.178
13802TIP3    H141351   5.286   0.345   0.240
13802TIP3    H241352   5.362   0.476   0.233
13803TIP3   OH241353   8.111   4.368   6.678
13803TIP3    H141354   8.028   4.329   6.650
13803TIP3    H241355   8.106   4.459   6.649
13804TIP3   OH241356   0.006   2.994   6.647
13804TIP3    H141357   0.073   2.926   6.652
13804TIP3    H241358   0.012   3.041   6.730
13805TIP3   OH241359   0.374   4.543   6.264
13805TIP3    H141360   0.461   4.563   6.229
13805TIP3    H241361   0.344   4.468   6.213
13806TIP3   OH241362   8.194   4.382   6.317
13806TIP3    H141363   8.194   4.404   6.411
13806TIP3    H241364   8.278   4.339   6.303
13807TIP3   OH241365   7.540   1.069   1.348
13807TIP3    H141366   7.567   1.017   1.272
13807TIP3    H241367   7.617   1.122   1.370
13808TIP3   OH241368   7.239   0.341   1.129
13808TIP3    H141369   7.308   0.402   1.154
13808TIP3    H241370   7.283   0.276   1.074
13809TIP3   OH241371   7.451   0.501   1.188
13809TIP3    H141372   7.443   0.594   1.212
13809TIP3    H241373   7.476   0.502   1.096
13810TIP3   OH241374   7.759   1.109   0.801
13810TIP3    H141375   7.765   1.202   0.779
13810TIP3    H241376   7.847   1.076   0.787
13811TIP3   OH241377   7.061   1.422   1.268
13811TIP3    H141378   7.021   1.414   1.181
13811TIP3    H241379   7.038   1.511   1.297
13812TIP3   OH241380   7.273   1.328   0.918
13812TIP3    H141381   7.327   1.259   0.881
13812TIP3    H241382   7.304   1.337   1.008
13813TIP3   OH241383   7.323   1.381   1.191
13813TIP3    H141384   7.233   1.379   1.226
13813TIP3    H241385   7.376   1.342   1.260
13814TIP3   OH241386   7.519   0.550   0.937
13814TIP3    H141387   7.476   0.524   0.856
13814TIP3    H241388   7.603   0.585   0.910
13815TIP3   OH241389   7.179   0.860   1.129
13815TIP3    H141390   7.150   0.951   1.142
13815TIP3    H241391   7.142   0.812   1.203
13816TIP3   OH241392   7.998   0.366   1.132
13816TIP3    H141393   7.929   0.319   1.086
13816TIP3    H241394   7.998   0.454   1.093
13817TIP3   OH241395   7.701   1.175   1.061
13817TIP3    H141396   7.658   1.096   1.097
13817TIP3    H241397   7.717   1.153   0.969
13818TIP3   OH241398   7.440   0.912   0.967
13818TIP3    H141399   7.495   0.892   1.043
13818TIP3    H241400   7.352   0.886   0.994
13819TIP3   OH241401   7.784   1.385   0.783
13819TIP3    H141402   7.822   1.451   0.726
13819TIP3    H241403   7.705   1.426   0.818
13820TIP3   OH241404   7.618   0.868   1.176
13820TIP3    H141405   7.599   0.807   1.248
13820TIP3    H241406   7.712   0.855   1.158
13821TIP3   OH241407   6.817   0.887   0.971
13821TIP3    H141408   6.841   0.800   0.938
13821TIP3    H241409   6.772   0.870   1.053
13822TIP3   OH241410   7.070   1.105   1.174
13822TIP3    H141411   7.019   1.120   1.254
13822TIP3    H241412   7.043   1.174   1.114
13823TIP3   OH241413   6.638   1.193   1.211
13823TIP3    H141414   6.654   1.258   1.142
13823TIP3    H241415   6.689   1.225   1.285
13824TIP3   OH241416   6.974   1.088   0.871
13824TIP3    H141417   6.917   1.022   0.913
13824TIP3    H241418   7.047   1.037   0.836
13825TIP3   OH241419   7.416   1.132   0.789
13825TIP3    H141420   7.452   1.064   0.845
13825TIP3    H241421   7.465   1.126   0.708
13826TIP3   OH241422   6.607   0.642   1.026
13826TIP3    H141423   6.627   0.702   1.098
13826TIP3    H241424   6.692   0.624   0.986
13827TIP3   OH241425   7.123   0.795   0.874
13827TIP3    H141426   7.133   0.820   0.966
13827TIP3    H241427   7.128   0.700   0.874
13828TIP3   OH241428   6.883   0.362   1.134
13828TIP3    H141429   6.883   0.351   1.039
13828TIP3    H241430   6.975   0.366   1.158
13829TIP3   OH241431   7.751   0.637   0.825
13829TIP3    H141432   7.737   0.589   0.744
13829TIP3    H241433   7.718   0.725   0.807
13830TIP3   OH241434   6.746   1.386   1.051
13830TIP3    H141435   6.840   1.370   1.039
13830TIP3    H241436   6.723   1.443   0.977
13831TIP3   OH241437   7.889   0.847   1.155
13831TIP3    H141438   7.953   0.902   1.112
13831TIP3    H241439   7.916   0.845   1.247
13832TIP3   OH241440   8.014   0.647   1.330
13832TIP3    H141441   7.940   0.686   1.378
13832TIP3    H241442   7.973   0.607   1.253
13833TIP3   OH241443   7.945   0.613   1.016
13833TIP3    H141444   7.881   0.600   0.946
13833TIP3    H241445   7.922   0.697   1.055
13834TIP3   OH241446   7.811   0.274   0.957
13834TIP3    H141447   7.778   0.303   0.872
13834TIP3    H241448   7.795   0.180   0.958
13835TIP3   OH241449   4.930   8.023   0.953
13835TIP3    H141450   5.006   7.990   1.001
13835TIP3    H241451   4.857   7.970   0.983
13836TIP3   OH241452   5.179   7.971   1.071
13836TIP3    H141453   5.215   7.895   1.025
13836TIP3    H241454   5.250   8.035   1.070
13837TIP3   OH241455   7.617   1.426   1.361
13837TIP3    H141456   7.640   1.441   1.269
13837TIP3    H241457   7.636   1.509   1.405
13838TIP3   OH241458   7.011   1.327   0.997
13838TIP3    H141459   7.099   1.348   0.967
13838TIP3    H241460   6.983   1.254   0.942
13839TIP3   OH241461   7.724   1.447   1.105
13839TIP3    H141462   7.720   1.352   1.094
13839TIP3    H241463   7.679   1.482   1.028
13840TIP3   OH241464   0.716   0.964   1.056
13840TIP3    H141465   0.689   1.055   1.039
13840TIP3    H241466   0.643   0.911   1.023
13841TIP3   OH241467   0.695   0.974   1.428
13841TIP3    H141468   0.748   0.956   1.505
13841TIP3    H241469   0.660   0.889   1.401
13842TIP3   OH241470   0.962   1.267   1.126
13842TIP3    H141471   0.947   1.197   1.189
13842TIP3    H241472   0.995   1.340   1.179
13843TIP3   OH241473  -0.007   1.280   1.522
13843TIP3    H141474  -0.022   1.185   1.525
13843TIP3    H241475   0.088   1.289   1.512
13844TIP3   OH241476   8.229   0.488   1.259
13844TIP3    H141477   8.177   0.563   1.291
13844TIP3    H241478   8.165   0.417   1.250
13845TIP3   OH241479   8.384   0.725   1.469
13845TIP3    H141480   8.314   0.749   1.530
13845TIP3    H241481   8.359   0.766   1.386
13846TIP3   OH241482   0.615   1.727   1.142
13846TIP3    H141483   0.654   1.660   1.085
13846TIP3    H241484   0.604   1.683   1.226
13847TIP3   OH241485   0.518   1.192   1.469
13847TIP3    H141486   0.555   1.111   1.434
13847TIP3    H241487   0.592   1.237   1.509
13848TIP3   OH241488   1.530   0.521   1.467
13848TIP3    H141489   1.552   0.603   1.511
13848TIP3    H241490   1.561   0.533   1.377
13849TIP3   OH241491   0.911   0.668   1.521
13849TIP3    H141492   0.961   0.590   1.544
13849TIP3    H241493   0.892   0.658   1.428
13850TIP3   OH241494   0.308   0.335   1.443
13850TIP3    H141495   0.270   0.419   1.417
13850TIP3    H241496   0.251   0.269   1.403
13851TIP3   OH241497   0.964   0.443   1.105
13851TIP3    H141498   1.029   0.431   1.173
13851TIP3    H241499   1.013   0.477   1.030
13852TIP3   OH241500   0.339   0.748   1.390
13852TIP3    H141501   0.432   0.725   1.396
13852TIP3    H241502   0.297   0.670   1.355
13853TIP3   OH241503   1.592   0.722   1.664
13853TIP3    H141504   1.506   0.752   1.635
13853TIP3    H241505   1.609   0.770   1.744
13854TIP3   OH241506   0.602   1.184   0.927
13854TIP3    H141507   0.566   1.168   0.840
13854TIP3    H241508   0.559   1.265   0.956
13855TIP3   OH241509   1.163   0.453   1.286
13855TIP3    H141510   1.173   0.392   1.358
13855TIP3    H241511   1.219   0.527   1.309
13856TIP3   OH241512   8.086   1.002   1.045
13856TIP3    H141513   8.053   1.024   0.958
13856TIP3    H241514   8.120   1.085   1.079
13857TIP3   OH241515   1.031   1.514   1.287
13857TIP3    H141516   0.944   1.500   1.325
13857TIP3    H241517   1.024   1.598   1.241
13858TIP3   OH241518   1.304   0.445   1.630
13858TIP3    H141519   1.220   0.471   1.594
13858TIP3    H241520   1.369   0.480   1.568
13859TIP3   OH241521   0.730   1.556   0.957
13859TIP3    H141522   0.774   1.472   0.943
13859TIP3    H241523   0.789   1.621   0.920
13860TIP3   OH241524   0.871   1.339   0.876
13860TIP3    H141525   0.840   1.261   0.831
13860TIP3    H241526   0.910   1.307   0.957
13861TIP3   OH241527   1.253   1.421   1.628
13861TIP3    H141528   1.242   1.342   1.575
13861TIP3    H241529   1.237   1.494   1.568
13862TIP3   OH241530   0.547   0.817   0.890
13862TIP3    H141531   0.468   0.868   0.872
13862TIP3    H241532   0.593   0.812   0.807
13863TIP3   OH241533   0.509   0.600   0.608
13863TIP3    H141534   0.574   0.656   0.652
13863TIP3    H241535   0.562   0.538   0.559
13864TIP3   OH241536   1.447   1.058   1.476
13864TIP3    H141537   1.366   1.108   1.485
13864TIP3    H241538   1.481   1.083   1.391
13865TIP3   OH241539   0.897   0.899   0.862
13865TIP3    H141540   0.841   0.923   0.936
13865TIP3    H241541   0.981   0.875   0.901
13866TIP3   OH241542   1.118   0.967   1.743
13866TIP3    H141543   1.118   1.061   1.763
13866TIP3    H241544   1.040   0.954   1.690
13867TIP3   OH241545   0.130   0.900   1.274
13867TIP3    H141546   0.087   0.839   1.214
13867TIP3    H241547   0.201   0.850   1.313
13868TIP3   OH241548   0.259   1.307   1.426
13868TIP3    H141549   0.242   1.270   1.340
13868TIP3    H241550   0.344   1.269   1.451
13869TIP3   OH241551   0.260   0.876   1.619
13869TIP3    H141552   0.277   0.824   1.541
13869TIP3    H241553   0.346   0.899   1.653
13870TIP3   OH241554   0.790   1.501   1.406
13870TIP3    H141555   0.771   1.583   1.451
13870TIP3    H241556   0.767   1.433   1.469
13871TIP3   OH241557   0.735   0.759   0.687
13871TIP3    H141558   0.792   0.816   0.738
13871TIP3    H241559   0.759   0.776   0.596
13872TIP3   OH241560   0.480   1.435   0.964
13872TIP3    H141561   0.563   1.483   0.971
13872TIP3    H241562   0.421   1.496   0.919
13873TIP3   OH241563   1.246  -0.003   0.737
13873TIP3    H141564   1.168   0.021   0.788
13873TIP3    H241565   1.266   0.076   0.687
13874TIP3   OH241566   8.491   0.738   1.082
13874TIP3    H141567   8.426   0.779   1.026
13874TIP3    H241568   8.454   0.651   1.101
13875TIP3   OH241569   1.055   1.364   0.287
13875TIP3    H141570   1.061   1.458   0.271
13875TIP3    H241571   1.144   1.332   0.274
13876TIP3   OH241572   1.487   1.770   1.680
13876TIP3    H141573   1.495   1.675   1.690
13876TIP3    H241574   1.402   1.791   1.720
13877TIP3   OH241575   0.361   1.679   0.767
13877TIP3    H141576   0.317   1.660   0.684
13877TIP3    H241577   0.329   1.766   0.792
13878TIP3   OH241578   8.294   1.529   1.149
13878TIP3    H141579   8.349   1.522   1.227
13878TIP3    H241580   8.243   1.448   1.148
13879TIP3   OH241581   0.563   1.582   0.406
13879TIP3    H141582   0.619   1.514   0.368
13879TIP3    H241583   0.596   1.593   0.495
13880TIP3   OH241584   0.612   1.632   0.677
13880TIP3    H141585   0.525   1.640   0.716
13880TIP3    H241586   0.665   1.591   0.745
13881TIP3   OH241587   0.816   0.803   0.435
13881TIP3    H141588   0.775   0.780   0.352
13881TIP3    H241589   0.899   0.843   0.410
13882TIP3   OH241590   0.523   0.171   0.738
13882TIP3    H141591   0.487   0.172   0.827
13882TIP3    H241592   0.484   0.094   0.697
13883TIP3   OH241593   0.196   0.538   1.293
13883TIP3    H141594   0.106   0.518   1.321
13883TIP3    H241595   0.204   0.497   1.207
13884TIP3   OH241596   0.687   0.619   1.022
13884TIP3    H141597   0.636   0.689   0.981
13884TIP3    H241598   0.742   0.585   0.951
13885TIP3   OH241599   0.838   0.640   1.254
13885TIP3    H141600   0.778   0.672   1.187
13885TIP3    H241601   0.876   0.561   1.216
13886TIP3   OH241602   0.180   0.154   0.701
13886TIP3    H141603   0.169   0.151   0.796
13886TIP3    H241604   0.104   0.204   0.670
13887TIP3   OH241605   8.203   0.186   1.092
13887TIP3    H141606   8.243   0.216   1.011
13887TIP3    H241607   8.134   0.250   1.111
13888TIP3   OH241608   0.863   0.912   1.632
13888TIP3    H141609   0.882   0.823   1.605
13888TIP3    H241610   0.833   0.904   1.723
13889TIP3   OH241611   0.554   0.364   1.332
13889TIP3    H141612   0.465   0.357   1.367
13889TIP3    H241613   0.608   0.383   1.409
13890TIP3   OH241614   8.466   0.391   1.344
13890TIP3    H141615   8.384   0.434   1.322
13890TIP3    H241616   8.482   0.331   1.271
13891TIP3   OH241617   0.220   0.406   1.052
13891TIP3    H141618   0.312   0.421   1.031
13891TIP3    H241619   0.173   0.426   0.971
13892TIP3   OH241620   1.014   0.423   1.579
13892TIP3    H141621   0.993   0.425   1.673
13892TIP3    H241622   0.947   0.368   1.540
13893TIP3   OH241623   0.071   0.438   0.827
13893TIP3    H141624   0.002   0.391   0.780
13893TIP3    H241625   0.124   0.478   0.758
13894TIP3   OH241626   1.209   2.108   1.761
13894TIP3    H141627   1.199   2.129   1.668
13894TIP3    H241628   1.235   2.191   1.802
13895TIP3   OH241629   0.611   0.679   1.437
13895TIP3    H141630   0.681   0.651   1.377
13895TIP3    H241631   0.645   0.657   1.524
13896TIP3   OH241632   0.162   0.166   1.283
13896TIP3    H141633   0.110   0.101   1.330
13896TIP3    H241634   0.199   0.119   1.208
13897TIP3   OH241635   0.314   0.967   0.839
13897TIP3    H141636   0.245   0.902   0.826
13897TIP3    H241637   0.298   1.002   0.926
13898TIP3   OH241638   1.217   1.205   1.463
13898TIP3    H141639   1.243   1.256   1.387
13898TIP3    H241640   1.134   1.164   1.438
13899TIP3   OH241641   0.774   0.276   0.713
13899TIP3    H141642   0.680   0.258   0.717
13899TIP3    H241643   0.781   0.370   0.730
13900TIP3   OH241644   0.844   0.531   0.808
13900TIP3    H141645   0.939   0.537   0.822
13900TIP3    H241646   0.823   0.608   0.755
13901TIP3   OH241647   0.016   1.007   1.502
13901TIP3    H141648   0.050   0.988   1.414
13901TIP3    H241649   0.037   0.929   1.553
13902TIP3   OH241650   0.462   1.119   0.666
13902TIP3    H141651   0.416   1.203   0.667
13902TIP3    H241652   0.411   1.062   0.723
13903TIP3   OH241653   0.879   1.524   1.774
13903TIP3    H141654   0.805   1.570   1.734
13903TIP3    H241655   0.919   1.589   1.831
13904TIP3   OH241656   1.281   0.623   0.640
13904TIP3    H141657   1.222   0.576   0.581
13904TIP3    H241658   1.284   0.712   0.606
13905TIP3   OH241659   1.495   1.495   1.716
13905TIP3    H141660   1.401   1.477   1.704
13905TIP3    H241661   1.537   1.455   1.641
13906TIP3   OH241662   0.988   1.437   0.551
13906TIP3    H141663   0.961   1.367   0.611
13906TIP3    H241664   1.002   1.393   0.467
13907TIP3   OH241665   0.984   1.073   1.373
13907TIP3    H141666   0.894   1.048   1.395
13907TIP3    H241667   1.021   0.994   1.333
13908TIP3   OH241668   0.111   1.299   1.142
13908TIP3    H141669   0.112   1.378   1.087
13908TIP3    H241670   0.019   1.274   1.147
13909TIP3   OH241671   8.174   0.599   0.851
13909TIP3    H141672   8.223   0.680   0.868
13909TIP3    H241673   8.100   0.604   0.911
13910TIP3   OH241674   0.242   1.062   1.080
13910TIP3    H141675   0.213   1.150   1.102
13910TIP3    H241676   0.212   1.008   1.153
13911TIP3   OH241677   0.374   1.644   1.594
13911TIP3    H141678   0.425   1.714   1.553
13911TIP3    H241679   0.439   1.588   1.636
13912TIP3   OH241680   0.028   1.538   0.992
13912TIP3    H141681  -0.057   1.544   1.036
13912TIP3    H241682   0.062   1.627   0.994
13913TIP3   OH241683   0.774   1.273   1.573
13913TIP3    H141684   0.803   1.270   1.664
13913TIP3    H241685   0.844   1.229   1.524
13914TIP3   OH241686   0.746   1.169   0.454
13914TIP3    H141687   0.801   1.145   0.530
13914TIP3    H241688   0.659   1.137   0.476
13915TIP3   OH241689   1.006   1.802   1.611
13915TIP3    H141690   0.923   1.759   1.592
13915TIP3    H241691   1.011   1.873   1.548
13916TIP3   OH241692   1.081   1.642   0.270
13916TIP3    H141693   1.122   1.711   0.218
13916TIP3    H241694   1.001   1.681   0.305
13917TIP3   OH241695   0.908   1.101   0.670
13917TIP3    H141696   0.893   1.035   0.737
13917TIP3    H241697   1.002   1.098   0.654
13918TIP3   OH241698   0.106   1.144   0.454
13918TIP3    H141699   0.121   1.055   0.424
13918TIP3    H241700   0.086   1.135   0.547
13919TIP3   OH241701   0.051   1.153   0.728
13919TIP3    H141702   0.127   1.122   0.776
13919TIP3    H241703   0.055   1.248   0.733
13920TIP3   OH241704   8.283   0.844   0.927
13920TIP3    H141705   8.220   0.889   0.984
13920TIP3    H241706   8.303   0.908   0.858
13921TIP3   OH241707   0.824   0.229   0.987
13921TIP3    H141708   0.807   0.247   0.895
13921TIP3    H241709   0.861   0.310   1.021
13922TIP3   OH241710   0.318   1.349   0.672
13922TIP3    H141711   0.233   1.372   0.710
13922TIP3    H241712   0.336   1.418   0.608
13923TIP3   OH241713   0.508   0.418   1.070
13923TIP3    H141714   0.568   0.488   1.046
13923TIP3    H241715   0.520   0.407   1.165
13924TIP3   OH241716   0.653   0.143   1.182
13924TIP3    H141717   0.633   0.222   1.232
13924TIP3    H241718   0.716   0.171   1.116
13925TIP3   OH241719   0.065   1.426   0.741
13925TIP3    H141720   0.036   1.493   0.679
13925TIP3    H241721   0.050   1.466   0.827
13926TIP3   OH241722   0.167   0.139   0.978
13926TIP3    H141723   0.159   0.227   1.015
13926TIP3    H241724   0.261   0.121   0.978
13927TIP3   OH241725   1.067   0.823   1.265
13927TIP3    H141726   0.992   0.764   1.273
13927TIP3    H241727   1.138   0.778   1.311
13928TIP3   OH241728   8.287   1.049   0.729
13928TIP3    H141729   8.356   1.114   0.741
13928TIP3    H241730   8.323   0.988   0.665
13929TIP3   OH241731   8.223   0.328   0.864
13929TIP3    H141732   8.224   0.423   0.864
13929TIP3    H241733   8.150   0.305   0.806
13930TIP3   OH241734   1.038   1.786   1.208
13930TIP3    H141735   0.993   1.831   1.137
13930TIP3    H241736   1.131   1.801   1.191
13931TIP3   OH241737   8.145   1.266   1.115
13931TIP3    H141738   8.081   1.298   1.178
13931TIP3    H241739   8.120   1.307   1.032
13932TIP3   OH241740   0.272   1.345   0.363
13932TIP3    H141741   0.216   1.277   0.400
13932TIP3    H241742   0.347   1.298   0.327
13933TIP3   OH241743   0.709   1.386   0.277
13933TIP3    H141744   0.745   1.321   0.337
13933TIP3    H241745   0.765   1.382   0.200
13934TIP3   OH241746   8.421   0.862   0.588
13934TIP3    H141747   8.475   0.831   0.661
13934TIP3    H241748   8.481   0.868   0.514
13935TIP3   OH241749   0.433   1.064   0.397
13935TIP3    H141750   0.435   1.077   0.492
13935TIP3    H241751   0.436   0.969   0.387
13936TIP3   OH241752   1.026   1.289   1.735
13936TIP3    H141753   1.117   1.315   1.725
13936TIP3    H241754   0.979   1.370   1.753
13937TIP3   OH241755   0.120   0.770   0.804
13937TIP3    H141756   0.098   0.731   0.888
13937TIP3    H241757   0.160   0.698   0.754
13938TIP3   OH241758   0.229   0.567   0.644
13938TIP3    H141759   0.202   0.572   0.553
13938TIP3    H241760   0.325   0.568   0.641
13939TIP3   OH241761   1.043   0.895   0.313
13939TIP3    H141762   1.028   0.847   0.232
13939TIP3    H241763   1.012   0.984   0.294
13940TIP3   OH241764   0.037   1.630   0.553
13940TIP3    H141765   0.131   1.617   0.536
13940TIP3    H241766   0.006   1.678   0.476
13941TIP3   OH241767   8.016   1.005   0.769
13941TIP3    H141768   8.108   1.028   0.752
13941TIP3    H241769   8.006   0.919   0.728
13942TIP3   OH241770   7.931   1.620   1.175
13942TIP3    H141771   7.864   1.561   1.140
13942TIP3    H241772   7.975   1.567   1.243
13943TIP3   OH241773   8.064   1.476   1.367
13943TIP3    H141774   8.054   1.404   1.429
13943TIP3    H241775   8.114   1.542   1.414
13944TIP3   OH241776   1.292   1.874   1.171
13944TIP3    H141777   1.319   1.904   1.258
13944TIP3    H241778   1.359   1.909   1.112
13945TIP3   OH241779   1.319   1.888   1.454
13945TIP3    H141780   1.273   1.804   1.445
13945TIP3    H241781   1.396   1.868   1.507
13946TIP3   OH241782   1.186   1.081   0.646
13946TIP3    H141783   1.249   1.145   0.612
13946TIP3    H241784   1.229   1.043   0.722
13947TIP3   OH241785   1.312   0.948   0.851
13947TIP3    H141786   1.245   0.907   0.907
13947TIP3    H241787   1.376   0.984   0.912
13948TIP3   OH241788   1.368   1.343   1.278
13948TIP3    H141789   1.420   1.275   1.236
13948TIP3    H241790   1.364   1.413   1.213
13949TIP3   OH241791   1.194   1.643   1.470
13949TIP3    H141792   1.122   1.679   1.522
13949TIP3    H241793   1.151   1.595   1.399
13950TIP3   OH241794   1.246   0.858   0.494
13950TIP3    H141795   1.179   0.856   0.426
13950TIP3    H241796   1.221   0.932   0.550
13951TIP3   OH241797   1.118   0.526   0.448
13951TIP3    H141798   1.080   0.567   0.370
13951TIP3    H241799   1.095   0.434   0.439
13952TIP3   OH241800   1.123   0.807   0.995
13952TIP3    H141801   1.131   0.712   0.985
13952TIP3    H241802   1.109   0.819   1.089
13953TIP3   OH241803   1.383   1.218   1.839
13953TIP3    H141804   1.461   1.165   1.822
13953TIP3    H241805   1.408   1.307   1.815
13954TIP3   OH241806   1.578   1.018   1.849
13954TIP3    H141807   1.516   0.990   1.916
13954TIP3    H241808   1.664   0.997   1.886
13955TIP3   OH241809   1.064   0.261   0.430
13955TIP3    H141810   1.134   0.227   0.486
13955TIP3    H241811   0.987   0.207   0.453
13956TIP3   OH241812   1.124   0.523   0.885
13956TIP3    H141813   1.160   0.436   0.902
13956TIP3    H241814   1.179   0.559   0.815
13957TIP3   OH241815   1.283   0.697   1.389
13957TIP3    H141816   1.365   0.717   1.345
13957TIP3    H241817   1.292   0.735   1.476
13958TIP3   OH241818   1.348   0.843   1.620
13958TIP3    H141819   1.275   0.878   1.671
13958TIP3    H241820   1.385   0.919   1.575
13959TIP3   OH241821   1.227   0.272   0.926
13959TIP3    H141822   1.276   0.262   1.008
13959TIP3    H241823   1.167   0.198   0.925
13960TIP3   OH241824   1.318   0.196   0.552
13960TIP3    H141825   1.380   0.133   0.517
13960TIP3    H241826   1.367   0.277   0.560
13961TIP3   OH241827   8.229   0.029   1.309
13961TIP3    H141828   8.144   0.047   1.350
13961TIP3    H241829   8.235   0.092   1.237
13962TIP3   OH241830   0.876   1.742   0.826
13962TIP3    H141831   0.923   1.726   0.744
13962TIP3    H241832   0.931   1.804   0.874
13963TIP3   OH241833   0.150   1.596   1.758
13963TIP3    H141834   0.128   1.673   1.705
13963TIP3    H241835   0.237   1.570   1.728
13964TIP3   OH241836   0.763   1.966   1.728
13964TIP3    H141837   0.852   1.934   1.712
13964TIP3    H241838   0.768   2.010   1.813
13965TIP3   OH241839   0.056   1.824   1.637
13965TIP3    H141840  -0.036   1.836   1.661
13965TIP3    H241841   0.059   1.846   1.544
13966TIP3   OH241842   0.495   1.842   1.438
13966TIP3    H141843   0.426   1.852   1.373
13966TIP3    H241844   0.504   1.929   1.477
13967TIP3   OH241845   0.761   1.766   1.488
13967TIP3    H141846   0.669   1.788   1.472
13967TIP3    H241847   0.809   1.840   1.450
13968TIP3   OH241848   0.967   1.967   1.402
13968TIP3    H141849   0.951   2.050   1.357
13968TIP3    H241850   0.993   1.907   1.332
13969TIP3   OH241851   8.259   1.628   1.504
13969TIP3    H141852   8.284   1.593   1.589
13969TIP3    H241853   8.323   1.589   1.443
13970TIP3   OH241854   8.448   1.498   1.367
13970TIP3    H141855   8.457   1.415   1.414
13970TIP3    H241856   8.536   1.536   1.367
13971TIP3   OH241857   0.208   1.585   1.389
13971TIP3    H141858   0.232   1.493   1.376
13971TIP3    H241859   0.257   1.612   1.467
13972TIP3   OH241860   0.805   0.266   1.487
13972TIP3    H141861   0.728   0.213   1.506
13972TIP3    H241862   0.860   0.210   1.433
13973TIP3   OH241863   1.298   0.135   1.382
13973TIP3    H141864   1.334   0.185   1.308
13973TIP3    H241865   1.203   0.144   1.372
13974TIP3   OH241866   1.386   0.240   1.147
13974TIP3    H141867   1.452   0.179   1.116
13974TIP3    H241868   1.423   0.327   1.129
13975TIP3   OH241869   5.459   7.854   1.117
13975TIP3    H141870   5.504   7.904   1.049
13975TIP3    H241871   5.449   7.916   1.189
13976TIP3   OH241872   0.480   0.010   1.357
13976TIP3    H141873   0.534   0.039   1.284
13976TIP3    H241874   0.502   0.070   1.428
13977TIP3   OH241875   1.017   0.127   1.349
13977TIP3    H141876   1.015   0.096   1.259
13977TIP3    H241877   0.993   0.051   1.402
13978TIP3   OH241878   1.043   0.060   0.921
13978TIP3    H141879   0.959   0.106   0.933
13978TIP3    H241880   1.030  -0.026   0.961
13979TIP3   OH241881   8.025   1.403   0.915
13979TIP3    H141882   7.942   1.368   0.884
13979TIP3    H241883   8.023   1.495   0.889
13980TIP3   OH241884   5.602   7.995   0.903
13980TIP3    H141885   5.644   7.932   0.845
13980TIP3    H241886   5.673   8.050   0.936
13981TIP3   OH241887   0.440   0.163   1.001
13981TIP3    H141888   0.502   0.115   1.056
13981TIP3    H241889   0.458   0.255   1.018
13982TIP3   OH241890   0.304   1.580   0.498
13982TIP3    H141891   0.390   1.606   0.465
13982TIP3    H241892   0.278   1.508   0.441
13983TIP3   OH241893   1.020   1.703   0.593
13983TIP3    H141894   1.014   1.608   0.585
13983TIP3    H241895   0.976   1.736   0.514
13984TIP3   OH241896   8.108   1.418   0.555
13984TIP3    H141897   8.112   1.441   0.647
13984TIP3    H241898   8.192   1.376   0.536
13985TIP3   OH241899   1.234   1.836   1.775
13985TIP3    H141900   1.160   1.817   1.717
13985TIP3    H241901   1.230   1.930   1.789
13986TIP3   OH241902   2.511   1.222   0.542
13986TIP3    H141903   2.484   1.312   0.524
13986TIP3    H241904   2.440   1.168   0.509
13987TIP3   OH241905   2.512   1.221   0.932
13987TIP3    H141906   2.548   1.200   1.018
13987TIP3    H241907   2.472   1.140   0.902
13988TIP3   OH241908   1.811   1.114   1.293
13988TIP3    H141909   1.836   1.045   1.354
13988TIP3    H241910   1.890   1.166   1.281
13989TIP3   OH241911   2.760   1.524   0.614
13989TIP3    H141912   2.742   1.456   0.678
13989TIP3    H241913   2.790   1.599   0.666
13990TIP3   OH241914   1.787   1.524   1.016
13990TIP3    H141915   1.775   1.429   1.016
13990TIP3    H241916   1.881   1.537   1.008
13991TIP3   OH241917   1.487   0.731   0.797
13991TIP3    H141918   1.441   0.813   0.816
13991TIP3    H241919   1.421   0.675   0.757
13992TIP3   OH241920   1.549   1.013   0.980
13992TIP3    H141921   1.597   0.937   1.012
13992TIP3    H241922   1.606   1.050   0.912
13993TIP3   OH241923   2.411   1.982   0.630
13993TIP3    H141924   2.450   1.916   0.573
13993TIP3    H241925   2.403   1.939   0.715
13994TIP3   OH241926   2.314   1.447   0.977
13994TIP3    H141927   2.348   1.369   0.933
13994TIP3    H241928   2.391   1.496   1.004
13995TIP3   OH241929   3.327   0.766   0.976
13995TIP3    H141930   3.352   0.847   1.021
13995TIP3    H241931   3.346   0.783   0.884
13996TIP3   OH241932   2.724   0.943   1.005
13996TIP3    H141933   2.767   0.861   1.027
13996TIP3    H241934   2.690   0.930   0.916
13997TIP3   OH241935   2.060   0.589   0.970
13997TIP3    H141936   2.034   0.651   0.901
13997TIP3    H241937   2.018   0.507   0.944
13998TIP3   OH241938   2.762   0.701   0.593
13998TIP3    H141939   2.829   0.685   0.659
13998TIP3    H241940   2.810   0.734   0.517
13999TIP3   OH241941   1.697   0.804   1.078
13999TIP3    H141942   1.778   0.789   1.128
13999TIP3    H241943   1.706   0.749   1.001
14000TIP3   OH241944   2.134   1.002   0.877
14000TIP3    H141945   2.227   0.982   0.888
14000TIP3    H241946   2.095   0.920   0.847
14001TIP3   OH241947   3.392   0.973   1.152
14001TIP3    H141948   3.311   1.021   1.134
14001TIP3    H241949   3.429   1.017   1.229
14002TIP3   OH241950   2.057   0.596   1.402
14002TIP3    H141951   2.006   0.622   1.325
14002TIP3    H241952   2.007   0.628   1.476
14003TIP3   OH241953   2.396   1.440   0.415
14003TIP3    H141954   2.363   1.426   0.327
14003TIP3    H241955   2.354   1.522   0.444
14004TIP3   OH241956   2.164   1.369   1.198
14004TIP3    H141957   2.105   1.435   1.235
14004TIP3    H241958   2.208   1.413   1.126
14005TIP3   OH241959   2.965   0.704   0.773
14005TIP3    H141960   2.945   0.661   0.856
14005TIP3    H241961   3.015   0.782   0.798
14006TIP3   OH241962   1.934   0.705   1.184
14006TIP3    H141963   1.992   0.777   1.210
14006TIP3    H241964   1.979   0.663   1.111
14007TIP3   OH241965   1.989   1.565   1.300
14007TIP3    H141966   1.969   1.650   1.261
14007TIP3    H241967   1.913   1.546   1.355
14008TIP3   OH241968   1.384   1.254   0.535
14008TIP3    H141969   1.346   1.277   0.450
14008TIP3    H241970   1.418   1.336   0.570
14009TIP3   OH241971   2.823   1.770   0.778
14009TIP3    H141972   2.736   1.758   0.816
14009TIP3    H241973   2.817   1.854   0.731
14010TIP3   OH241974   3.118   0.660   1.136
14010TIP3    H141975   3.032   0.689   1.105
14010TIP3    H241976   3.180   0.695   1.072
14011TIP3   OH241977   2.420   0.310   1.139
14011TIP3    H141978   2.398   0.217   1.129
14011TIP3    H241979   2.340   0.349   1.174
14012TIP3   OH241980   2.525   1.811   0.444
14012TIP3    H141981   2.570   1.728   0.429
14012TIP3    H241982   2.583   1.877   0.406
14013TIP3   OH241983   2.668   1.595   0.363
14013TIP3    H141984   2.639   1.517   0.317
14013TIP3    H241985   2.705   1.562   0.445
14014TIP3   OH241986   3.038   1.677   1.111
14014TIP3    H141987   3.026   1.600   1.056
14014TIP3    H241988   3.022   1.751   1.053
14015TIP3   OH241989   2.344   1.074   0.377
14015TIP3    H141990   2.265   1.125   0.359
14015TIP3    H241991   2.390   1.069   0.294
14016TIP3   OH241992   2.305   0.858   0.091
14016TIP3    H141993   2.369   0.912   0.138
14016TIP3    H241994   2.359   0.795   0.043
14017TIP3   OH241995   3.250   1.326   0.965
14017TIP3    H141996   3.165   1.370   0.975
14017TIP3    H241997   3.275   1.342   0.874
14018TIP3   OH241998   2.693   1.156   0.349
14018TIP3    H141999   2.637   1.179   0.424
14018TIP3    H242000   2.777   1.131   0.389
14019TIP3   OH242001   2.919   1.181   1.257
14019TIP3    H142002   2.932   1.256   1.315
14019TIP3    H242003   2.836   1.199   1.213
14020TIP3   OH242004   1.924   1.150   0.767
14020TIP3    H142005   1.882   1.095   0.701
14020TIP3    H242006   1.999   1.098   0.797
14021TIP3   OH242007   2.054   1.563   0.913
14021TIP3    H142008   2.033   1.531   0.825
14021TIP3    H242009   2.141   1.528   0.931
14022TIP3   OH242010   2.058   1.125   1.120
14022TIP3    H142011   2.090   1.098   1.034
14022TIP3    H242012   2.102   1.208   1.137
14023TIP3   OH242013   2.582   1.762   0.899
14023TIP3    H142014   2.573   1.840   0.955
14023TIP3    H242015   2.569   1.688   0.959
14024TIP3   OH242016   2.195   1.679   1.445
14024TIP3    H142017   2.136   1.741   1.488
14024TIP3    H242018   2.137   1.624   1.391
14025TIP3   OH242019   2.531   1.016   0.174
14025TIP3    H142020   2.588   1.073   0.225
14025TIP3    H242021   2.555   1.033   0.083
14026TIP3   OH242022   1.953   1.234   1.543
14026TIP3    H142023   1.954   1.321   1.583
14026TIP3    H242024   1.862   1.206   1.547
14027TIP3   OH242025   2.276   1.692   0.453
14027TIP3    H142026   2.359   1.740   0.458
14027TIP3    H242027   2.217   1.752   0.407
14028TIP3   OH242028   1.986   1.831   1.527
14028TIP3    H142029   1.952   1.844   1.439
14028TIP3    H242030   1.907   1.829   1.582
14029TIP3   OH242031   3.047   0.253   0.226
14029TIP3    H142032   2.966   0.273   0.274
14029TIP3    H242033   3.064   0.331   0.174
14030TIP3   OH242034   1.787   0.995   0.573
14030TIP3    H142035   1.723   1.039   0.517
14030TIP3    H242036   1.755   0.905   0.578
14031TIP3   OH242037   5.684   5.628   6.715
14031TIP3    H142038   5.689   5.722   6.697
14031TIP3    H242039   5.773   5.596   6.701
14032TIP3   OH242040   1.569   1.382   1.479
14032TIP3    H142041   1.502   1.361   1.414
14032TIP3    H242042   1.608   1.297   1.502
14033TIP3   OH242043   1.428   1.573   1.109
14033TIP3    H142044   1.522   1.562   1.097
14033TIP3    H242045   1.420   1.649   1.167
14034TIP3   OH242046   2.387   1.810   1.298
14034TIP3    H142047   2.388   1.900   1.332
14034TIP3    H242048   2.321   1.765   1.352
14035TIP3   OH242049   2.157   1.935   0.254
14035TIP3    H142050   2.114   1.916   0.171
14035TIP3    H242051   2.125   2.022   0.278
14036TIP3   OH242052   1.594   1.784   0.642
14036TIP3    H142053   1.642   1.777   0.725
14036TIP3    H242054   1.545   1.701   0.636
14037TIP3   OH242055   5.192   5.846   6.833
14037TIP3    H142056   5.247   5.777   6.795
14037TIP3    H242057   5.225   5.856   6.922
14038TIP3   OH242058   2.409   1.889   0.164
14038TIP3    H142059   2.322   1.896   0.203
14038TIP3    H242060   2.463   1.851   0.233
14039TIP3   OH242061   3.204   1.157   1.409
14039TIP3    H142062   3.113   1.187   1.407
14039TIP3    H242063   3.197   1.061   1.408
14040TIP3   OH242064   1.770   1.564   1.467
14040TIP3    H142065   1.817   1.545   1.548
14040TIP3    H242066   1.696   1.504   1.468
14041TIP3   OH242067   2.171   0.382   1.252
14041TIP3    H142068   2.090   0.348   1.215
14041TIP3    H242069   2.144   0.461   1.299
14042TIP3   OH242070   2.707   0.502   1.449
14042TIP3    H142071   2.769   0.473   1.516
14042TIP3    H242072   2.621   0.484   1.487
14043TIP3   OH242073   2.941   0.927   1.365
14043TIP3    H142074   2.891   0.932   1.447
14043TIP3    H242075   2.927   1.012   1.323
14044TIP3   OH242076   5.444   5.064   6.860
14044TIP3    H142077   5.404   5.041   6.776
14044TIP3    H242078   5.527   5.106   6.836
14045TIP3   OH242079   2.317   0.430   0.224
14045TIP3    H142080   2.286   0.429   0.315
14045TIP3    H242081   2.280   0.350   0.186
14046TIP3   OH242082   2.104   0.903   1.268
14046TIP3    H142083   2.057   0.922   1.350
14046TIP3    H242084   2.091   0.982   1.215
14047TIP3   OH242085   1.986   0.780   0.786
14047TIP3    H142086   1.894   0.758   0.803
14047TIP3    H242087   2.003   0.748   0.697
14048TIP3   OH242088   2.481   0.873   0.511
14048TIP3    H142089   2.431   0.943   0.470
14048TIP3    H242090   2.536   0.838   0.441
14049TIP3   OH242091   2.641   1.148   1.591
14049TIP3    H142092   2.634   1.082   1.659
14049TIP3    H242093   2.724   1.192   1.608
14050TIP3   OH242094   2.635   0.897   0.746
14050TIP3    H142095   2.573   0.929   0.680
14050TIP3    H242096   2.673   0.819   0.706
14051TIP3   OH242097   1.927   0.933   1.478
14051TIP3    H142098   1.960   0.997   1.541
14051TIP3    H242099   1.914   0.853   1.530
14052TIP3   OH242100   1.974   0.406   0.186
14052TIP3    H142101   1.968   0.408   0.281
14052TIP3    H242102   1.900   0.460   0.156
14053TIP3   OH242103   1.526   0.449   1.054
14053TIP3    H142104   1.599   0.477   1.109
14053TIP3    H242105   1.567   0.400   0.982
14054TIP3   OH242106   1.479   0.431   0.572
14054TIP3    H142107   1.526   0.465   0.496
14054TIP3    H242108   1.420   0.502   0.597
14055TIP3   OH242109   2.637   1.141   1.167
14055TIP3    H142110   2.677   1.076   1.109
14055TIP3    H242111   2.610   1.091   1.244
14056TIP3   OH242112   2.323   0.607   0.846
14056TIP3    H142113   2.242   0.605   0.896
14056TIP3    H242114   2.392   0.603   0.913
14057TIP3   OH242115   1.743   0.656   0.850
14057TIP3    H142116   1.654   0.681   0.825
14057TIP3    H242117   1.745   0.561   0.837
14058TIP3   OH242118   2.017   0.665   0.542
14058TIP3    H142119   2.110   0.674   0.519
14058TIP3    H242120   1.970   0.682   0.460
14059TIP3   OH242121   2.807   0.682   1.048
14059TIP3    H142122   2.777   0.699   1.137
14059TIP3    H242123   2.742   0.623   1.011
14060TIP3   OH242124   1.867   0.697   0.315
14060TIP3    H142125   1.798   0.650   0.268
14060TIP3    H242126   1.920   0.736   0.246
14061TIP3   OH242127   1.915   1.477   1.694
14061TIP3    H142128   2.002   1.506   1.720
14061TIP3    H242129   1.880   1.432   1.771
14062TIP3   OH242130   2.401   0.938   0.941
14062TIP3    H142131   2.473   0.902   0.890
14062TIP3    H242132   2.408   0.895   1.027
14063TIP3   OH242133   2.375   0.836   1.235
14063TIP3    H142134   2.287   0.873   1.246
14063TIP3    H242135   2.432   0.898   1.280
14064TIP3   OH242136   2.110   1.224   0.328
14064TIP3    H142137   2.041   1.159   0.313
14064TIP3    H242138   2.092   1.258   0.415
14065TIP3   OH242139   3.011   1.457   0.949
14065TIP3    H142140   3.036   1.508   0.872
14065TIP3    H242141   2.928   1.416   0.925
14066TIP3   OH242142   2.570   0.533   0.199
14066TIP3    H142143   2.476   0.515   0.202
14066TIP3    H242144   2.577   0.627   0.217
14067TIP3   OH242145   2.505   1.546   1.324
14067TIP3    H142146   2.518   1.520   1.415
14067TIP3    H242147   2.467   1.634   1.329
14068TIP3   OH242148   2.640   0.788   0.296
14068TIP3    H142149   2.735   0.793   0.309
14068TIP3    H242150   2.619   0.865   0.244
14069TIP3   OH242151   1.808   1.248   1.000
14069TIP3    H142152   1.844   1.221   0.915
14069TIP3    H242153   1.851   1.191   1.063
14070TIP3   OH242154   2.259   1.375   0.154
14070TIP3    H142155   2.213   1.459   0.154
14070TIP3    H242156   2.207   1.319   0.211
14071TIP3   OH242157   1.690   1.168   1.604
14071TIP3    H142158   1.724   1.162   1.694
14071TIP3    H242159   1.618   1.105   1.601
14072TIP3   OH242160   2.400   1.281   1.617
14072TIP3    H142161   2.345   1.215   1.575
14072TIP3    H242162   2.489   1.247   1.609
14073TIP3   OH242163   2.665   1.805   1.212
14073TIP3    H142164   2.571   1.798   1.223
14073TIP3    H242165   2.697   1.843   1.294
14074TIP3   OH242166   3.078   0.881   0.125
14074TIP3    H142167   3.019   0.833   0.067
14074TIP3    H242168   3.078   0.970   0.091
14075TIP3   OH242169   3.295   1.685   1.192
14075TIP3    H142170   3.203   1.697   1.171
14075TIP3    H242171   3.338   1.678   1.107
14076TIP3   OH242172   2.786   1.693   0.038
14076TIP3    H142173   2.756   1.623   0.096
14076TIP3    H242174   2.798   1.651  -0.047
14077TIP3   OH242175   2.776   1.322   0.868
14077TIP3    H142176   2.684   1.302   0.883
14077TIP3    H242177   2.812   1.244   0.826
14078TIP3   OH242178   1.908   1.555   0.631
14078TIP3    H142179   1.909   1.633   0.574
14078TIP3    H242180   1.816   1.531   0.637
14079TIP3   OH242181   1.475   0.856   0.338
14079TIP3    H142182   1.519   0.939   0.355
14079TIP3    H242183   1.397   0.858   0.394
14080TIP3   OH242184   2.038   1.315   0.571
14080TIP3    H142185   2.008   1.405   0.589
14080TIP3    H242186   2.005   1.264   0.645
14081TIP3   OH242187   2.181   1.895   1.095
14081TIP3    H142188   2.221   1.965   1.044
14081TIP3    H242189   2.254   1.854   1.141
14082TIP3   OH242190   1.824   1.794   0.480
14082TIP3    H142191   1.740   1.800   0.525
14082TIP3    H242192   1.858   1.883   0.481
14083TIP3   OH242193   2.564   1.528   1.059
14083TIP3    H142194   2.551   1.528   1.154
14083TIP3    H242195   2.643   1.477   1.045
14084TIP3   OH242196   5.375   5.432   6.882
14084TIP3    H142197   5.428   5.408   6.958
14084TIP3    H242198   5.287   5.402   6.905
14085TIP3   OH242199   2.792   2.072   1.115
14085TIP3    H142200   2.723   2.008   1.097
14085TIP3    H242201   2.790   2.131   1.040
14086TIP3   OH242202   5.712   5.905   6.697
14086TIP3    H142203   5.752   5.975   6.645
14086TIP3    H242204   5.632   5.944   6.732
14087TIP3   OH242205   1.879   0.674   1.603
14087TIP3    H142206   1.785   0.689   1.611
14087TIP3    H242207   1.890   0.581   1.622
14088TIP3   OH242208   2.704   1.358   0.158
14088TIP3    H142209   2.690   1.291   0.225
14088TIP3    H242210   2.798   1.354   0.141
14089TIP3   OH242211   1.614   1.756   1.256
14089TIP3    H142212   1.667   1.682   1.287
14089TIP3    H242213   1.645   1.831   1.306
14090TIP3   OH242214   4.736   5.408   6.881
14090TIP3    H142215   4.751   5.319   6.850
14090TIP3    H242216   4.714   5.398   6.974
14091TIP3   OH242217   1.847   1.410   0.215
14091TIP3    H142218   1.924   1.380   0.262
14091TIP3    H242219   1.851   1.505   0.219
14092TIP3   OH242220   1.582   1.102   0.416
14092TIP3    H142221   1.516   1.144   0.471
14092TIP3    H242222   1.598   1.166   0.346
14093TIP3   OH242223   2.737   0.738   1.307
14093TIP3    H142224   2.817   0.778   1.339
14093TIP3    H242225   2.726   0.659   1.360
14094TIP3   OH242226   2.621   0.485   0.474
14094TIP3    H142227   2.604   0.504   0.382
14094TIP3    H242228   2.657   0.567   0.508
14095TIP3   OH242229   2.115   1.604   0.160
14095TIP3    H142230   2.030   1.629   0.196
14095TIP3    H242231   2.133   1.671   0.094
14096TIP3   OH242232   2.304   0.669   0.575
14096TIP3    H142233   2.365   0.740   0.555
14096TIP3    H242234   2.308   0.661   0.671
14097TIP3   OH242235   2.572   0.983   1.377
14097TIP3    H142236   2.594   1.037   1.453
14097TIP3    H242237   2.628   0.906   1.385
14098TIP3   OH242238   2.449   0.395   0.675
14098TIP3    H142239   2.435   0.473   0.728
14098TIP3    H242240   2.509   0.424   0.606
14099TIP3   OH242241   1.861   1.683   0.228
14099TIP3    H142242   1.833   1.750   0.166
14099TIP3    H242243   1.846   1.722   0.314
14100TIP3   OH242244   1.958   0.397   0.461
14100TIP3    H142245   1.952   0.480   0.507
14100TIP3    H242246   2.049   0.369   0.473
14101TIP3   OH242247   3.206   0.877   1.370
14101TIP3    H142248   3.110   0.877   1.367
14101TIP3    H242249   3.233   0.855   1.281
14102TIP3   OH242250   2.865   1.078   0.751
14102TIP3    H142251   2.788   1.022   0.761
14102TIP3    H242252   2.934   1.033   0.798
14103TIP3   OH242253   1.583   1.306   0.216
14103TIP3    H142254   1.652   1.371   0.229
14103TIP3    H242255   1.619   1.245   0.152
14104TIP3   OH242256   1.517   0.585   0.355
14104TIP3    H142257   1.525   0.680   0.354
14104TIP3    H242258   1.441   0.567   0.299
14105TIP3   OH242259   2.828   2.036   0.693
14105TIP3    H142260   2.782   2.080   0.621
14105TIP3    H242261   2.921   2.052   0.675
14106TIP3   OH242262   1.903   0.307   1.222
14106TIP3    H142263   1.905   0.283   1.129
14106TIP3    H242264   1.893   0.223   1.267
14107TIP3   OH242265   1.445   1.526   0.601
14107TIP3    H142266   1.381   1.553   0.668
14107TIP3    H242267   1.414   1.566   0.520
14108TIP3   OH242268   1.612   2.053   1.654
14108TIP3    H142269   1.695   2.019   1.689
14108TIP3    H242270   1.552   1.979   1.656
14109TIP3   OH242271   4.901   5.609   6.791
14109TIP3    H142272   4.848   5.538   6.826
14109TIP3    H242273   4.976   5.565   6.750
14110TIP3   OH242274   2.711   1.905   1.466
14110TIP3    H142275   2.720   1.852   1.545
14110TIP3    H242276   2.776   1.975   1.477
14111TIP3   OH242277   5.337   5.651   6.703
14111TIP3    H142278   5.377   5.587   6.761
14111TIP3    H242279   5.389   5.647   6.623
14112TIP3   OH242280   1.717   1.120   0.074
14112TIP3    H142281   1.770   1.088   0.147
14112TIP3    H242282   1.777   1.125   0.000
14113TIP3   OH242283   2.374   1.556   1.633
14113TIP3    H142284   2.309   1.580   1.567
14113TIP3    H242285   2.375   1.461   1.632
14114TIP3   OH242286   5.061   5.326   6.825
14114TIP3    H142287   5.064   5.340   6.919
14114TIP3    H242288   5.063   5.231   6.815
14115TIP3   OH242289   2.829   1.572   1.259
14115TIP3    H142290   2.908   1.608   1.218
14115TIP3    H242291   2.761   1.637   1.240
14116TIP3   OH242292   1.871   1.173   1.829
14116TIP3    H142293   1.961   1.148   1.812
14116TIP3    H242294   1.861   1.163   1.924
14117TIP3   OH242295   1.919   1.025   0.291
14117TIP3    H142296   1.894   0.984   0.374
14117TIP3    H242297   1.959   0.955   0.240
14118TIP3   OH242298   2.190   1.088   1.517
14118TIP3    H142299   2.115   1.147   1.519
14118TIP3    H242300   2.241   1.117   1.442
14119TIP3   OH242301   2.025   0.824   0.130
14119TIP3    H142302   1.998   0.830   0.039
14119TIP3    H242303   2.121   0.825   0.126
14120TIP3   OH242304   5.675   5.157   6.739
14120TIP3    H142305   5.658   5.111   6.657
14120TIP3    H242306   5.644   5.247   6.723
14121TIP3   OH242307   2.317   0.881   1.646
14121TIP3    H142308   2.320   0.803   1.591
14121TIP3    H242309   2.274   0.948   1.592
14122TIP3   OH242310   2.316   0.669   1.455
14122TIP3    H142311   2.348   0.710   1.375
14122TIP3    H242312   2.226   0.643   1.435
14123TIP3   OH242313   2.337   1.197   1.323
14123TIP3    H142314   2.425   1.211   1.286
14123TIP3    H242315   2.283   1.263   1.281
14124TIP3   OH242316   2.957   1.389   1.420
14124TIP3    H142317   2.900   1.455   1.381
14124TIP3    H242318   3.046   1.421   1.403
14125TIP3   OH242319   2.137   0.996   1.852
14125TIP3    H142320   2.093   0.912   1.846
14125TIP3    H242321   2.209   0.990   1.789
14126TIP3   OH242322   2.447   0.430   1.524
14126TIP3    H142323   2.400   0.511   1.503
14126TIP3    H242324   2.383   0.360   1.513
14127TIP3   OH242325   2.573   0.926   1.743
14127TIP3    H142326   2.561   0.916   1.838
14127TIP3    H242327   2.488   0.905   1.706
14128TIP3   OH242328   2.804   0.883   1.600
14128TIP3    H142329   2.720   0.888   1.645
14128TIP3    H242330   2.864   0.850   1.666
14129TIP3   OH242331   2.035   0.739   1.911
14129TIP3    H142332   2.104   0.694   1.863
14129TIP3    H242333   2.069   0.747   2.000
14130TIP3   OH242334   2.560   0.422   1.777
14130TIP3    H142335   2.622   0.350   1.759
14130TIP3    H242336   2.511   0.431   1.695
14131TIP3   OH242337   1.834   1.886   0.039
14131TIP3    H142338   1.928   1.873   0.024
14131TIP3    H242339   1.804   1.935  -0.037
14132TIP3   OH242340   1.312   1.263   0.256
14132TIP3    H142341   1.404   1.288   0.240
14132TIP3    H242342   1.304   1.177   0.214
14133TIP3   OH242343   1.224   1.874   0.673
14133TIP3    H142344   1.160   1.816   0.632
14133TIP3    H242345   1.270   1.818   0.736
14134TIP3   OH242346   1.360   1.723   0.861
14134TIP3    H142347   1.348   1.651   0.923
14134TIP3    H242348   1.413   1.787   0.908
14135TIP3   OH242349   3.081   2.114   0.647
14135TIP3    H142350   3.102   2.144   0.736
14135TIP3    H242351   3.144   2.158   0.591
14136TIP3   OH242352   3.121   2.138   0.917
14136TIP3    H142353   3.080   2.055   0.940
14136TIP3    H242354   3.151   2.174   1.001
14137TIP3   OH242355   2.982   1.337   0.132
14137TIP3    H142356   3.044   1.401   0.100
14137TIP3    H242357   3.025   1.299   0.209
14138TIP3   OH242358   3.108   1.204   0.337
14138TIP3    H142359   3.042   1.163   0.392
14138TIP3    H242360   3.171   1.241   0.400
14139TIP3   OH242361   3.163   1.597   0.765
14139TIP3    H142362   3.212   1.530   0.718
14139TIP3    H242363   3.165   1.673   0.707
14140TIP3   OH242364   2.986   1.905   0.964
14140TIP3    H142365   2.916   1.938   1.021
14140TIP3    H242366   2.940   1.861   0.893
14141TIP3   OH242367   5.876   5.122   6.921
14141TIP3    H142368   5.808   5.119   6.853
14141TIP3    H242369   5.850   5.195   6.977
14142TIP3   OH242370   5.748   4.790   6.874
14142TIP3    H142371   5.706   4.830   6.797
14142TIP3    H242372   5.727   4.697   6.867
14143TIP3   OH242373   2.920   1.063   0.481
14143TIP3    H142374   2.927   0.968   0.471
14143TIP3    H242375   2.906   1.075   0.575
14144TIP3   OH242376   1.546   1.133   1.228
14144TIP3    H142377   1.541   1.101   1.138
14144TIP3    H242378   1.640   1.137   1.247
14145TIP3   OH242379   3.201   1.468   1.327
14145TIP3    H142380   3.282   1.428   1.358
14145TIP3    H242381   3.229   1.545   1.278
14146TIP3   OH242382   3.424   1.304   1.385
14146TIP3    H142383   3.339   1.264   1.402
14146TIP3    H242384   3.485   1.231   1.380
14147TIP3   OH242385   5.691   4.526   6.862
14147TIP3    H142386   5.761   4.492   6.917
14147TIP3    H242387   5.617   4.468   6.878
14148TIP3   OH242388   2.921   0.778   0.372
14148TIP3    H142389   2.958   0.692   0.389
14148TIP3    H242390   2.975   0.814   0.301
14149TIP3   OH242391   3.079   0.948   0.872
14149TIP3    H142392   3.161   0.970   0.827
14149TIP3    H242393   3.089   0.986   0.959
14150TIP3   OH242394   3.147   1.098   1.098
14150TIP3    H142395   3.072   1.127   1.151
14150TIP3    H242396   3.179   1.179   1.058
14151TIP3   OH242397   3.026   0.527   0.414
14151TIP3    H142398   3.074   0.513   0.496
14151TIP3    H242399   2.965   0.454   0.410
14152TIP3   OH242400   1.726   0.514   1.239
14152TIP3    H142401   1.780   0.434   1.239
14152TIP3    H242402   1.788   0.585   1.226
14153TIP3   OH242403   1.530   0.786   1.306
14153TIP3    H142404   1.576   0.780   1.223
14153TIP3    H242405   1.551   0.873   1.340
14154TIP3   OH242406   3.452   0.824   1.472
14154TIP3    H142407   3.362   0.854   1.458
14154TIP3    H242408   3.458   0.742   1.423
14155TIP3   OH242409   3.107   0.458   0.050
14155TIP3    H142410   3.142   0.390  -0.009
14155TIP3    H242411   3.169   0.530   0.043
14156TIP3   OH242412   1.496   0.284   0.800
14156TIP3    H142413   1.406   0.289   0.834
14156TIP3    H242414   1.498   0.346   0.728
14157TIP3   OH242415   2.670   1.995   0.311
14157TIP3    H142416   2.722   1.985   0.231
14157TIP3    H242417   2.718   2.059   0.363
14158TIP3   OH242418   1.746   0.409   1.592
14158TIP3    H142419   1.702   0.352   1.654
14158TIP3    H242420   1.676   0.442   1.535
14159TIP3   OH242421   1.765   1.814   1.707
14159TIP3    H142422   1.678   1.787   1.677
14159TIP3    H242423   1.786   1.752   1.777
14160TIP3   OH242424   1.951   1.838   1.240
14160TIP3    H142425   1.903   1.912   1.205
14160TIP3    H242426   2.038   1.844   1.201
14161TIP3   OH242427   2.409   2.078   1.394
14161TIP3    H142428   2.465   2.051   1.467
14161TIP3    H242429   2.466   2.130   1.337
14162TIP3   OH242430   2.597   2.225   1.250
14162TIP3    H142431   2.650   2.162   1.201
14162TIP3    H242432   2.641   2.309   1.238
14163TIP3   OH242433   3.370   0.585   1.336
14163TIP3    H142434   3.282   0.587   1.297
14163TIP3    H242435   3.400   0.495   1.323
14164TIP3   OH242436   1.623   2.088   1.271
14164TIP3    H142437   1.536   2.119   1.246
14164TIP3    H242438   1.639   2.128   1.356
14165TIP3   OH242439   1.862   2.072   1.130
14165TIP3    H142440   1.777   2.081   1.172
14165TIP3    H242441   1.848   2.100   1.039
14166TIP3   OH242442   2.284   2.096   0.927
14166TIP3    H142443   2.218   2.110   0.859
14166TIP3    H242444   2.298   2.182   0.966
14167TIP3   OH242445   2.553   2.034   0.980
14167TIP3    H142446   2.462   2.052   0.954
14167TIP3    H242447   2.604   2.100   0.932
14168TIP3   OH242448   2.753   2.218   0.885
14168TIP3    H142449   2.738   2.300   0.840
14168TIP3    H242450   2.784   2.158   0.817
14169TIP3   OH242451   1.539   1.878   1.015
14169TIP3    H142452   1.562   1.853   1.104
14169TIP3    H242453   1.607   1.839   0.960
14170TIP3   OH242454   1.735   1.753   0.876
14170TIP3    H142455   1.747   1.670   0.922
14170TIP3    H242456   1.823   1.790   0.868
14171TIP3   OH242457   2.001   1.844   0.880
14171TIP3    H142458   2.029   1.754   0.863
14171TIP3    H242459   2.048   1.869   0.960
14172TIP3   OH242460   2.576   0.503   0.970
14172TIP3    H142461   2.531   0.435   1.019
14172TIP3    H242462   2.644   0.457   0.921
14173TIP3   OH242463   3.094   0.385   0.865
14173TIP3    H142464   3.131   0.435   0.793
14173TIP3    H242465   3.000   0.402   0.861
14174TIP3   OH242466   3.193   0.481   0.629
14174TIP3    H142467   3.264   0.429   0.591
14174TIP3    H242468   3.221   0.572   0.617
14175TIP3   OH242469   1.616   0.108   0.596
14175TIP3    H142470   1.648   0.176   0.537
14175TIP3    H242471   1.597   0.154   0.677
14176TIP3   OH242472   2.301   0.225   0.857
14176TIP3    H142473   2.343   0.290   0.801
14176TIP3    H242474   2.243   0.277   0.914
14177TIP3   OH242475   2.811   0.391   0.841
14177TIP3    H142476   2.807   0.356   0.752
14177TIP3    H242477   2.800   0.314   0.897
14178TIP3   OH242478   2.841   0.316   0.407
14178TIP3    H142479   2.758   0.363   0.421
14178TIP3    H242480   2.828   0.231   0.448
14179TIP3   OH242481   1.322   1.659   0.401
14179TIP3    H142482   1.240   1.622   0.370
14179TIP3    H242483   1.318   1.752   0.378
14180TIP3   OH242484   1.738   0.238   0.381
14180TIP3    H142485   1.788   0.176   0.329
14180TIP3    H242486   1.804   0.297   0.418
14181TIP3   OH242487   2.239   0.418   0.488
14181TIP3    H142488   2.292   0.367   0.549
14181TIP3    H242489   2.259   0.510   0.510
14182TIP3   OH242490   4.934   5.844   6.925
14182TIP3    H142491   5.020   5.870   6.892
14182TIP3    H242492   4.907   5.771   6.869
14183TIP3   OH242493   2.817   1.960   0.080
14183TIP3    H142494   2.811   1.865   0.073
14183TIP3    H242495   2.772   1.993   0.002
14184TIP3   OH242496   1.404   1.675   0.042
14184TIP3    H142497   1.407   1.695   0.135
14184TIP3    H242498   1.487   1.633   0.023
14185TIP3   OH242499   4.295   1.474   0.035
14185TIP3    H142500   4.270   1.564   0.013
14185TIP3    H242501   4.228   1.420  -0.008
14186TIP3   OH242502   4.270   1.486   0.444
14186TIP3    H142503   4.338   1.433   0.486
14186TIP3    H242504   4.256   1.445   0.359
14187TIP3   OH242505   3.605   1.338   0.757
14187TIP3    H142506   3.628   1.275   0.825
14187TIP3    H242507   3.673   1.405   0.762
14188TIP3   OH242508   3.586   1.781   0.501
14188TIP3    H142509   3.569   1.687   0.505
14188TIP3    H242510   3.681   1.788   0.489
14189TIP3   OH242511   3.283   0.984   0.284
14189TIP3    H142512   3.238   1.066   0.304
14189TIP3    H242513   3.218   0.930   0.241
14190TIP3   OH242514   3.346   1.270   0.465
14190TIP3    H142515   3.393   1.194   0.499
14190TIP3    H242516   3.399   1.300   0.391
14191TIP3   OH242517   4.093   1.697   0.412
14191TIP3    H142518   4.115   1.605   0.404
14191TIP3    H242519   4.177   1.742   0.410
14192TIP3   OH242520   4.495   1.186   0.479
14192TIP3    H142521   4.536   1.100   0.487
14192TIP3    H242522   4.465   1.191   0.388
14193TIP3   OH242523   3.861   0.863   0.455
14193TIP3    H142524   3.842   0.937   0.397
14193TIP3    H242525   3.814   0.789   0.415
14194TIP3   OH242526   4.559   0.955   0.080
14194TIP3    H142527   4.625   0.935   0.146
14194TIP3    H242528   4.609   0.994   0.008
14195TIP3   OH242529   3.491   1.061   0.566
14195TIP3    H142530   3.572   1.049   0.615
14195TIP3    H242531   3.503   1.009   0.487
14196TIP3   OH242532   3.933   1.259   0.354
14196TIP3    H142533   4.024   1.234   0.370
14196TIP3    H242534   3.891   1.178   0.324
14197TIP3   OH242535   3.848   0.846   0.894
14197TIP3    H142536   3.793   0.883   0.826
14197TIP3    H242537   3.800   0.862   0.975
14198TIP3   OH242538   7.019   5.702   6.847
14198TIP3    H142539   6.998   5.685   6.755
14198TIP3    H242540   6.979   5.787   6.865
14199TIP3   OH242541   3.953   1.614   0.652
14199TIP3    H142542   3.894   1.673   0.698
14199TIP3    H242543   4.005   1.670   0.595
14200TIP3   OH242544   4.758   0.941   0.269
14200TIP3    H142545   4.711   0.910   0.347
14200TIP3    H242546   4.803   1.020   0.298
14201TIP3   OH242547   3.727   0.961   0.675
14201TIP3    H142548   3.785   1.032   0.703
14201TIP3    H242549   3.773   0.920   0.601
14202TIP3   OH242550   3.180   1.510   0.021
14202TIP3    H142551   3.140   1.532  -0.063
14202TIP3    H242552   3.211   1.593   0.056
14203TIP3   OH242553   4.199   0.565   0.606
14203TIP3    H142554   4.188   0.471   0.622
14203TIP3    H242555   4.127   0.606   0.653
14204TIP3   OH242556   7.279   5.884   6.775
14204TIP3    H142557   7.265   5.802   6.728
14204TIP3    H242558   7.354   5.866   6.832
14205TIP3   OH242559   6.971   5.338   6.803
14205TIP3    H142560   6.893   5.389   6.786
14205TIP3    H242561   7.017   5.336   6.719
14206TIP3   OH242562   6.934   5.122   6.519
14206TIP3    H142563   6.997   5.176   6.566
14206TIP3    H242564   6.988   5.059   6.471
14207TIP3   OH242565   7.318   5.417   6.783
14207TIP3    H142566   7.264   5.441   6.859
14207TIP3    H242567   7.402   5.391   6.820
14208TIP3   OH242568   3.719   1.406   0.253
14208TIP3    H142569   3.677   1.351   0.187
14208TIP3    H242570   3.795   1.355   0.281
14209TIP3   OH242571   3.852   1.827   0.383
14209TIP3    H142572   3.809   1.802   0.301
14209TIP3    H242573   3.929   1.771   0.389
14210TIP3   OH242574   3.865   1.363   0.600
14210TIP3    H142575   3.889   1.338   0.511
14210TIP3    H242576   3.903   1.450   0.611
14211TIP3   OH242577   7.161   5.278   6.601
14211TIP3    H142578   7.216   5.336   6.653
14211TIP3    H242579   7.186   5.295   6.511
14212TIP3   OH242580   3.679   1.517   0.972
14212TIP3    H142581   3.630   1.593   0.939
14212TIP3    H242582   3.615   1.467   1.023
14213TIP3   OH242583   6.903   5.953   6.867
14213TIP3    H142584   6.963   6.007   6.918
14213TIP3    H242585   6.844   6.016   6.825
14214TIP3   OH242586   7.677   4.517   6.653
14214TIP3    H142587   7.596   4.536   6.700
14214TIP3    H242588   7.693   4.595   6.601
14215TIP3   OH242589   3.583   1.252   0.058
14215TIP3    H142590   3.519   1.298   0.003
14215TIP3    H242591   3.547   1.164   0.067
14216TIP3   OH242592   7.479   5.882   6.193
14216TIP3    H142593   7.480   5.977   6.184
14216TIP3    H242594   7.569   5.856   6.174
14217TIP3   OH242595   3.382   1.622   0.942
14217TIP3    H142596   3.309   1.613   0.880
14217TIP3    H242597   3.397   1.534   0.975
14218TIP3   OH242598   3.222   1.826   0.612
14218TIP3    H142599   3.311   1.838   0.579
14218TIP3    H242600   3.192   1.915   0.630
14219TIP3   OH242601   6.777   6.198   6.686
14219TIP3    H142602   6.735   6.182   6.602
14219TIP3    H242603   6.751   6.287   6.709
14220TIP3   OH242604   3.386   2.038   0.121
14220TIP3    H142605   3.429   2.033   0.206
14220TIP3    H242606   3.332   1.959   0.116
14221TIP3   OH242607   6.983   6.091   6.310
14221TIP3    H142608   7.039   6.024   6.271
14221TIP3    H242609   7.017   6.102   6.399
14222TIP3   OH242610   7.016   6.128   6.584
14222TIP3    H142611   6.935   6.151   6.628
14222TIP3    H242612   7.053   6.057   6.637
14223TIP3   OH242613   3.968   0.642   0.742
14223TIP3    H142614   3.884   0.610   0.711
14223TIP3    H242615   3.946   0.722   0.790
14224TIP3   OH242616   4.500   0.738   0.922
14224TIP3    H142617   4.556   0.785   0.983
14224TIP3    H242618   4.413   0.740   0.962
14225TIP3   OH242619   7.238   5.311   6.342
14225TIP3    H142620   7.208   5.288   6.254
14225TIP3    H242621   7.309   5.373   6.329
14226TIP3   OH242622   6.949   4.692   6.652
14226TIP3    H142623   6.915   4.693   6.742
14226TIP3    H242624   6.909   4.615   6.612
14227TIP3   OH242625   3.905   1.149   0.754
14227TIP3    H142626   3.862   1.171   0.837
14227TIP3    H242627   3.890   1.225   0.698
14228TIP3   OH242628   3.785   1.042   0.268
14228TIP3    H142629   3.694   1.019   0.290
14228TIP3    H242630   3.799   1.003   0.182
14229TIP3   OH242631   7.107   5.135   6.932
14229TIP3    H142632   7.057   5.206   6.892
14229TIP3    H242633   7.163   5.103   6.862
14230TIP3   OH242634   4.422   1.151   0.221
14230TIP3    H142635   4.361   1.183   0.155
14230TIP3    H242636   4.461   1.073   0.182
14231TIP3   OH242637   3.733   1.178   0.968
14231TIP3    H142638   3.789   1.230   1.026
14231TIP3    H242639   3.714   1.099   1.019
14232TIP3   OH242640   6.607   4.674   6.617
14232TIP3    H142641   6.595   4.671   6.712
14232TIP3    H242642   6.531   4.723   6.585
14233TIP3   OH242643   3.315   0.704   0.549
14233TIP3    H142644   3.389   0.738   0.600
14233TIP3    H242645   3.354   0.678   0.465
14234TIP3   OH242646   3.280   0.691   0.064
14234TIP3    H142647   3.326   0.723  -0.013
14234TIP3    H242648   3.219   0.760   0.087
14235TIP3   OH242649   4.115   0.857   0.330
14235TIP3    H142650   4.033   0.861   0.379
14235TIP3    H242651   4.183   0.866   0.397
14236TIP3   OH242652   3.546   0.922   0.337
14236TIP3    H142653   3.455   0.932   0.310
14236TIP3    H242654   3.569   0.832   0.315
14237TIP3   OH242655   6.647   4.924   6.968
14237TIP3    H142656   6.739   4.940   6.946
14237TIP3    H242657   6.599   4.945   6.888
14238TIP3   OH242658   4.568   0.924   0.493
14238TIP3    H142659   4.559   0.919   0.588
14238TIP3    H242660   4.502   0.863   0.460
14239TIP3   OH242661   6.497   4.959   6.744
14239TIP3    H142662   6.427   4.912   6.700
14239TIP3    H242663   6.550   4.996   6.673
14240TIP3   OH242664   4.186   1.176   0.422
14240TIP3    H142665   4.266   1.156   0.374
14240TIP3    H242666   4.203   1.146   0.512
14241TIP3   OH242667   3.717   0.679   0.311
14241TIP3    H142668   3.681   0.605   0.359
14241TIP3    H242669   3.755   0.640   0.232
14242TIP3   OH242670   4.173   1.090   0.719
14242TIP3    H142671   4.081   1.115   0.725
14242TIP3    H242672   4.215   1.133   0.793
14243TIP3   OH242673   6.741   5.487   6.757
14243TIP3    H142674   6.671   5.423   6.743
14243TIP3    H242675   6.723   5.523   6.844
14244TIP3   OH242676   7.200   4.798   6.624
14244TIP3    H142677   7.106   4.778   6.630
14244TIP3    H242678   7.207   4.891   6.645
14245TIP3   OH242679   7.271   5.050   6.721
14245TIP3    H142680   7.365   5.057   6.737
14245TIP3    H242681   7.249   5.129   6.671
14246TIP3   OH242682   3.611   1.508   0.489
14246TIP3    H142683   3.645   1.478   0.405
14246TIP3    H242684   3.634   1.439   0.551
14247TIP3   OH242685   6.888   5.638   6.579
14247TIP3    H142686   6.843   5.722   6.579
14247TIP3    H242687   6.836   5.583   6.638
14248TIP3   OH242688   3.469   1.393   1.119
14248TIP3    H142689   3.450   1.376   1.212
14248TIP3    H242690   3.396   1.353   1.072
14249TIP3   OH242691   7.710   5.140   6.551
14249TIP3    H142692   7.650   5.095   6.491
14249TIP3    H242693   7.708   5.231   6.522
14250TIP3   OH242694   7.352   5.934   6.443
14250TIP3    H142695   7.388   5.889   6.519
14250TIP3    H242696   7.413   5.916   6.372
14251TIP3   OH242697   3.705   1.817   0.128
14251TIP3    H142698   3.704   1.892   0.068
14251TIP3    H242699   3.615   1.786   0.129
14252TIP3   OH242700   6.105   5.119   6.767
14252TIP3    H142701   6.148   5.203   6.783
14252TIP3    H242702   6.026   5.121   6.821
14253TIP3   OH242703   3.834   1.574   0.059
14253TIP3    H142704   3.805   1.664   0.079
14253TIP3    H242705   3.799   1.522   0.132
14254TIP3   OH242706   6.456   6.052   6.910
14254TIP3    H142707   6.370   6.060   6.952
14254TIP3    H242708   6.492   6.141   6.911
14255TIP3   OH242709   7.173   5.660   6.368
14255TIP3    H142710   7.222   5.657   6.451
14255TIP3    H242711   7.081   5.656   6.395
14256TIP3   OH242712   7.490   6.152   6.173
14256TIP3    H142713   7.559   6.208   6.139
14256TIP3    H242714   7.417   6.211   6.189
14257TIP3   OH242715   3.692   0.924   1.111
14257TIP3    H142716   3.598   0.932   1.127
14257TIP3    H242717   3.724   0.869   1.183
14258TIP3   OH242718   7.320   5.627   6.602
14258TIP3    H142719   7.309   5.556   6.665
14258TIP3    H242720   7.412   5.622   6.576
14259TIP3   OH242721   3.429   2.027   0.756
14259TIP3    H142722   3.422   1.937   0.787
14259TIP3    H242723   3.389   2.080   0.824
14260TIP3   OH242724   6.534   5.664   6.367
14260TIP3    H142725   6.547   5.574   6.337
14260TIP3    H242726   6.512   5.655   6.460
14261TIP3   OH242727   6.479   5.673   6.640
14261TIP3    H142728   6.556   5.646   6.690
14261TIP3    H242729   6.480   5.769   6.645
14262TIP3   OH242730   6.212   5.367   6.843
14262TIP3    H142731   6.146   5.408   6.899
14262TIP3    H242732   6.226   5.431   6.772
14263TIP3   OH242733   7.251   4.749   6.901
14263TIP3    H142734   7.233   4.768   6.809
14263TIP3    H242735   7.288   4.830   6.936
14264TIP3   OH242736   6.745   5.869   6.586
14264TIP3    H142737   6.659   5.892   6.621
14264TIP3    H242738   6.763   5.937   6.521
14265TIP3   OH242739   4.100   0.926   0.061
14265TIP3    H142740   4.161   0.997   0.041
14265TIP3    H242741   4.104   0.917   0.157
14266TIP3   OH242742   4.243   0.647   0.160
14266TIP3    H142743   4.226   0.723   0.216
14266TIP3    H242744   4.304   0.680   0.094
14267TIP3   OH242745   6.492   5.946   6.656
14267TIP3    H142746   6.462   6.012   6.593
14267TIP3    H242747   6.476   5.985   6.741
14268TIP3   OH242748   6.592   4.660   6.894
14268TIP3    H142749   6.584   4.749   6.929
14268TIP3    H242750   6.685   4.640   6.898
14269TIP3   OH242751   4.697   1.262   0.246
14269TIP3    H142752   4.605   1.236   0.248
14269TIP3    H242753   4.733   1.232   0.329
14270TIP3   OH242754   6.211   5.568   6.644
14270TIP3    H142755   6.278   5.636   6.655
14270TIP3    H242756   6.248   5.509   6.578
14271TIP3   OH242757   6.148   4.848   6.781
14271TIP3    H142758   6.151   4.944   6.781
14271TIP3    H242759   6.071   4.827   6.727
14272TIP3   OH242760   3.707   0.560   0.708
14272TIP3    H142761   3.676   0.530   0.623
14272TIP3    H242762   3.695   0.485   0.766
14273TIP3   OH242763   3.238   1.778   0.089
14273TIP3    H142764   3.179   1.810   0.157
14273TIP3    H242765   3.207   1.819   0.009
14274TIP3   OH242766   6.697   5.867   6.277
14274TIP3    H142767   6.646   5.794   6.312
14274TIP3    H242768   6.773   5.826   6.235
14275TIP3   OH242769   7.141   5.904   6.188
14275TIP3    H142770   7.201   5.877   6.257
14275TIP3    H242771   7.195   5.906   6.109
14276TIP3   OH242772   6.347   5.383   6.501
14276TIP3    H142773   6.401   5.354   6.574
14276TIP3    H242774   6.408   5.390   6.427
14277TIP3   OH242775   6.857   5.581   6.308
14277TIP3    H142776   6.860   5.597   6.402
14277TIP3    H242777   6.854   5.486   6.300
14278TIP3   OH242778   6.551   5.289   6.720
14278TIP3    H142779   6.521   5.249   6.801
14278TIP3    H242780   6.588   5.217   6.669
14279TIP3   OH242781   3.990   1.331   0.987
14279TIP3    H142782   3.944   1.386   1.050
14279TIP3    H242783   4.010   1.390   0.914
14280TIP3   OH242784   6.654   5.086   6.558
14280TIP3    H142785   6.626   5.093   6.467
14280TIP3    H242786   6.750   5.089   6.553
14281TIP3   OH242787   7.480   5.422   6.218
14281TIP3    H142788   7.453   5.371   6.141
14281TIP3    H242789   7.441   5.508   6.205
14282TIP3   OH242790   2.009   0.226   3.186
14282TIP3    H142791   2.037   0.158   3.124
14282TIP3    H242792   1.980   0.298   3.130
14283TIP3   OH242793   4.111   0.909   0.934
14283TIP3    H142794   4.139   0.953   0.854
14283TIP3    H242795   4.017   0.895   0.923
14284TIP3   OH242796   4.243   0.691   1.032
14284TIP3    H142797   4.197   0.770   1.001
14284TIP3    H242798   4.182   0.620   1.014
14285TIP3   OH242799   3.810   1.019   1.423
14285TIP3    H142800   3.831   0.941   1.370
14285TIP3    H242801   3.876   1.019   1.492
14286TIP3   OH242802   4.344   0.686   1.290
14286TIP3    H142803   4.418   0.639   1.253
14286TIP3    H242804   4.285   0.700   1.216
14287TIP3   OH242805   6.464   6.149   6.466
14287TIP3    H142806   6.557   6.137   6.450
14287TIP3    H242807   6.432   6.197   6.389
14288TIP3   OH242808   5.941   5.526   6.682
14288TIP3    H142809   6.033   5.548   6.667
14288TIP3    H242810   5.930   5.440   6.641
14289TIP3   OH242811   3.021   2.132   0.155
14289TIP3    H142812   2.955   2.076   0.115
14289TIP3    H242813   3.066   2.075   0.218
14290TIP3   OH242814   3.151   1.968   0.333
14290TIP3    H142815   3.127   1.901   0.397
14290TIP3    H242816   3.201   2.033   0.384
14291TIP3   OH242817   7.582   5.585   6.560
14291TIP3    H142818   7.644   5.639   6.510
14291TIP3    H242819   7.635   5.546   6.629
14292TIP3   OH242820   7.722   5.435   6.739
14292TIP3    H142821   7.673   5.427   6.821
14292TIP3    H242822   7.784   5.506   6.755
14293TIP3   OH242823   7.668   5.372   6.410
14293TIP3    H142824   7.603   5.376   6.340
14293TIP3    H242825   7.643   5.441   6.471
14294TIP3   OH242826   7.543   5.044   6.362
14294TIP3    H142827   7.501   5.087   6.287
14294TIP3    H242828   7.522   4.952   6.352
14295TIP3   OH242829   7.536   5.310   6.915
14295TIP3    H142830   7.549   5.220   6.884
14295TIP3    H242831   7.544   5.304   7.010
14296TIP3   OH242832   3.340   1.387   0.711
14296TIP3    H142833   3.327   1.355   0.621
14296TIP3    H242834   3.434   1.381   0.725
14297TIP3   OH242835   7.488   4.779   6.344
14297TIP3    H142836   7.555   4.747   6.404
14297TIP3    H242837   7.412   4.724   6.362
14298TIP3   OH242838   7.552   5.042   6.798
14298TIP3    H142839   7.587   4.954   6.812
14298TIP3    H242840   7.604   5.077   6.725
14299TIP3   OH242841   3.547   1.062   1.372
14299TIP3    H142842   3.642   1.063   1.383
14299TIP3    H242843   3.517   0.988   1.424
14300TIP3   OH242844   7.655   4.790   6.840
14300TIP3    H142845   7.701   4.776   6.922
14300TIP3    H242846   7.592   4.718   6.835
14301TIP3   OH242847   3.524   0.770   0.720
14301TIP3    H142848   3.583   0.695   0.728
14301TIP3    H242849   3.582   0.846   0.711
14302TIP3   OH242850   3.323   1.043   0.790
14302TIP3    H142851   3.370   1.038   0.707
14302TIP3    H242852   3.352   1.126   0.829
14303TIP3   OH242853   7.739   4.721   6.479
14303TIP3    H142854   7.771   4.655   6.418
14303TIP3    H242855   7.798   4.795   6.468
14304TIP3   OH242856   3.307   0.548   0.294
14304TIP3    H142857   3.216   0.541   0.321
14304TIP3    H242858   3.304   0.605   0.216
14305TIP3   OH242859   3.525   0.616   1.101
14305TIP3    H142860   3.483   0.622   1.187
14305TIP3    H242861   3.465   0.661   1.041
14306TIP3   OH242862   3.320   2.108   0.504
14306TIP3    H142863   3.363   2.114   0.590
14306TIP3    H242864   3.389   2.080   0.444
14307TIP3   OH242865   3.512   1.999   0.355
14307TIP3    H142866   3.534   1.921   0.406
14307TIP3    H242867   3.597   2.040   0.337
14308TIP3   OH242868   3.761   2.098   0.323
14308TIP3    H142869   3.806   2.016   0.302
14308TIP3    H242870   3.822   2.147   0.377
14309TIP3   OH242871   4.365   0.743   0.447
14309TIP3    H142872   4.314   0.680   0.497
14309TIP3    H242873   4.431   0.691   0.402
14310TIP3   OH242874   4.891   0.641   0.345
14310TIP3    H142875   4.926   0.697   0.276
14310TIP3    H242876   4.799   0.664   0.352
14311TIP3   OH242877   4.994   0.742   0.111
14311TIP3    H142878   5.061   0.687   0.072
14311TIP3    H242879   5.032   0.830   0.110
14312TIP3   OH242880   3.615   0.467   0.462
14312TIP3    H142881   3.524   0.440   0.465
14312TIP3    H242882   3.665   0.385   0.457
14313TIP3   OH242883   3.415   0.341   0.117
14313TIP3    H142884   3.440   0.394   0.041
14313TIP3    H242885   3.383   0.404   0.181
14314TIP3   OH242886   4.070   0.497   0.346
14314TIP3    H142887   4.120   0.546   0.281
14314TIP3    H242888   4.086   0.543   0.428
14315TIP3   OH242889   4.607   0.642   0.326
14315TIP3    H142890   4.608   0.605   0.238
14315TIP3    H242891   4.597   0.567   0.384
14316TIP3   OH242892   7.470   4.580   6.833
14316TIP3    H142893   7.388   4.627   6.847
14316TIP3    H242894   7.456   4.495   6.875
14317TIP3   OH242895   5.953   5.923   6.829
14317TIP3    H142896   5.870   5.886   6.798
14317TIP3    H242897   5.948   6.015   6.806
14318TIP3   OH242898   6.359   4.501   6.817
14318TIP3    H142899   6.403   4.440   6.757
14318TIP3    H242900   6.430   4.556   6.851
14319TIP3   OH242901   4.035   0.676  -0.024
14319TIP3    H142902   4.093   0.627   0.033
14319TIP3    H242903   4.052   0.768  -0.003
14320TIP3   OH242904   6.730   6.101   6.412
14320TIP3    H142905   6.816   6.125   6.379
14320TIP3    H242906   6.702   6.028   6.357
14321TIP3   OH242907   7.425   6.201   6.492
14321TIP3    H142908   7.405   6.108   6.492
14321TIP3    H242909   7.442   6.223   6.401
14322TIP3   OH242910   3.817   0.731   1.333
14322TIP3    H142911   3.774   0.672   1.394
14322TIP3    H242912   3.909   0.733   1.361
14323TIP3   OH242913   4.064   0.723   1.447
14323TIP3    H142914   4.155   0.724   1.416
14323TIP3    H242915   4.072   0.712   1.542
14324TIP3   OH242916   6.034   5.941   6.469
14324TIP3    H142917   6.035   5.959   6.563
14324TIP3    H242918   6.118   5.898   6.452
14325TIP3   OH242919   7.908   5.241   6.717
14325TIP3    H142920   7.860   5.323   6.724
14325TIP3    H242921   7.852   5.183   6.666
14326TIP3   OH242922   7.759   5.721   6.408
14326TIP3    H142923   7.732   5.765   6.327
14326TIP3    H242924   7.779   5.793   6.468
14327TIP3   OH242925   0.208   4.976   6.167
14327TIP3    H142926   0.243   4.909   6.226
14327TIP3    H242927   0.197   4.932   6.083
14328TIP3   OH242928   8.404   4.934   6.101
14328TIP3    H142929   8.383   4.919   6.193
14328TIP3    H242930   8.328   4.981   6.066
14329TIP3   OH242931   7.983   4.963   6.972
14329TIP3    H142932   8.024   5.042   6.938
14329TIP3    H242933   7.964   4.910   6.894
14330TIP3   OH242934   7.911   4.953   6.491
14330TIP3    H142935   7.958   4.987   6.415
14330TIP3    H242936   7.847   5.022   6.513
14331TIP3   OH242937   8.137   5.121   6.820
14331TIP3    H142938   8.067   5.163   6.770
14331TIP3    H242939   8.183   5.066   6.756
14332TIP3   OH242940   3.613   0.298   1.490
14332TIP3    H142941   3.596   0.334   1.578
14332TIP3    H242942   3.531   0.311   1.443
14333TIP3   OH242943   8.299   5.203   6.249
14333TIP3    H142944   8.214   5.170   6.220
14333TIP3    H242945   8.344   5.229   6.168
14334TIP3   OH242946   8.319   4.935   6.703
14334TIP3    H142947   8.289   4.871   6.768
14334TIP3    H242948   8.401   4.898   6.669
14335TIP3   OH242949   7.870   5.358   6.222
14335TIP3    H142950   7.921   5.439   6.231
14335TIP3    H242951   7.808   5.361   6.295
14336TIP3   OH242952   8.320   5.875   5.866
14336TIP3    H142953   8.315   5.787   5.828
14336TIP3    H242954   8.403   5.876   5.913
14337TIP3   OH242955   7.968   5.602   6.281
14337TIP3    H142956   7.900   5.624   6.345
14337TIP3    H242957   7.996   5.687   6.247
14338TIP3   OH242958   8.385   4.903   6.371
14338TIP3    H142959   8.367   4.983   6.421
14338TIP3    H242960   8.477   4.884   6.389
14339TIP3   OH242961   7.994   5.856   6.091
14339TIP3    H142962   8.038   5.863   6.176
14339TIP3    H242963   8.048   5.795   6.041
14340TIP3   OH242964   7.954   5.104   6.267
14340TIP3    H142965   7.947   5.199   6.254
14340TIP3    H242966   7.883   5.068   6.214
14341TIP3   OH242967   8.158   5.658   6.006
14341TIP3    H142968   8.209   5.600   6.062
14341TIP3    H242969   8.204   5.657   5.922
14342TIP3   OH242970   8.318   5.504   6.161
14342TIP3    H142971   8.347   5.494   6.252
14342TIP3    H242972   8.375   5.447   6.110
14343TIP3   OH242973   8.475   5.320   6.032
14343TIP3    H142974   8.434   5.305   5.947
14343TIP3    H242975   8.533   5.394   6.019
14344TIP3   OH242976   7.734   5.785   6.127
14344TIP3    H142977   7.818   5.830   6.118
14344TIP3    H242978   7.749   5.699   6.086
14345TIP3   OH242979   7.926   4.832   6.736
14345TIP3    H142980   7.834   4.808   6.746
14345TIP3    H242981   7.930   4.878   6.653
14346TIP3   OH242982   8.252   4.743   6.891
14346TIP3    H142983   8.159   4.722   6.893
14346TIP3    H242984   8.296   4.659   6.895
14347TIP3   OH242985   8.046   4.605   6.545
14347TIP3    H142986   8.068   4.655   6.467
14347TIP3    H242987   8.011   4.671   6.606
14348TIP3   OH242988   8.152   4.752   6.304
14348TIP3    H142989   8.194   4.691   6.242
14348TIP3    H242990   8.225   4.805   6.337
14349TIP3   OH242991   0.172   4.967   6.446
14349TIP3    H142992   0.238   4.898   6.455
14349TIP3    H242993   0.165   5.005   6.534
14350TIP3   OH242994   7.790   6.136   5.971
14350TIP3    H142995   7.805   6.216   6.022
14350TIP3    H242996   7.875   6.115   5.933
14351TIP3   OH242997   7.793   2.107   1.553
14351TIP3    H142998   7.814   2.134   1.643
14351TIP3    H242999   7.877   2.103   1.509
14352TIP3   OH243000   7.313   1.988   1.249
14352TIP3    H143001   7.367   1.993   1.328
14352TIP3    H243002   7.363   2.035   1.182
14353TIP3   OH243003   7.509   2.020   1.451
14353TIP3    H143004   7.504   1.936   1.497
14353TIP3    H243005   7.598   2.051   1.466
14354TIP3   OH243006   6.865   2.276   0.981
14354TIP3    H143007   6.777   2.312   0.975
14354TIP3    H243008   6.912   2.313   0.906
14355TIP3   OH243009   6.857   2.142   0.730
14355TIP3    H143010   6.912   2.170   0.803
14355TIP3    H243011   6.915   2.089   0.675
14356TIP3   OH243012   7.261   2.413   1.007
14356TIP3    H143013   7.243   2.481   1.072
14356TIP3    H243014   7.346   2.378   1.031
14357TIP3   OH243015   7.083   2.311   0.821
14357TIP3    H143016   7.150   2.359   0.869
14357TIP3    H243017   7.100   2.331   0.729
14358TIP3   OH243018   7.590   1.555   0.889
14358TIP3    H143019   7.510   1.575   0.937
14358TIP3    H243020   7.607   1.634   0.837
14359TIP3   OH243021   7.411   2.912   0.401
14359TIP3    H143022   7.419   3.007   0.394
14359TIP3    H243023   7.501   2.881   0.411
14360TIP3   OH243024   7.152   2.347   0.567
14360TIP3    H143025   7.119   2.327   0.480
14360TIP3    H243026   7.230   2.400   0.552
14361TIP3   OH243027   6.853   1.743   0.865
14361TIP3    H143028   6.839   1.741   0.960
14361TIP3    H243029   6.826   1.656   0.836
14362TIP3   OH243030   7.019   2.167   1.169
14362TIP3    H143031   6.965   2.199   1.097
14362TIP3    H243032   7.096   2.130   1.126
14363TIP3   OH243033   7.111   1.837   0.859
14363TIP3    H143034   7.017   1.819   0.859
14363TIP3    H243035   7.118   1.930   0.881
14364TIP3   OH243036   7.188   2.088   0.958
14364TIP3    H143037   7.283   2.093   0.969
14364TIP3    H243038   7.166   2.163   0.903
14365TIP3   OH243039   7.619   2.182   0.791
14365TIP3    H143040   7.562   2.133   0.732
14365TIP3    H243041   7.622   2.270   0.754
14366TIP3   OH243042   7.075   2.723   0.579
14366TIP3    H143043   7.128   2.677   0.644
14366TIP3    H243044   6.984   2.702   0.602
14367TIP3   OH243045   7.482   3.235   0.378
14367TIP3    H143046   7.464   3.284   0.298
14367TIP3    H243047   7.395   3.222   0.418
14368TIP3   OH243048   7.220   2.583   0.767
14368TIP3    H143049   7.225   2.544   0.854
14368TIP3    H243050   7.305   2.625   0.755
14369TIP3   OH243051   7.172   1.781   1.130
14369TIP3    H143052   7.151   1.805   1.040
14369TIP3    H243053   7.213   1.860   1.166
14370TIP3   OH243054   6.861   1.963   1.259
14370TIP3    H143055   6.921   2.025   1.220
14370TIP3    H243056   6.855   1.989   1.351
14371TIP3   OH243057   7.012   1.682   1.330
14371TIP3    H143058   7.005   1.750   1.398
14371TIP3    H243059   7.061   1.724   1.259
14372TIP3   OH243060   7.050   2.946   0.402
14372TIP3    H143061   7.084   2.888   0.469
14372TIP3    H243062   7.107   2.933   0.326
14373TIP3   OH243063   6.785   2.628   0.556
14373TIP3    H143064   6.805   2.635   0.649
14373TIP3    H243065   6.781   2.534   0.539
14374TIP3   OH243066   6.610   2.160   0.853
14374TIP3    H143067   6.573   2.148   0.765
14374TIP3    H243068   6.703   2.142   0.843
14375TIP3   OH243069   7.388   2.451   0.461
14375TIP3    H143070   7.370   2.403   0.380
14375TIP3    H243071   7.357   2.540   0.444
14376TIP3   OH243072   7.533   2.638   0.793
14376TIP3    H143073   7.598   2.696   0.753
14376TIP3    H243074   7.581   2.592   0.861
14377TIP3   OH243075   7.647   2.495   0.992
14377TIP3    H143076   7.596   2.455   1.063
14377TIP3    H243077   7.725   2.531   1.036
14378TIP3   OH243078   7.587   2.413   0.642
14378TIP3    H143079   7.521   2.409   0.573
14378TIP3    H243080   7.561   2.487   0.696
14379TIP3   OH243081   7.458   2.085   0.598
14379TIP3    H143082   7.417   2.124   0.521
14379TIP3    H243083   7.438   1.992   0.592
14380TIP3   OH243084   7.480   2.336   1.166
14380TIP3    H143085   7.489   2.247   1.133
14380TIP3    H243086   7.427   2.328   1.245
14381TIP3   OH243087   7.403   1.820   0.585
14381TIP3    H143088   7.474   1.786   0.639
14381TIP3    H243089   7.330   1.761   0.602
14382TIP3   OH243090   7.470   2.090   1.032
14382TIP3    H143091   7.497   2.000   1.047
14382TIP3    H243092   7.523   2.119   0.957
14383TIP3   OH243093   7.558   1.836   1.064
14383TIP3    H143094   7.615   1.821   1.139
14383TIP3    H243095   7.498   1.761   1.064
14384TIP3   OH243096   7.651   1.760   0.712
14384TIP3    H143097   7.687   1.692   0.655
14384TIP3    H243098   7.715   1.831   0.706
14385TIP3   OH243099   7.656   1.689   1.479
14385TIP3    H143100   7.698   1.732   1.404
14385TIP3    H243101   7.564   1.685   1.456
14386TIP3   OH243102   7.746   1.805   1.255
14386TIP3    H143103   7.815   1.749   1.220
14386TIP3    H243104   7.780   1.894   1.245
14387TIP3   OH243105   7.395   1.660   1.449
14387TIP3    H143106   7.332   1.661   1.377
14387TIP3    H243107   7.371   1.583   1.501
14388TIP3   OH243108   7.385   1.618   1.069
14388TIP3    H143109   7.302   1.664   1.082
14388TIP3    H243110   7.371   1.532   1.108
14389TIP3   OH243111   6.823   1.726   1.131
14389TIP3    H143112   6.863   1.676   1.203
14389TIP3    H243113   6.814   1.815   1.166
14390TIP3   OH243114   0.352   2.781   0.693
14390TIP3    H143115   0.325   2.871   0.674
14390TIP3    H243116   0.280   2.727   0.661
14391TIP3   OH243117   0.367   2.758   1.068
14391TIP3    H143118   0.388   2.745   1.160
14391TIP3    H243119   0.321   2.678   1.042
14392TIP3   OH243120   0.602   3.078   0.758
14392TIP3    H143121   0.580   3.013   0.825
14392TIP3    H243122   0.635   3.153   0.808
14393TIP3   OH243123   7.832   2.272   0.948
14393TIP3    H143124   7.802   2.361   0.967
14393TIP3    H243125   7.757   2.231   0.904
14394TIP3   OH243126   7.893   2.564   1.090
14394TIP3    H143127   7.944   2.509   1.149
14394TIP3    H243128   7.945   2.645   1.081
14395TIP3   OH243129   0.254   3.520   0.784
14395TIP3    H143130   0.296   3.465   0.717
14395TIP3    H243131   0.281   3.479   0.867
14396TIP3   OH243132   0.190   2.963   1.104
14396TIP3    H143133   0.232   2.890   1.059
14396TIP3    H243134   0.262   3.015   1.139
14397TIP3   OH243135   1.166   2.324   1.124
14397TIP3    H143136   1.195   2.404   1.168
14397TIP3    H243137   1.190   2.337   1.033
14398TIP3   OH243138   0.561   2.506   1.159
14398TIP3    H143139   0.608   2.425   1.180
14398TIP3    H243140   0.530   2.493   1.069
14399TIP3   OH243141   8.404   2.162   1.118
14399TIP3    H143142   8.387   2.235   1.059
14399TIP3    H243143   8.359   2.087   1.077
14400TIP3   OH243144   0.601   2.259   0.743
14400TIP3    H143145   0.668   2.244   0.809
14400TIP3    H243146   0.650   2.292   0.667
14401TIP3   OH243147   8.055   2.381   1.226
14401TIP3    H143148   8.133   2.348   1.270
14401TIP3    H243149   8.052   2.333   1.144
14402TIP3   OH243150   8.477   2.552   1.033
14402TIP3    H143151   8.570   2.534   1.038
14402TIP3    H243152   8.438   2.473   0.995
14403TIP3   OH243153   1.239   2.531   1.299
14403TIP3    H143154   1.156   2.576   1.281
14403TIP3    H243155   1.272   2.572   1.378
14404TIP3   OH243156   8.412   2.141   1.550
14404TIP3    H143157   8.346   2.180   1.491
14404TIP3    H243158   8.368   2.135   1.634
14405TIP3   OH243159   0.244   3.000   0.561
14405TIP3    H143160   0.204   2.981   0.476
14405TIP3    H243161   0.202   3.081   0.590
14406TIP3   OH243162   0.804   2.265   0.922
14406TIP3    H143163   0.801   2.210   1.001
14406TIP3    H243164   0.856   2.341   0.947
14407TIP3   OH243165   8.276   2.257   1.339
14407TIP3    H143166   8.335   2.329   1.362
14407TIP3    H243167   8.318   2.214   1.264
14408TIP3   OH243168   7.723   2.804   0.681
14408TIP3    H143169   7.694   2.829   0.593
14408TIP3    H243170   7.773   2.879   0.712
14409TIP3   OH243171   0.680   3.313   0.907
14409TIP3    H143172   0.596   3.296   0.949
14409TIP3    H243173   0.671   3.399   0.867
14410TIP3   OH243174   0.957   2.222   1.287
14410TIP3    H143175   0.872   2.249   1.253
14410TIP3    H243176   1.020   2.254   1.223
14411TIP3   OH243177   0.254   1.859   1.273
14411TIP3    H143178   0.242   1.765   1.289
14411TIP3    H243179   0.179   1.900   1.316
14412TIP3   OH243180   0.377   3.368   0.592
14412TIP3    H143181   0.419   3.284   0.576
14412TIP3    H243182   0.436   3.433   0.555
14413TIP3   OH243183   0.515   3.149   0.508
14413TIP3    H143184   0.473   3.072   0.469
14413TIP3    H243185   0.552   3.117   0.590
14414TIP3   OH243186   0.889   3.241   1.224
14414TIP3    H143187   0.882   3.150   1.195
14414TIP3    H243188   0.907   3.291   1.144
14415TIP3   OH243189   0.185   2.631   0.528
14415TIP3    H143190   0.106   2.682   0.510
14415TIP3    H243191   0.231   2.626   0.444
14416TIP3   OH243192   0.145   2.417   0.241
14416TIP3    H143193   0.208   2.470   0.289
14416TIP3    H243194   0.199   2.353   0.193
14417TIP3   OH243195   1.094   2.875   1.113
14417TIP3    H143196   1.010   2.919   1.124
14417TIP3    H243197   1.121   2.895   1.024
14418TIP3   OH243198   0.533   2.714   0.500
14418TIP3    H143199   0.477   2.737   0.575
14418TIP3    H243200   0.617   2.689   0.540
14419TIP3   OH243201   0.760   2.724   1.394
14419TIP3    H143202   0.776   2.799   1.452
14419TIP3    H243203   0.683   2.749   1.343
14420TIP3   OH243204   8.270   2.701   0.913
14420TIP3    H143205   8.224   2.649   0.847
14420TIP3    H243206   8.342   2.645   0.942
14421TIP3   OH243207   8.446   3.081   1.095
14421TIP3    H143208   8.389   3.026   1.041
14421TIP3    H243209   8.532   3.041   1.086
14422TIP3   OH243210   8.421   2.685   1.262
14422TIP3    H143211   8.438   2.646   1.177
14422TIP3    H243212   8.503   2.728   1.286
14423TIP3   OH243213   0.438   3.285   1.024
14423TIP3    H143214   0.443   3.344   1.099
14423TIP3    H243215   0.422   3.199   1.063
14424TIP3   OH243216   0.372   2.574   0.324
14424TIP3    H143217   0.429   2.631   0.375
14424TIP3    H243218   0.396   2.591   0.233
14425TIP3   OH243219   0.121   3.242   0.598
14425TIP3    H143220   0.197   3.298   0.615
14425TIP3    H243221   0.054   3.302   0.565
14426TIP3   OH243222   0.887   1.812   0.375
14426TIP3    H143223   0.807   1.831   0.424
14426TIP3    H243224   0.903   1.891   0.324
14427TIP3   OH243225   8.133   2.551   0.717
14427TIP3    H143226   8.068   2.599   0.665
14427TIP3    H243227   8.092   2.466   0.733
14428TIP3   OH243228   3.524   7.184   6.864
14428TIP3    H143229   3.530   7.279   6.848
14428TIP3    H243230   3.613   7.152   6.851
14429TIP3   OH243231   8.508   3.502   0.388
14429TIP3    H143232   8.464   3.466   0.311
14429TIP3    H243233   8.450   3.571   0.419
14430TIP3   OH243234   0.200   3.395   0.043
14430TIP3    H143235   0.255   3.327   0.005
14430TIP3    H243236   0.234   3.407   0.132
14431TIP3   OH243237   0.258   3.439   0.312
14431TIP3    H143238   0.171   3.456   0.346
14431TIP3    H243239   0.305   3.396   0.384
14432TIP3   OH243240   1.040   2.709   1.580
14432TIP3    H143241   0.953   2.739   1.555
14432TIP3    H243242   1.040   2.615   1.563
14433TIP3   OH243243   8.515   1.939   1.393
14433TIP3    H143244   8.428   1.911   1.363
14433TIP3    H243245   8.499   2.020   1.440
14434TIP3   OH243246   0.552   2.067   1.589
14434TIP3    H143247   0.625   2.028   1.638
14434TIP3    H243248   0.474   2.037   1.635
14435TIP3   OH243249   0.781   2.481   1.522
14435TIP3    H143250   0.740   2.498   1.607
14435TIP3    H243251   0.769   2.562   1.473
14436TIP3   OH243252   0.451   2.615   0.069
14436TIP3    H143253   0.413   2.592  -0.016
14436TIP3    H243254   0.534   2.657   0.047
14437TIP3   OH243255   0.158   1.988   0.375
14437TIP3    H143256   0.125   1.987   0.465
14437TIP3    H243257   0.122   1.909   0.336
14438TIP3   OH243258   8.445   2.459   1.416
14438TIP3    H143259   8.451   2.491   1.506
14438TIP3    H243260   8.433   2.538   1.363
14439TIP3   OH243261   8.330   2.342   0.932
14439TIP3    H143262   8.238   2.321   0.952
14439TIP3    H243263   8.345   2.305   0.845
14440TIP3   OH243264   0.323   2.431   0.663
14440TIP3    H143265   0.272   2.500   0.621
14440TIP3    H243266   0.378   2.396   0.593
14441TIP3   OH243267   0.475   2.455   0.898
14441TIP3    H143268   0.415   2.487   0.831
14441TIP3    H243269   0.515   2.377   0.859
14442TIP3   OH243270   8.316   1.967   0.340
14442TIP3    H143271   8.307   1.964   0.435
14442TIP3    H243272   8.240   2.019   0.311
14443TIP3   OH243273   7.872   2.033   1.203
14443TIP3    H143274   7.950   2.053   1.254
14443TIP3    H243275   7.905   2.001   1.119
14444TIP3   OH243276   7.826   1.991   0.728
14444TIP3    H143277   7.871   2.022   0.650
14444TIP3    H243278   7.765   2.061   0.750
14445TIP3   OH243279   0.471   2.699   1.324
14445TIP3    H143280   0.513   2.639   1.261
14445TIP3    H243281   0.445   2.643   1.397
14446TIP3   OH243282   0.164   2.168   0.996
14446TIP3    H143283   0.084   2.164   1.049
14446TIP3    H243284   0.235   2.158   1.060
14447TIP3   OH243285   8.092   2.222   1.005
14447TIP3    H143286   8.000   2.229   0.977
14447TIP3    H243287   8.118   2.134   0.978
14448TIP3   OH243288   8.358   2.219   0.692
14448TIP3    H143289   8.450   2.233   0.670
14448TIP3    H243290   8.311   2.240   0.611
14449TIP3   OH243291   0.647   2.246   1.206
14449TIP3    H143292   0.608   2.259   1.293
14449TIP3    H243293   0.589   2.184   1.162
14450TIP3   OH243294   8.209   2.252   0.466
14450TIP3    H143295   8.138   2.207   0.420
14450TIP3    H243296   8.261   2.291   0.396
14451TIP3   OH243297   0.245   2.493   1.091
14451TIP3    H143298   0.315   2.457   1.038
14451TIP3    H243299   0.251   2.447   1.175
14452TIP3   OH243300   8.261   1.979   0.973
14452TIP3    H143301   8.227   1.904   1.021
14452TIP3    H243302   8.306   1.941   0.897
14453TIP3   OH243303   0.221   2.391   1.374
14453TIP3    H143304   0.132   2.426   1.385
14453TIP3    H243305   0.276   2.448   1.427
14454TIP3   OH243306   8.454   2.778   0.475
14454TIP3    H143307   8.382   2.715   0.462
14454TIP3    H243308   8.446   2.805   0.566
14455TIP3   OH243309   0.855   3.004   1.095
14455TIP3    H143310   0.876   3.056   1.017
14455TIP3    H243311   0.770   2.965   1.076
14456TIP3   OH243312   0.411   2.092   0.348
14456TIP3    H143313   0.318   2.073   0.353
14456TIP3    H243314   0.418   2.185   0.369
14457TIP3   OH243315   0.481   2.346   0.447
14457TIP3    H143316   0.576   2.350   0.460
14457TIP3    H243317   0.460   2.423   0.394
14458TIP3   OH243318   8.139   2.744   1.147
14458TIP3    H143319   8.172   2.760   1.059
14458TIP3    H243320   8.205   2.687   1.187
14459TIP3   OH243321   0.098   2.933   0.302
14459TIP3    H143322   0.053   3.017   0.304
14459TIP3    H243323   0.047   2.876   0.359
14460TIP3   OH243324   0.918   2.438   0.276
14460TIP3    H143325   0.859   2.390   0.218
14460TIP3    H243326   0.919   2.527   0.241
14461TIP3   OH243327   1.142   3.242   1.333
14461TIP3    H143328   1.052   3.254   1.304
14461TIP3    H243329   1.191   3.227   1.253
14462TIP3   OH243330   0.629   3.252   0.190
14462TIP3    H143331   0.597   3.186   0.251
14462TIP3    H243332   0.638   3.206   0.107
14463TIP3   OH243333   0.616   2.877   1.021
14463TIP3    H143334   0.524   2.855   1.030
14463TIP3    H243335   0.655   2.802   0.976
14464TIP3   OH243336   8.241   3.056   0.729
14464TIP3    H143337   8.279   3.132   0.772
14464TIP3    H243338   8.151   3.053   0.760
14465TIP3   OH243339   7.815   2.414   0.486
14465TIP3    H143340   7.861   2.496   0.505
14465TIP3    H243341   7.738   2.415   0.543
14466TIP3   OH243342   8.408   2.847   0.728
14466TIP3    H143343   8.358   2.928   0.721
14466TIP3    H243344   8.367   2.801   0.802
14467TIP3   OH243345   0.429   3.068   1.189
14467TIP3    H143346   0.434   3.124   1.267
14467TIP3    H243347   0.510   3.017   1.191
14468TIP3   OH243348   0.382   2.983   0.091
14468TIP3    H143349   0.436   2.958   0.166
14468TIP3    H243350   0.294   2.954   0.114
14469TIP3   OH243351   3.553   7.460   6.844
14469TIP3    H143352   3.590   7.529   6.789
14469TIP3    H243353   3.475   7.498   6.882
14470TIP3   OH243354   0.545   2.912   0.304
14470TIP3    H143355   0.530   2.847   0.374
14470TIP3    H243356   0.639   2.910   0.290
14471TIP3   OH243357   8.243   2.960   0.091
14471TIP3    H143358   8.256   2.870   0.062
14471TIP3    H243359   8.226   2.952   0.185
14472TIP3   OH243360   8.189   2.971   0.364
14472TIP3    H143361   8.255   2.941   0.425
14472TIP3    H243362   8.191   3.067   0.372
14473TIP3   OH243363   7.926   2.657   0.565
14473TIP3    H143364   7.860   2.697   0.622
14473TIP3    H243365   7.942   2.723   0.498
14474TIP3   OH243366   0.568   2.312   1.469
14474TIP3    H143367   0.657   2.342   1.485
14474TIP3    H243368   0.562   2.227   1.513
14475TIP3   OH243369   0.457   2.045   0.626
14475TIP3    H143370   0.444   2.062   0.533
14475TIP3    H243371   0.496   2.125   0.660
14476TIP3   OH243372   8.455   3.162   0.308
14476TIP3    H143373   8.370   3.184   0.347
14476TIP3    H243374   8.470   3.231   0.243
14477TIP3   OH243375   0.144   2.229   0.726
14477TIP3    H143376   0.206   2.299   0.706
14477TIP3    H243377   0.150   2.218   0.821
14478TIP3   OH243378   0.401   2.538   1.531
14478TIP3    H143379   0.438   2.597   1.597
14478TIP3    H243380   0.462   2.465   1.528
14479TIP3   OH243381   0.288   1.949   0.823
14479TIP3    H143382   0.279   2.025   0.881
14479TIP3    H243383   0.348   1.979   0.755
14480TIP3   OH243384   8.202   3.247   0.379
14480TIP3    H143385   8.173   3.306   0.310
14480TIP3    H243386   8.201   3.300   0.459
14481TIP3   OH243387   8.303   1.955   0.617
14481TIP3    H143388   8.297   2.044   0.651
14481TIP3    H243389   8.396   1.933   0.621
14482TIP3   OH243390   1.049   2.437   1.515
14482TIP3    H143391   0.953   2.433   1.517
14482TIP3    H243392   1.073   2.403   1.429
14483TIP3   OH243393   0.705   2.638   0.902
14483TIP3    H143394   0.630   2.580   0.911
14483TIP3    H243395   0.776   2.592   0.947
14484TIP3   OH243396   7.930   2.864   0.369
14484TIP3    H143397   7.999   2.929   0.379
14484TIP3    H243398   7.964   2.804   0.302
14485TIP3   OH243399   7.858   2.142   0.506
14485TIP3    H143400   7.863   2.238   0.503
14485TIP3    H243401   7.784   2.121   0.449
14486TIP3   OH243402   0.684   3.576   0.830
14486TIP3    H143403   0.626   3.633   0.781
14486TIP3    H243404   0.771   3.616   0.820
14487TIP3   OH243405   8.243   1.873   1.371
14487TIP3    H143406   8.218   1.842   1.283
14487TIP3    H243407   8.236   1.795   1.426
14488TIP3   OH243408   8.409   3.159  -0.001
14488TIP3    H143409   8.353   3.090   0.037
14488TIP3    H243410   8.485   3.111  -0.035
14489TIP3   OH243411   3.179   7.207   6.854
14489TIP3    H143412   3.216   7.142   6.913
14489TIP3    H243413   3.234   7.202   6.776
14490TIP3   OH243414   8.058   2.677   0.225
14490TIP3    H143415   8.112   2.647   0.298
14490TIP3    H243416   8.119   2.684   0.151
14491TIP3   OH243417   0.071   2.878   0.034
14491TIP3    H143418   0.072   2.892   0.128
14491TIP3    H243419   0.071   2.783   0.024
14492TIP3   OH243420   0.677   3.090   1.366
14492TIP3    H143421   0.752   3.141   1.336
14492TIP3    H243422   0.612   3.155   1.392
14493TIP3   OH243423   8.258   2.584   0.442
14493TIP3    H143424   8.233   2.546   0.526
14493TIP3    H243425   8.297   2.512   0.393
14494TIP3   OH243426   8.366   2.381   0.281
14494TIP3    H143427   8.339   2.388   0.190
14494TIP3    H243428   8.462   2.383   0.277
14495TIP3   OH243429   3.514   6.716   6.889
14495TIP3    H143430   3.498   6.669   6.807
14495TIP3    H243431   3.483   6.805   6.872
14496TIP3   OH243432   0.097   2.432   1.738
14496TIP3    H143433   0.122   2.340   1.736
14496TIP3    H243434   0.177   2.479   1.715
14497TIP3   OH243435   0.175   2.204   1.585
14497TIP3    H143436   0.203   2.251   1.507
14497TIP3    H243437   0.081   2.188   1.571
14498TIP3   OH243438   0.164   2.764   1.419
14498TIP3    H143439   0.255   2.735   1.420
14498TIP3    H243440   0.169   2.859   1.427
14499TIP3   OH243441   0.811   2.931   1.554
14499TIP3    H143442   0.762   2.999   1.509
14499TIP3    H243443   0.902   2.959   1.550
14500TIP3   OH243444   0.306   1.977   1.672
14500TIP3    H143445   0.262   2.059   1.655
14500TIP3    H243446   0.237   1.911   1.672
14501TIP3   OH243447   0.662   2.441   1.781
14501TIP3    H143448   0.581   2.412   1.822
14501TIP3    H243449   0.723   2.369   1.793
14502TIP3   OH243450   8.179   3.454   0.196
14502TIP3    H143451   8.270   3.435   0.173
14502TIP3    H243452   8.142   3.494   0.118
14503TIP3   OH243453   7.665   2.814   0.409
14503TIP3    H143454   7.756   2.837   0.388
14503TIP3    H243455   7.651   2.730   0.365
14504TIP3   OH243456   0.916   3.723   0.812
14504TIP3    H143457   0.977   3.760   0.875
14504TIP3    H243458   0.968   3.713   0.732
14505TIP3   OH243459   0.823   2.895   0.283
14505TIP3    H143460   0.886   2.959   0.250
14505TIP3    H243461   0.865   2.857   0.360
14506TIP3   OH243462   0.949   2.763   0.488
14506TIP3    H143463   0.883   2.722   0.544
14506TIP3    H243464   1.014   2.797   0.550
14507TIP3   OH243465   1.003   3.155   0.911
14507TIP3    H143466   1.053   3.086   0.868
14507TIP3    H243467   0.988   3.220   0.843
14508TIP3   OH243468   0.897   3.441   1.024
14508TIP3    H143469   0.865   3.531   1.022
14508TIP3    H243470   0.832   3.391   0.975
14509TIP3   OH243471   0.883   2.673   0.130
14509TIP3    H143472   0.815   2.671   0.063
14509TIP3    H243473   0.858   2.746   0.188
14510TIP3   OH243474   0.754   2.342   0.083
14510TIP3    H143475   0.712   2.379   0.006
14510TIP3    H243476   0.735   2.249   0.080
14511TIP3   OH243477   0.761   2.620   0.632
14511TIP3    H143478   0.769   2.526   0.622
14511TIP3    H243479   0.746   2.633   0.726
14512TIP3   OH243480   1.050   3.005   1.441
14512TIP3    H143481   1.126   2.962   1.482
14512TIP3    H243482   1.083   3.092   1.416
14513TIP3   OH243483   1.263   2.855   1.536
14513TIP3    H143484   1.181   2.816   1.567
14513TIP3    H243485   1.323   2.782   1.528
14514TIP3   OH243486   0.700   2.077   0.070
14514TIP3    H143487   0.772   2.044   0.124
14514TIP3    H243488   0.627   2.019   0.089
14515TIP3   OH243489   0.762   2.336   0.523
14515TIP3    H143490   0.798   2.249   0.540
14515TIP3    H243491   0.816   2.371   0.452
14516TIP3   OH243492   0.921   2.509   1.022
14516TIP3    H143493   1.002   2.530   0.976
14516TIP3    H243494   0.933   2.544   1.110
14517TIP3   OH243495   0.993   2.653   1.249
14517TIP3    H143496   0.915   2.681   1.297
14517TIP3    H243497   1.027   2.733   1.210
14518TIP3   OH243498   0.865   2.085   0.565
14518TIP3    H143499   0.915   2.071   0.646
14518TIP3    H243500   0.805   2.011   0.561
14519TIP3   OH243501   8.064   2.084   1.401
14519TIP3    H143502   8.113   2.001   1.402
14519TIP3    H243503   8.129   2.150   1.378
14520TIP3   OH243504   7.885   2.371   1.446
14520TIP3    H143505   7.864   2.288   1.403
14520TIP3    H243506   7.953   2.410   1.390
14521TIP3   OH243507   1.294   2.385   1.624
14521TIP3    H143508   1.204   2.413   1.604
14521TIP3    H243509   1.304   2.302   1.578
14522TIP3   OH243510   0.946   2.017   0.198
14522TIP3    H143511   0.983   1.948   0.143
14522TIP3    H243512   1.011   2.087   0.194
14523TIP3   OH243513   7.850   1.859   0.962
14523TIP3    H143514   7.757   1.845   0.980
14523TIP3    H243515   7.852   1.912   0.882
14524TIP3   OH243516   0.529   3.550   0.463
14524TIP3    H143517   0.566   3.535   0.376
14524TIP3    H243518   0.582   3.620   0.501
14525TIP3   OH243519   1.209   2.141   1.484
14525TIP3    H143520   1.120   2.135   1.449
14525TIP3    H243521   1.244   2.053   1.476
14526TIP3   OH243522   0.413   2.059   1.114
14526TIP3    H143523   0.373   1.988   1.163
14526TIP3    H243524   0.487   2.018   1.068
14527TIP3   OH243525   0.933   1.947   1.017
14527TIP3    H143526   0.971   1.993   0.942
14527TIP3    H243527   0.838   1.961   1.008
14528TIP3   OH243528   1.033   2.041   0.780
14528TIP3    H143529   1.102   1.986   0.743
14528TIP3    H243530   1.063   2.131   0.766
14529TIP3   OH243531   8.161   1.768   1.128
14529TIP3    H143532   8.070   1.739   1.128
14529TIP3    H243533   8.212   1.687   1.123
14530TIP3   OH243534   7.956   1.643   0.779
14530TIP3    H143535   7.984   1.694   0.703
14530TIP3    H243536   7.927   1.708   0.843
14531TIP3   OH243537   0.110   1.803   1.011
14531TIP3    H143538   0.163   1.846   0.943
14531TIP3    H243539   0.143   1.839   1.093
14532TIP3   OH243540   0.648   1.948   0.992
14532TIP3    H143541   0.654   1.910   0.904
14532TIP3    H243542   0.639   1.872   1.050
14533TIP3   OH243543   0.682   1.873   0.557
14533TIP3    H143544   0.597   1.917   0.569
14533TIP3    H243545   0.671   1.788   0.599
14534TIP3   OH243546   8.072   1.796   0.539
14534TIP3    H143547   8.116   1.734   0.481
14534TIP3    H243548   8.143   1.850   0.574
14535TIP3   OH243549   0.079   1.978   0.640
14535TIP3    H143550   0.137   1.927   0.695
14535TIP3    H243551   0.098   2.070   0.661
14536TIP3   OH243552   8.441   3.393   0.133
14536TIP3    H143553   8.527   3.419   0.101
14536TIP3    H243554   8.415   3.320   0.076
14537TIP3   OH243555   0.662   3.518   0.226
14537TIP3    H143556   0.656   3.423   0.221
14537TIP3    H243557   0.614   3.549   0.149
14538TIP3   OH243558   7.750   3.227   0.183
14538TIP3    H143559   7.742   3.247   0.276
14538TIP3    H243560   7.837   3.189   0.175
14539TIP3   OH243561   2.146   3.038   0.183
14539TIP3    H143562   2.118   3.127   0.161
14539TIP3    H243563   2.077   2.982   0.147
14540TIP3   OH243564   2.122   3.026   0.582
14540TIP3    H143565   2.170   2.988   0.655
14540TIP3    H243566   2.087   2.951   0.534
14541TIP3   OH243567   1.446   2.927   0.933
14541TIP3    H143568   1.472   2.855   0.991
14541TIP3    H243569   1.524   2.982   0.927
14542TIP3   OH243570   2.389   3.331   0.257
14542TIP3    H143571   2.372   3.251   0.306
14542TIP3    H243572   2.432   3.390   0.320
14543TIP3   OH243573   1.418   3.338   0.654
14543TIP3    H143574   1.406   3.244   0.647
14543TIP3    H243575   1.511   3.349   0.675
14544TIP3   OH243576   1.124   2.541   0.434
14544TIP3    H143577   1.079   2.624   0.453
14544TIP3    H243578   1.058   2.487   0.392
14545TIP3   OH243579   1.186   2.828   0.616
14545TIP3    H143580   1.232   2.751   0.649
14545TIP3    H243581   1.243   2.861   0.546
14546TIP3   OH243582   2.019   3.791   0.259
14546TIP3    H143583   2.058   3.722   0.207
14546TIP3    H243584   2.063   3.785   0.344
14547TIP3   OH243585   1.940   3.261   0.603
14547TIP3    H143586   1.971   3.175   0.573
14547TIP3    H243587   2.020   3.313   0.613
14548TIP3   OH243588   2.887   2.553   0.548
14548TIP3    H143589   2.955   2.580   0.610
14548TIP3    H243590   2.927   2.563   0.462
14549TIP3   OH243591   2.352   2.768   0.644
14549TIP3    H143592   2.400   2.689   0.669
14549TIP3    H243593   2.325   2.752   0.554
14550TIP3   OH243594   1.699   2.422   0.607
14550TIP3    H143595   1.683   2.495   0.547
14550TIP3    H243596   1.654   2.348   0.567
14551TIP3   OH243597   2.400   2.515   0.232
14551TIP3    H143598   2.466   2.501   0.300
14551TIP3    H243599   2.450   2.548   0.157
14552TIP3   OH243600   1.335   2.620   0.717
14552TIP3    H143601   1.415   2.604   0.766
14552TIP3    H243602   1.345   2.568   0.637
14553TIP3   OH243603   1.774   2.818   0.512
14553TIP3    H143604   1.866   2.795   0.525
14553TIP3    H243605   1.733   2.738   0.480
14554TIP3   OH243606   1.693   2.406   1.045
14554TIP3    H143607   1.637   2.442   0.976
14554TIP3    H243608   1.644   2.422   1.126
14555TIP3   OH243609   2.035   3.257   0.052
14555TIP3    H143610   1.999   3.238  -0.035
14555TIP3    H243611   1.993   3.339   0.078
14556TIP3   OH243612   1.802   3.181   0.834
14556TIP3    H143613   1.739   3.241   0.876
14556TIP3    H243614   1.839   3.232   0.762
14557TIP3   OH243615   2.603   2.519   0.411
14557TIP3    H143616   2.598   2.466   0.491
14557TIP3    H243617   2.671   2.583   0.430
14558TIP3   OH243618   1.569   2.520   0.826
14558TIP3    H143619   1.627   2.591   0.854
14558TIP3    H243620   1.615   2.478   0.753
14559TIP3   OH243621   1.611   3.362   0.918
14559TIP3    H143622   1.626   3.457   0.918
14559TIP3    H243623   1.543   3.348   0.983
14560TIP3   OH243624   1.021   3.068   0.171
14560TIP3    H143625   0.981   3.091   0.087
14560TIP3    H243626   1.055   3.150   0.206
14561TIP3   OH243627   2.725   2.458   0.756
14561TIP3    H143628   2.640   2.494   0.730
14561TIP3    H243629   2.785   2.491   0.690
14562TIP3   OH243630   2.044   2.118   0.760
14562TIP3    H143631   2.034   2.024   0.778
14562TIP3    H243632   1.971   2.159   0.805
14563TIP3   OH243633   2.163   3.623   0.095
14563TIP3    H143634   2.208   3.540   0.078
14563TIP3    H243635   2.213   3.688   0.046
14564TIP3   OH243636   2.305   3.411   0.004
14564TIP3    H143637   2.273   3.336  -0.045
14564TIP3    H243638   2.338   3.375   0.086
14565TIP3   OH243639   4.815   6.897   6.955
14565TIP3    H143640   4.736   6.946   6.934
14565TIP3    H243641   4.861   6.889   6.872
14566TIP3   OH243642   4.775   6.681   6.667
14566TIP3    H143643   4.839   6.733   6.716
14566TIP3    H243644   4.827   6.617   6.620
14567TIP3   OH243645   2.328   2.972  -0.012
14567TIP3    H143646   2.275   2.993   0.064
14567TIP3    H243647   2.412   2.944   0.024
14568TIP3   OH243648   1.562   2.964   0.404
14568TIP3    H143649   1.520   2.909   0.338
14568TIP3    H243650   1.637   2.912   0.434
14569TIP3   OH243651   1.698   3.397   0.548
14569TIP3    H143652   1.663   3.359   0.467
14569TIP3    H243653   1.779   3.350   0.564
14570TIP3   OH243654   1.695   2.938   0.756
14570TIP3    H143655   1.728   2.911   0.670
14570TIP3    H243656   1.739   3.021   0.774
14571TIP3   OH243657   5.000   6.839   6.752
14571TIP3    H143658   5.058   6.895   6.804
14571TIP3    H243659   5.025   6.857   6.661
14572TIP3   OH243660   1.586   3.048   1.185
14572TIP3    H143661   1.586   3.138   1.218
14572TIP3    H243662   1.496   3.018   1.195
14573TIP3   OH243663   1.910   3.503   0.087
14573TIP3    H143664   1.989   3.555   0.104
14573TIP3    H243665   1.850   3.564   0.044
14574TIP3   OH243666   5.517   6.076   6.802
14574TIP3    H143667   5.437   6.094   6.851
14574TIP3    H243668   5.532   6.155   6.750
14575TIP3   OH243669   1.425   2.811   0.209
14575TIP3    H143670   1.359   2.853   0.154
14575TIP3    H243671   1.394   2.721   0.218
14576TIP3   OH243672   5.321   7.442   6.349
14576TIP3    H143673   5.324   7.536   6.336
14576TIP3    H243674   5.410   7.412   6.329
14577TIP3   OH243675   1.231   3.183   1.081
14577TIP3    H143676   1.158   3.164   1.023
14577TIP3    H243677   1.265   3.096   1.104
14578TIP3   OH243678   1.058   3.392   0.740
14578TIP3    H143679   1.152   3.376   0.736
14578TIP3    H243680   1.045   3.440   0.822
14579TIP3   OH243681   4.623   7.755   6.832
14579TIP3    H143682   4.581   7.738   6.748
14579TIP3    H243683   4.596   7.844   6.855
14580TIP3   OH243684   1.230   3.598   0.277
14580TIP3    H143685   1.275   3.592   0.361
14580TIP3    H243686   1.184   3.515   0.268
14581TIP3   OH243687   4.829   7.659   6.466
14581TIP3    H143688   4.886   7.591   6.431
14581TIP3    H243689   4.857   7.669   6.557
14582TIP3   OH243690   4.872   7.704   6.735
14582TIP3    H143691   4.790   7.711   6.784
14582TIP3    H243692   4.937   7.678   6.800
14583TIP3   OH243693   1.413   3.383   1.104
14583TIP3    H143694   1.454   3.367   1.189
14583TIP3    H243695   1.345   3.316   1.096
14584TIP3   OH243696   1.809   2.200   0.891
14584TIP3    H143697   1.725   2.167   0.860
14584TIP3    H243698   1.787   2.280   0.939
14585TIP3   OH243699   2.341   2.313   1.087
14585TIP3    H143700   2.407   2.282   1.148
14585TIP3    H243701   2.258   2.296   1.131
14586TIP3   OH243702   5.082   6.883   6.497
14586TIP3    H143703   5.044   6.856   6.414
14586TIP3    H243704   5.164   6.926   6.473
14587TIP3   OH243705   4.786   6.253   6.802
14587TIP3    H143706   4.755   6.252   6.892
14587TIP3    H243707   4.752   6.172   6.763
14588TIP3   OH243708   1.742   2.716   0.906
14588TIP3    H143709   1.700   2.737   0.990
14588TIP3    H243710   1.728   2.795   0.853
14589TIP3   OH243711   1.625   2.602   0.419
14589TIP3    H143712   1.535   2.576   0.441
14589TIP3    H243713   1.641   2.563   0.333
14590TIP3   OH243714   2.119   2.688   0.148
14590TIP3    H143715   2.069   2.758   0.106
14590TIP3    H243716   2.174   2.652   0.079
14591TIP3   OH243717   2.268   2.709   0.383
14591TIP3    H143718   2.208   2.735   0.314
14591TIP3    H243719   2.312   2.632   0.349
14592TIP3   OH243720   1.558   2.742   1.116
14592TIP3    H143721   1.601   2.803   1.175
14592TIP3    H243722   1.549   2.661   1.167
14593TIP3   OH243723   4.444   6.231   6.766
14593TIP3    H143724   4.437   6.227   6.862
14593TIP3    H243725   4.368   6.282   6.739
14594TIP3   OH243726   1.157   2.263   0.699
14594TIP3    H143727   1.231   2.296   0.750
14594TIP3    H243728   1.196   2.234   0.616
14595TIP3   OH243729   1.121   2.248   0.214
14595TIP3    H143730   1.169   2.279   0.137
14595TIP3    H243731   1.060   2.318   0.235
14596TIP3   OH243732   2.277   2.960   0.826
14596TIP3    H143733   2.319   2.900   0.763
14596TIP3    H243734   2.246   2.903   0.896
14597TIP3   OH243735   1.959   2.426   0.483
14597TIP3    H143736   1.880   2.423   0.537
14597TIP3    H243737   2.031   2.413   0.545
14598TIP3   OH243738   1.388   2.479   0.488
14598TIP3    H143739   1.296   2.486   0.460
14598TIP3    H243740   1.413   2.389   0.466
14599TIP3   OH243741   1.654   2.475   0.179
14599TIP3    H143742   1.747   2.488   0.160
14599TIP3    H243743   1.609   2.496   0.097
14600TIP3   OH243744   2.439   2.506   0.689
14600TIP3    H143745   2.407   2.518   0.778
14600TIP3    H243746   2.378   2.443   0.650
14601TIP3   OH243747   4.337   6.520   6.893
14601TIP3    H143748   4.267   6.472   6.848
14601TIP3    H243749   4.390   6.556   6.822
14602TIP3   OH243750   1.552   3.290   1.335
14602TIP3    H143751   1.641   3.309   1.366
14602TIP3    H243752   1.516   3.230   1.401
14603TIP3   OH243753   2.037   2.749   0.579
14603TIP3    H143754   2.109   2.713   0.529
14603TIP3    H243755   2.040   2.703   0.663
14604TIP3   OH243756   1.556   2.237   0.462
14604TIP3    H143757   1.521   2.163   0.511
14604TIP3    H243758   1.605   2.197   0.390
14605TIP3   OH243759   2.008   2.649   0.862
14605TIP3    H143760   1.920   2.682   0.879
14605TIP3    H243761   2.065   2.704   0.916
14606TIP3   OH243762   4.579   7.047   6.904
14606TIP3    H143763   4.512   6.980   6.890
14606TIP3    H243764   4.563   7.080   6.992
14607TIP3   OH243765   5.040   6.356   6.774
14607TIP3    H143766   4.946   6.337   6.780
14607TIP3    H243767   5.047   6.449   6.796
14608TIP3   OH243768   5.110   6.609   6.875
14608TIP3    H143769   5.205   6.610   6.889
14608TIP3    H243770   5.094   6.686   6.820
14609TIP3   OH243771   1.445   3.064   0.636
14609TIP3    H143772   1.482   3.035   0.553
14609TIP3    H243773   1.484   3.007   0.702
14610TIP3   OH243774   4.728   7.196   6.728
14610TIP3    H143775   4.682   7.280   6.730
14610TIP3    H243776   4.676   7.140   6.786
14611TIP3   OH243777   1.325   2.973   1.250
14611TIP3    H143778   1.323   2.968   1.345
14611TIP3    H243779   1.249   2.922   1.221
14612TIP3   OH243780   5.545   6.699   6.704
14612TIP3    H143781   5.485   6.653   6.645
14612TIP3    H243782   5.550   6.788   6.668
14613TIP3   OH243783   5.253   7.527   6.612
14613TIP3    H143784   5.231   7.463   6.679
14613TIP3    H243785   5.265   7.476   6.532
14614TIP3   OH243786   2.356   3.158   0.491
14614TIP3    H143787   2.280   3.100   0.492
14614TIP3    H243788   2.431   3.100   0.475
14615TIP3   OH243789   1.545   3.370   0.272
14615TIP3    H143790   1.546   3.448   0.215
14615TIP3    H243791   1.453   3.343   0.273
14616TIP3   OH243792   3.943   6.677   6.914
14616TIP3    H143793   3.988   6.759   6.932
14616TIP3    H243794   3.867   6.678   6.971
14617TIP3   OH243795   1.674   3.131   0.208
14617TIP3    H143796   1.646   3.220   0.229
14617TIP3    H243797   1.643   3.078   0.281
14618TIP3   OH243798   1.459   3.609   0.117
14618TIP3    H143799   1.375   3.614   0.163
14618TIP3    H243800   1.492   3.699   0.118
14619TIP3   OH243801   2.209   3.309   0.672
14619TIP3    H143802   2.186   3.229   0.719
14619TIP3    H243803   2.263   3.279   0.599
14620TIP3   OH243804   5.013   7.246   6.519
14620TIP3    H143805   5.067   7.223   6.595
14620TIP3    H243806   4.926   7.214   6.542
14621TIP3   OH243807   5.350   7.720   6.332
14621TIP3    H143808   5.393   7.796   6.293
14621TIP3    H243809   5.267   7.755   6.367
14622TIP3   OH243810   1.534   2.484   1.262
14622TIP3    H143811   1.438   2.486   1.271
14622TIP3    H243812   1.563   2.424   1.330
14623TIP3   OH243813   5.174   7.178   6.734
14623TIP3    H143814   5.160   7.113   6.803
14623TIP3    H243815   5.269   7.176   6.719
14624TIP3   OH243816   1.283   3.584   0.920
14624TIP3    H143817   1.290   3.490   0.905
14624TIP3    H243818   1.346   3.602   0.990
14625TIP3   OH243819   4.373   7.223   6.518
14625TIP3    H143820   4.387   7.133   6.488
14625TIP3    H243821   4.352   7.214   6.611
14626TIP3   OH243822   4.318   7.231   6.791
14626TIP3    H143823   4.394   7.199   6.840
14626TIP3    H243824   4.323   7.326   6.797
14627TIP3   OH243825   1.218   2.915   0.052
14627TIP3    H143826   1.153   2.957   0.108
14627TIP3    H243827   1.235   2.980  -0.017
14628TIP3   OH243828   2.372   2.554   0.953
14628TIP3    H143829   2.458   2.577   0.989
14628TIP3    H243830   2.349   2.471   0.996
14629TIP3   OH243831   2.253   2.303   0.113
14629TIP3    H143832   2.242   2.321   0.020
14629TIP3    H243833   2.294   2.382   0.148
14630TIP3   OH243834   4.584   7.426   6.736
14630TIP3    H143835   4.500   7.450   6.774
14630TIP3    H243836   4.604   7.497   6.675
14631TIP3   OH243837   1.938   2.487   0.213
14631TIP3    H143838   2.002   2.556   0.194
14631TIP3    H243839   1.944   2.475   0.308
14632TIP3   OH243840   2.195   2.780   1.021
14632TIP3    H143841   2.187   2.785   1.116
14632TIP3    H243842   2.261   2.712   1.006
14633TIP3   OH243843   2.084   2.205   0.309
14633TIP3    H143844   2.082   2.277   0.372
14633TIP3    H243845   2.144   2.235   0.241
14634TIP3   OH243846   4.332   7.505   6.806
14634TIP3    H143847   4.303   7.572   6.744
14634TIP3    H243848   4.317   7.544   6.892
14635TIP3   OH243849   1.599   2.211   0.102
14635TIP3    H143850   1.594   2.299   0.140
14635TIP3    H243851   1.692   2.188   0.108
14636TIP3   OH243852   2.488   2.905   0.381
14636TIP3    H143853   2.420   2.840   0.394
14636TIP3    H243854   2.564   2.871   0.428
14637TIP3   OH243855   4.054   7.127   6.793
14637TIP3    H143856   4.123   7.192   6.806
14637TIP3    H243857   4.089   7.066   6.729
14638TIP3   OH243858   3.988   6.407   6.932
14638TIP3    H143859   3.992   6.502   6.929
14638TIP3    H243860   3.911   6.384   6.880
14639TIP3   OH243861   1.545   2.118   0.860
14639TIP3    H143862   1.517   2.086   0.775
14639TIP3    H243863   1.536   2.042   0.918
14640TIP3   OH243864   1.084   3.346   0.240
14640TIP3    H143865   1.018   3.368   0.305
14640TIP3    H243866   1.050   3.383   0.158
14641TIP3   OH243867   4.538   7.423   6.427
14641TIP3    H143868   4.482   7.355   6.465
14641TIP3    H243869   4.614   7.375   6.394
14642TIP3   OH243870   4.976   7.463   6.341
14642TIP3    H143871   5.013   7.400   6.403
14642TIP3    H243872   5.033   7.458   6.265
14643TIP3   OH243873   4.188   6.940   6.652
14643TIP3    H143874   4.241   6.909   6.725
14643TIP3    H243875   4.249   6.946   6.579
14644TIP3   OH243876   4.699   7.141   6.460
14644TIP3    H143877   4.701   7.155   6.554
14644TIP3    H243878   4.701   7.046   6.450
14645TIP3   OH243879   1.538   3.048   1.511
14645TIP3    H143880   1.590   2.978   1.473
14645TIP3    H243881   1.490   3.005   1.582
14646TIP3   OH243882   4.389   6.847   6.869
14646TIP3    H143883   4.364   6.807   6.952
14646TIP3    H243884   4.428   6.776   6.818
14647TIP3   OH243885   1.820   2.896   1.148
14647TIP3    H143886   1.750   2.961   1.155
14647TIP3    H243887   1.887   2.938   1.094
14648TIP3   OH243888   4.496   6.646   6.708
14648TIP3    H143889   4.469   6.651   6.616
14648TIP3    H243890   4.591   6.646   6.704
14649TIP3   OH243891   5.321   6.980   6.368
14649TIP3    H143892   5.300   6.927   6.292
14649TIP3    H243893   5.280   7.064   6.351
14650TIP3   OH243894   1.933   2.688   1.286
14650TIP3    H143895   1.941   2.612   1.229
14650TIP3    H243896   1.894   2.756   1.230
14651TIP3   OH243897   1.952   2.482   1.091
14651TIP3    H143898   1.982   2.521   1.009
14651TIP3    H243899   1.861   2.458   1.074
14652TIP3   OH243900   1.978   3.020   0.969
14652TIP3    H143901   2.050   3.008   0.907
14652TIP3    H243902   1.919   3.082   0.926
14653TIP3   OH243903   1.808   2.816   1.500
14653TIP3    H143904   1.753   2.743   1.528
14653TIP3    H243905   1.857   2.781   1.426
14654TIP3   OH243906   2.085   2.249   1.177
14654TIP3    H143907   2.038   2.328   1.149
14654TIP3    H243908   2.024   2.177   1.161
14655TIP3   OH243909   2.202   2.758   1.292
14655TIP3    H143910   2.241   2.757   1.379
14655TIP3    H243911   2.112   2.729   1.306
14656TIP3   OH243912   1.667   2.582   1.566
14656TIP3    H143913   1.669   2.498   1.521
14656TIP3    H243914   1.707   2.565   1.652
14657TIP3   OH243915   2.169   2.240   1.446
14657TIP3    H143916   2.243   2.179   1.435
14657TIP3    H243917   2.136   2.253   1.357
14658TIP3   OH243918   4.305   7.712   6.618
14658TIP3    H143919   4.398   7.697   6.603
14658TIP3    H243920   4.274   7.757   6.539
14659TIP3   OH243921   3.783   7.086   6.831
14659TIP3    H143922   3.875   7.107   6.817
14659TIP3    H243923   3.772   6.999   6.792
14660TIP3   OH243924   0.862   3.693   0.311
14660TIP3    H143925   0.798   3.636   0.269
14660TIP3    H243926   0.906   3.637   0.375
14661TIP3   OH243927   0.994   3.540   0.500
14661TIP3    H143928   0.983   3.465   0.560
14661TIP3    H243929   1.056   3.597   0.545
14662TIP3   OH243930   5.451   7.160   6.710
14662TIP3    H143931   5.517   7.221   6.678
14662TIP3    H243932   5.491   7.120   6.788
14663TIP3   OH243933   2.740   3.023  -0.026
14663TIP3    H143934   2.676   2.979   0.031
14663TIP3    H243935   2.808   3.054   0.034
14664TIP3   OH243936   5.516   6.936   6.560
14664TIP3    H143937   5.447   6.934   6.493
14664TIP3    H243938   5.490   7.007   6.618
14665TIP3   OH243939   5.379   6.608   6.511
14665TIP3    H143940   5.345   6.637   6.426
14665TIP3    H243941   5.362   6.514   6.512
14666TIP3   OH243942   2.554   2.876   0.117
14666TIP3    H143943   2.566   2.781   0.109
14666TIP3    H243944   2.538   2.891   0.210
14667TIP3   OH243945   1.184   2.950   0.862
14667TIP3    H143946   1.178   2.914   0.774
14667TIP3    H243947   1.278   2.950   0.882
14668TIP3   OH243948   5.328   6.343   6.501
14668TIP3    H143949   5.402   6.308   6.550
14668TIP3    H243950   5.257   6.281   6.516
14669TIP3   OH243951   5.390   6.598   6.948
14669TIP3    H143952   5.427   6.511   6.965
14669TIP3    H243953   5.445   6.633   6.878
14670TIP3   OH243954   2.707   2.800   0.505
14670TIP3    H143955   2.792   2.810   0.462
14670TIP3    H243956   2.725   2.816   0.598
14671TIP3   OH243957   1.397   2.619   1.525
14671TIP3    H143958   1.492   2.620   1.534
14671TIP3    H243959   1.369   2.543   1.575
14672TIP3   OH243960   2.661   2.342   0.052
14672TIP3    H143961   2.712   2.328   0.132
14672TIP3    H243962   2.602   2.267   0.048
14673TIP3   OH243963   1.364   2.329   0.873
14673TIP3    H143964   1.421   2.252   0.880
14673TIP3    H243965   1.424   2.403   0.862
14674TIP3   OH243966   1.163   2.601   0.940
14674TIP3    H143967   1.213   2.596   0.858
14674TIP3    H243968   1.194   2.682   0.982
14675TIP3   OH243969   5.575   6.281   6.623
14675TIP3    H143970   5.611   6.211   6.569
14675TIP3    H243971   5.641   6.350   6.620
14676TIP3   OH243972   1.149   2.107   0.445
14676TIP3    H143973   1.057   2.099   0.472
14676TIP3    H243974   1.145   2.162   0.367
14677TIP3   OH243975   5.137   7.783   6.867
14677TIP3    H143976   5.190   7.797   6.789
14677TIP3    H243977   5.089   7.865   6.879
14678TIP3   OH243978   1.369   2.189   1.258
14678TIP3    H143979   1.320   2.183   1.340
14678TIP3    H243980   1.306   2.222   1.194
14679TIP3   OH243981   1.615   3.634   0.871
14679TIP3    H143982   1.550   3.704   0.864
14679TIP3    H243983   1.624   3.600   0.782
14680TIP3   OH243984   3.001   2.393   0.941
14680TIP3    H143985   2.906   2.380   0.933
14680TIP3    H243986   3.039   2.306   0.924
14681TIP3   OH243987   1.505   3.827   0.710
14681TIP3    H143988   1.475   3.871   0.790
14681TIP3    H243989   1.493   3.893   0.641
14682TIP3   OH243990   1.175   3.687   0.657
14682TIP3    H143991   1.206   3.677   0.747
14682TIP3    H243992   1.245   3.649   0.604
14683TIP3   OH243993   1.367   3.565   0.509
14683TIP3    H143994   1.383   3.482   0.554
14683TIP3    H243995   1.455   3.597   0.489
14684TIP3   OH243996   1.629   3.663   0.491
14684TIP3    H143997   1.670   3.578   0.505
14684TIP3    H243998   1.619   3.700   0.579
14685TIP3   OH243999   2.204   2.313   0.595
14685TIP3    H144000   2.167   2.242   0.646
14685TIP3    H244001   2.282   2.275   0.554
14686TIP3   OH244002   2.729   2.193   0.497
14686TIP3    H144003   2.770   2.246   0.429
14686TIP3    H244004   2.637   2.221   0.497
14687TIP3   OH244005   2.830   2.300   0.265
14687TIP3    H144006   2.901   2.245   0.230
14687TIP3    H244007   2.861   2.390   0.252
14688TIP3   OH244008   1.457   2.023   0.614
14688TIP3    H144009   1.365   1.995   0.617
14688TIP3    H244010   1.507   1.941   0.610
14689TIP3   OH244011   1.247   1.900   0.265
14689TIP3    H144012   1.278   1.952   0.191
14689TIP3    H244013   1.222   1.964   0.331
14690TIP3   OH244014   1.905   2.060   0.497
14690TIP3    H144015   1.959   2.103   0.430
14690TIP3    H244016   1.936   2.096   0.580
14691TIP3   OH244017   2.440   2.205   0.481
14691TIP3    H144018   2.452   2.168   0.393
14691TIP3    H244019   2.432   2.128   0.538
14692TIP3   OH244020   2.478   2.130   0.044
14692TIP3    H144021   2.393   2.172   0.056
14692TIP3    H244022   2.468   2.044   0.086
14693TIP3   OH244023   0.960   3.472   0.036
14693TIP3    H144024   0.877   3.434   0.006
14693TIP3    H244025   0.953   3.564   0.010
14694TIP3   OH244026   1.368   2.054   0.025
14694TIP3    H144027   1.412   1.991  -0.032
14694TIP3    H244028   1.439   2.108   0.060
14695TIP3   OH244029   1.875   2.236   0.127
14695TIP3    H144030   1.933   2.184   0.182
14695TIP3    H244031   1.895   2.327   0.148
14696TIP3   OH244032   4.571   7.659   6.562
14696TIP3    H144033   4.656   7.685   6.528
14696TIP3    H244034   4.545   7.585   6.506
14697TIP3   OH244035   5.297   7.799   6.645
14697TIP3    H144036   5.300   7.703   6.644
14697TIP3    H244037   5.251   7.822   6.565
14698TIP3   OH244038   1.660   2.309   1.505
14698TIP3    H144039   1.618   2.241   1.557
14698TIP3    H244040   1.753   2.301   1.526
14699TIP3   OH244041   1.920   2.284   1.595
14699TIP3    H144042   1.998   2.287   1.539
14699TIP3    H244043   1.950   2.240   1.675
14700TIP3   OH244044   3.877   7.500   6.621
14700TIP3    H144045   3.875   7.510   6.716
14700TIP3    H244046   3.960   7.457   6.603
14701TIP3   OH244047   5.748   6.805   6.862
14701TIP3    H144048   5.703   6.888   6.883
14701TIP3    H244049   5.680   6.752   6.820
14702TIP3   OH244050   2.975   3.077   0.102
14702TIP3    H144051   3.026   3.015   0.154
14702TIP3    H244052   3.032   3.100   0.029
14703TIP3   OH244053   3.466   2.700   0.115
14703TIP3    H144054   3.462   2.764   0.044
14703TIP3    H244055   3.430   2.620   0.076
14704TIP3   OH244056   3.143   2.882   0.203
14704TIP3    H144057   3.230   2.857   0.235
14704TIP3    H244058   3.128   2.825   0.127
14705TIP3   OH244059   5.645   7.323   6.594
14705TIP3    H144060   5.597   7.359   6.519
14705TIP3    H244061   5.678   7.399   6.641
14706TIP3   OH244062   6.580   6.940   6.158
14706TIP3    H144063   6.652   6.986   6.201
14706TIP3    H244064   6.623   6.870   6.108
14707TIP3   OH244065   7.289   6.322   6.242
14707TIP3    H144066   7.214   6.327   6.301
14707TIP3    H244067   7.302   6.412   6.212
14708TIP3   OH244068   6.062   7.066   6.604
14708TIP3    H144069   5.984   7.105   6.565
14708TIP3    H244070   6.031   6.985   6.645
14709TIP3   OH244071   6.889   7.160   5.922
14709TIP3    H144072   6.835   7.122   5.853
14709TIP3    H244073   6.977   7.129   5.903
14710TIP3   OH244074   6.580   6.513   6.282
14710TIP3    H144075   6.555   6.510   6.375
14710TIP3    H244076   6.548   6.430   6.246
14711TIP3   OH244077   6.238   6.858   6.831
14711TIP3    H144078   6.153   6.832   6.866
14711TIP3    H244079   6.245   6.812   6.748
14712TIP3   OH244080   6.239   6.487   6.253
14712TIP3    H144081   6.235   6.481   6.348
14712TIP3    H244082   6.161   6.536   6.228
14713TIP3   OH244083   2.953   2.523   0.180
14713TIP3    H144084   3.027   2.561   0.227
14713TIP3    H244085   2.991   2.487   0.100
14714TIP3   OH244086   5.750   6.512   6.638
14714TIP3    H144087   5.800   6.548   6.564
14714TIP3    H244088   5.689   6.582   6.661
14715TIP3   OH244089   6.008   6.738   6.915
14715TIP3    H144090   5.917   6.739   6.887
14715TIP3    H244091   6.036   6.647   6.901
14716TIP3   OH244092   6.280   6.730   6.598
14716TIP3    H144093   6.373   6.744   6.576
14716TIP3    H244094   6.233   6.755   6.518
14717TIP3   OH244095   6.129   6.780   6.377
14717TIP3    H144096   6.056   6.732   6.337
14717TIP3    H244097   6.181   6.809   6.303
14718TIP3   OH244098   6.184   6.505   6.890
14718TIP3    H144099   6.147   6.431   6.938
14718TIP3    H244100   6.235   6.465   6.820
14719TIP3   OH244101   6.346   7.321   6.401
14719TIP3    H144102   6.291   7.244   6.386
14719TIP3    H244103   6.327   7.347   6.491
14720TIP3   OH244104   6.831   6.628   6.270
14720TIP3    H144105   6.739   6.601   6.266
14720TIP3    H244106   6.833   6.711   6.222
14721TIP3   OH244107   5.711   6.959   6.369
14721TIP3    H144108   5.773   7.023   6.405
14721TIP3    H244109   5.653   6.938   6.442
14722TIP3   OH244110   6.163   7.470   5.983
14722TIP3    H144111   6.182   7.383   5.949
14722TIP3    H244112   6.144   7.455   6.076
14723TIP3   OH244113   6.157   7.464   6.256
14723TIP3    H144114   6.234   7.416   6.289
14723TIP3    H244115   6.185   7.556   6.255
14724TIP3   OH244116   5.844   7.180   6.476
14724TIP3    H144117   5.780   7.219   6.536
14724TIP3    H244118   5.861   7.248   6.411
14725TIP3   OH244119   6.874   6.567   6.534
14725TIP3    H144120   6.867   6.598   6.444
14725TIP3    H244121   6.956   6.604   6.566
14726TIP3   OH244122   6.564   6.750   6.633
14726TIP3    H144123   6.640   6.806   6.620
14726TIP3    H244124   6.538   6.766   6.724
14727TIP3   OH244125   6.722   6.476   6.739
14727TIP3    H144126   6.759   6.531   6.808
14727TIP3    H244127   6.766   6.504   6.659
14728TIP3   OH244128   6.230   6.470   6.527
14728TIP3    H144129   6.224   6.557   6.567
14728TIP3    H244130   6.323   6.447   6.534
14729TIP3   OH244131   5.846   7.388   6.286
14729TIP3    H144132   5.900   7.464   6.304
14729TIP3    H244133   5.897   7.336   6.224
14730TIP3   OH244134   5.782   6.679   6.416
14730TIP3    H144135   5.780   6.771   6.391
14730TIP3    H244136   5.715   6.637   6.362
14731TIP3   OH244137   3.271   2.350   0.347
14731TIP3    H144138   3.289   2.328   0.256
14731TIP3    H244139   3.313   2.281   0.397
14732TIP3   OH244140   5.688   7.577   6.650
14732TIP3    H144141   5.643   7.626   6.719
14732TIP3    H244142   5.737   7.643   6.601
14733TIP3   OH244143   6.334   7.675   5.919
14733TIP3    H144144   6.274   7.605   5.944
14733TIP3    H244145   6.409   7.630   5.881
14734TIP3   OH244146   5.987   7.202   6.144
14734TIP3    H144147   6.040   7.166   6.215
14734TIP3    H244148   6.046   7.202   6.068
14735TIP3   OH244149   6.479   7.388   5.961
14735TIP3    H144150   6.487   7.395   6.056
14735TIP3    H244151   6.489   7.295   5.942
14736TIP3   OH244152   6.193   7.100   6.362
14736TIP3    H144153   6.151   7.069   6.442
14736TIP3    H244154   6.223   7.021   6.317
14737TIP3   OH244155   6.293   6.899   6.192
14737TIP3    H144156   6.265   6.901   6.101
14737TIP3    H244157   6.389   6.900   6.189
14738TIP3   OH244158   5.578   7.347   6.293
14738TIP3    H144159   5.668   7.382   6.296
14738TIP3    H244160   5.589   7.253   6.302
14739TIP3   OH244161   7.100   6.872   6.040
14739TIP3    H144162   7.116   6.897   5.949
14739TIP3    H244163   7.120   6.778   6.043
14740TIP3   OH244164   7.131   6.606   5.999
14740TIP3    H144165   7.211   6.567   6.032
14740TIP3    H244166   7.066   6.535   6.004
14741TIP3   OH244167   3.160   2.596   0.344
14741TIP3    H144168   3.199   2.509   0.345
14741TIP3    H244169   3.212   2.647   0.407
14742TIP3   OH244170   2.961   2.882   0.439
14742TIP3    H144171   3.024   2.864   0.369
14742TIP3    H244172   2.949   2.977   0.435
14743TIP3   OH244173   7.398   6.514   6.051
14743TIP3    H144174   7.444   6.476   5.975
14743TIP3    H244175   7.452   6.590   6.075
14744TIP3   OH244176   5.777   6.369   6.868
14744TIP3    H144177   5.686   6.362   6.898
14744TIP3    H244178   5.773   6.426   6.792
14745TIP3   OH244179   3.255   2.277   0.078
14745TIP3    H144180   3.164   2.250   0.091
14745TIP3    H244181   3.304   2.194   0.079
14746TIP3   OH244182   5.877   6.164   6.693
14746TIP3    H144183   5.906   6.217   6.619
14746TIP3    H244184   5.851   6.227   6.760
14747TIP3   OH244185   6.534   6.317   6.924
14747TIP3    H144186   6.591   6.371   6.869
14747TIP3    H244187   6.521   6.370   7.003
14748TIP3   OH244188   7.079   6.362   6.447
14748TIP3    H144189   7.005   6.422   6.461
14748TIP3    H244190   7.054   6.282   6.493
14749TIP3   OH244191   5.616   7.749   6.411
14749TIP3    H144192   5.533   7.703   6.402
14749TIP3    H244193   5.605   7.804   6.489
14750TIP3   OH244194   5.998   6.321   6.450
14750TIP3    H144195   6.040   6.255   6.394
14750TIP3    H244196   6.071   6.371   6.487
14751TIP3   OH244197   6.508   6.494   6.551
14751TIP3    H144198   6.563   6.442   6.609
14751TIP3    H244199   6.529   6.585   6.573
14752TIP3   OH244200   5.670   7.743   6.116
14752TIP3    H144201   5.659   7.748   6.211
14752TIP3    H244202   5.758   7.710   6.104
14753TIP3   OH244203   5.469   0.222   6.790
14753TIP3    H144204   5.518   0.294   6.832
14753TIP3    H244205   5.533   0.179   6.734
14754TIP3   OH244206   0.530   3.620   0.006
14754TIP3    H144207   0.453   3.634   0.061
14754TIP3    H244208   0.542   3.703  -0.039
14755TIP3   OH244209   5.752   0.387   6.643
14755TIP3    H144210   5.720   0.371   6.554
14755TIP3    H244211   5.814   0.459   6.634
14756TIP3   OH244212   8.279   3.817   0.002
14756TIP3    H144213   8.271   3.802   0.097
14756TIP3    H244214   8.244   3.738  -0.038
14757TIP3   OH244215   2.288   7.784   6.897
14757TIP3    H144216   2.276   7.799   6.991
14757TIP3    H244217   2.212   7.824   6.856
14758TIP3   OH244218   2.880   7.899   6.921
14758TIP3    H144219   2.784   7.896   6.919
14758TIP3    H244220   2.902   7.987   6.890
14759TIP3   OH244221   5.819   0.134   6.864
14759TIP3    H144222   5.856   0.137   6.953
14759TIP3    H244223   5.777   0.219   6.853
14760TIP3   OH244224   6.211   0.210   6.819
14760TIP3    H144225   6.149   0.173   6.756
14760TIP3    H244226   6.211   0.304   6.799
14761TIP3   OH244227   0.155   3.867   0.230
14761TIP3    H144228   0.123   3.867   0.140
14761TIP3    H244229   0.113   3.943   0.271
14762TIP3   OH244230   5.988   0.530   6.522
14762TIP3    H144231   5.962   0.476   6.447
14762TIP3    H244232   5.984   0.620   6.488
14763TIP3   OH244233   6.186   0.492   6.702
14763TIP3    H144234   6.117   0.468   6.640
14763TIP3    H244235   6.187   0.587   6.700
14764TIP3   OH244236   6.052   0.142   6.621
14764TIP3    H144237   5.983   0.177   6.565
14764TIP3    H244238   6.033   0.049   6.628
14765TIP3   OH244239   3.170   7.891   6.645
14765TIP3    H144240   3.235   7.862   6.708
14765TIP3    H244241   3.092   7.840   6.666
14766TIP3   OH244242   0.436   4.151   0.129
14766TIP3    H144243   0.468   4.067   0.162
14766TIP3    H244244   0.472   4.158   0.041
14767TIP3   OH244245   0.521   3.892   0.191
14767TIP3    H144246   0.551   3.884   0.281
14767TIP3    H244247   0.453   3.826   0.182
14768TIP3   OH244248   3.420   7.835   6.775
14768TIP3    H144249   3.443   7.760   6.720
14768TIP3    H244250   3.490   7.899   6.760
14769TIP3   OH244251   0.586   3.777   0.657
14769TIP3    H144252   0.622   3.814   0.577
14769TIP3    H244253   0.493   3.763   0.638
14770TIP3   OH244254   0.676   3.871   0.418
14770TIP3    H144255   0.748   3.825   0.374
14770TIP3    H244256   0.695   3.964   0.404
14771TIP3   OH244257   0.322   3.741   0.633
14771TIP3    H144258   0.266   3.744   0.555
14771TIP3    H244259   0.286   3.669   0.685
14772TIP3   OH244260   0.341   3.677   0.192
14772TIP3    H144261   0.270   3.738   0.211
14772TIP3    H244262   0.316   3.596   0.236
14773TIP3   OH244263   7.713   3.601   0.151
14773TIP3    H144264   7.741   3.529   0.095
14773TIP3    H244265   7.787   3.617   0.209
14774TIP3   OH244266   0.761   4.346  -0.006
14774TIP3    H144267   0.745   4.432   0.034
14774TIP3    H244268   0.690   4.291   0.026
14775TIP3   OH244269   1.336   4.234   0.238
14775TIP3    H144270   1.320   4.305   0.177
14775TIP3    H244271   1.295   4.157   0.197
14776TIP3   OH244272   7.713   0.302   6.780
14776TIP3    H144273   7.762   0.298   6.862
14776TIP3    H244274   7.694   0.394   6.766
14777TIP3   OH244275   1.426   4.608   0.178
14777TIP3    H144276   1.513   4.590   0.140
14777TIP3    H244277   1.368   4.547   0.133
14778TIP3   OH244278   1.206   4.345   0.449
14778TIP3    H144279   1.265   4.420   0.463
14778TIP3    H244280   1.252   4.291   0.386
14779TIP3   OH244281   1.659   3.922   0.373
14779TIP3    H144282   1.666   3.832   0.404
14779TIP3    H244283   1.596   3.963   0.433
14780TIP3   OH244284   7.281   0.675   6.583
14780TIP3    H144285   7.206   0.734   6.572
14780TIP3    H244286   7.334   0.690   6.505
14781TIP3   OH244287   7.246   0.478   6.305
14781TIP3    H144288   7.303   0.526   6.365
14781TIP3    H244289   7.305   0.419   6.258
14782TIP3   OH244290   1.257   4.744  -0.032
14782TIP3    H144291   1.181   4.708   0.014
14782TIP3    H244292   1.315   4.773   0.038
14783TIP3   OH244293   7.487   0.643   6.391
14783TIP3    H144294   7.545   0.712   6.422
14783TIP3    H244295   7.497   0.644   6.296
14784TIP3   OH244296   5.137   7.873   6.432
14784TIP3    H144297   5.064   7.896   6.489
14784TIP3    H244298   5.124   7.925   6.353
14785TIP3   OH244299   1.450   4.024   0.528
14785TIP3    H144300   1.360   4.000   0.509
14785TIP3    H244301   1.444   4.111   0.567
14786TIP3   OH244302   7.547   0.655   6.132
14786TIP3    H144303   7.517   0.633   6.044
14786TIP3    H244304   7.593   0.738   6.122
14787TIP3   OH244305   7.260   0.051   6.439
14787TIP3    H144306   7.227   0.050   6.529
14787TIP3    H244307   7.222  -0.027   6.399
14788TIP3   OH244308   1.258   4.409   0.044
14788TIP3    H144309   1.170   4.372   0.044
14788TIP3    H244310   1.290   4.394  -0.046
14789TIP3   OH244311   7.410   0.476   6.715
14789TIP3    H144312   7.365   0.551   6.678
14789TIP3    H244313   7.471   0.449   6.646
14790TIP3   OH244314   6.913   0.035   6.402
14790TIP3    H144315   6.904   0.031   6.498
14790TIP3    H244316   6.839   0.089   6.374
14791TIP3   OH244317   0.832   4.137   0.285
14791TIP3    H144318   0.891   4.119   0.359
14791TIP3    H244319   0.829   4.054   0.237
14792TIP3   OH244320   6.442   0.069   6.813
14792TIP3    H144321   6.465   0.063   6.720
14792TIP3    H244322   6.353   0.103   6.814
14793TIP3   OH244323   1.589   4.259   0.125
14793TIP3    H144324   1.511   4.245   0.178
14793TIP3    H244325   1.659   4.215   0.174
14794TIP3   OH244326   1.020   4.267   0.033
14794TIP3    H144327   0.955   4.288   0.100
14794TIP3    H244328   1.067   4.192   0.068
14795TIP3   OH244329   6.970   0.296   6.723
14795TIP3    H144330   7.062   0.293   6.750
14795TIP3    H244331   6.973   0.324   6.632
14796TIP3   OH244332   1.194   4.046   0.098
14796TIP3    H144333   1.155   3.976   0.152
14796TIP3    H244334   1.253   4.000   0.038
14797TIP3   OH244335   7.055   0.832   6.550
14797TIP3    H144336   6.977   0.780   6.527
14797TIP3    H244337   7.032   0.874   6.632
14798TIP3   OH244338   7.510   0.155   6.405
14798TIP3    H144339   7.417   0.136   6.412
14798TIP3    H244340   7.518   0.248   6.429
14799TIP3   OH244341   7.578   0.405   6.501
14799TIP3    H144342   7.673   0.399   6.503
14799TIP3    H244343   7.560   0.487   6.455
14800TIP3   OH244344   7.156   1.004   6.363
14800TIP3    H144345   7.128   1.081   6.412
14800TIP3    H244346   7.133   0.929   6.419
14801TIP3   OH244347   8.031   0.421   6.300
14801TIP3    H144348   7.951   0.417   6.247
14801TIP3    H244349   8.056   0.514   6.299
14802TIP3   OH244350   6.420   0.482   6.546
14802TIP3    H144351   6.463   0.566   6.562
14802TIP3    H244352   6.338   0.488   6.595
14803TIP3   OH244353   7.533   0.968   6.159
14803TIP3    H144354   7.586   1.040   6.193
14803TIP3    H244355   7.446   1.005   6.148
14804TIP3   OH244356   6.825   0.971   6.203
14804TIP3    H144357   6.869   0.889   6.180
14804TIP3    H244358   6.871   1.001   6.282
14805TIP3   OH244359   6.525   0.718   6.624
14805TIP3    H144360   6.563   0.751   6.706
14805TIP3    H244361   6.531   0.791   6.563
14806TIP3   OH244362   7.553   0.098   6.680
14806TIP3    H144363   7.538   0.120   6.588
14806TIP3    H244364   7.607   0.170   6.714
14807TIP3   OH244365   7.229   0.293   6.798
14807TIP3    H144366   7.293   0.357   6.767
14807TIP3    H244367   7.243   0.287   6.892
14808TIP3   OH244368   7.387   0.014   6.883
14808TIP3    H144369   7.387   0.089   6.943
14808TIP3    H244370   7.447   0.039   6.813
14809TIP3   OH244371   6.902   0.020   6.680
14809TIP3    H144372   6.908   0.110   6.712
14809TIP3    H244373   6.992  -0.012   6.683
14810TIP3   OH244374   6.537   0.946   6.445
14810TIP3    H144375   6.566   1.036   6.430
14810TIP3    H244376   6.582   0.895   6.378
14811TIP3   OH244377   6.488   0.232   6.607
14811TIP3    H144378   6.471   0.320   6.574
14811TIP3    H244379   6.467   0.175   6.533
14812TIP3   OH244380   1.192   3.922   0.497
14812TIP3    H144381   1.165   3.887   0.412
14812TIP3    H244382   1.183   3.848   0.558
14813TIP3   OH244383   6.651   0.736   6.297
14813TIP3    H144384   6.700   0.703   6.372
14813TIP3    H244385   6.716   0.744   6.227
14814TIP3   OH244386   7.090   0.905   6.102
14814TIP3    H144387   7.118   0.928   6.191
14814TIP3    H244388   7.127   0.818   6.087
14815TIP3   OH244389   6.851   0.650   6.497
14815TIP3    H144390   6.850   0.612   6.585
14815TIP3    H244391   6.890   0.582   6.442
14816TIP3   OH244392   6.973   0.447   6.361
14816TIP3    H144393   6.937   0.438   6.273
14816TIP3    H244394   7.068   0.449   6.349
14817TIP3   OH244395   7.789   0.780   6.017
14817TIP3    H144396   7.762   0.729   5.941
14817TIP3    H244397   7.777   0.871   5.991
14818TIP3   OH244398   6.277   0.852   6.504
14818TIP3    H144399   6.351   0.898   6.465
14818TIP3    H244400   6.257   0.782   6.442
14819TIP3   OH244401   8.013   0.668   6.174
14819TIP3    H144402   7.934   0.674   6.121
14819TIP3    H244403   8.064   0.746   6.149
14820TIP3   OH244404   7.820   0.408   6.134
14820TIP3    H144405   7.783   0.440   6.052
14820TIP3    H244406   7.797   0.316   6.136
14821TIP3   OH244407   7.771   0.146   6.141
14821TIP3    H144408   7.852   0.096   6.154
14821TIP3    H244409   7.702   0.080   6.140
14822TIP3   OH244410   7.860   0.370   6.519
14822TIP3    H144411   7.859   0.334   6.608
14822TIP3    H244412   7.896   0.458   6.530
14823TIP3   OH244413   7.927   0.136   6.645
14823TIP3    H144414   7.965   0.136   6.732
14823TIP3    H244415   7.865   0.063   6.645
14824TIP3   OH244416   1.026   4.136   0.487
14824TIP3    H144417   1.082   4.060   0.497
14824TIP3    H244418   1.086   4.209   0.475
14825TIP3   OH244419   8.029   0.089   6.253
14825TIP3    H144420   8.059   0.007   6.214
14825TIP3    H244421   8.101   0.150   6.239
14826TIP3   OH244422   0.784   3.924   0.100
14826TIP3    H144423   0.692   3.904   0.117
14826TIP3    H244424   0.782   3.979   0.021
14827TIP3   OH244425   1.792   4.116   0.231
14827TIP3    H144426   1.759   4.035   0.271
14827TIP3    H244427   1.876   4.090   0.192
14828TIP3   OH244428   1.094   3.836   0.249
14828TIP3    H144429   1.003   3.807   0.254
14828TIP3    H244430   1.145   3.755   0.245
14829TIP3   OH244431   3.720   7.719   6.846
14829TIP3    H144432   3.751   7.773   6.773
14829TIP3    H244433   3.693   7.782   6.912
14830TIP3   OH244434   1.534   3.880   0.132
14830TIP3    H144435   1.596   3.918   0.069
14830TIP3    H244436   1.572   3.898   0.217
14831TIP3   OH244437   2.129   3.946   0.060
14831TIP3    H144438   2.118   4.037   0.090
14831TIP3    H244439   2.087   3.893   0.128
14832TIP3   OH244440   4.929   7.939   6.615
14832TIP3    H144441   4.847   7.984   6.632
14832TIP3    H244442   4.919   7.853   6.657
14833TIP3   OH244443   3.840   7.880   6.604
14833TIP3    H144444   3.879   7.812   6.548
14833TIP3    H244445   3.915   7.929   6.637
14834TIP3   OH244446   7.178   0.040   6.703
14834TIP3    H144447   7.237  -0.013   6.757
14834TIP3    H244448   7.199   0.131   6.727
14835TIP3   OH244449   0.196   0.297   5.908
14835TIP3    H144450   0.177   0.290   6.001
14835TIP3    H244451   0.117   0.337   5.870
14836TIP3   OH244452   8.236   0.260   6.220
14836TIP3    H144453   8.305   0.309   6.174
14836TIP3    H244454   8.183   0.328   6.262
14837TIP3   OH244455   8.200   0.458   5.991
14837TIP3    H144456   8.260   0.517   6.037
14837TIP3    H244457   8.127   0.446   6.052
14838TIP3   OH244458   8.150   0.214   6.495
14838TIP3    H144459   8.156   0.183   6.585
14838TIP3    H244460   8.241   0.228   6.469
14839TIP3   OH244461   8.299  -0.032   6.275
14839TIP3    H144462   8.341   0.020   6.207
14839TIP3    H244463   8.301   0.023   6.353
14840TIP3   OH244464  -0.031   0.117   6.084
14840TIP3    H144465   0.008   0.052   6.027
14840TIP3    H244466   0.039   0.142   6.145
   8.50000   8.01388   6.94022   0.00000   0.00000  -2.83333   0.00000  -2.83333  -4.00694
