Title
44463
    1GLY      N    1   6.365   4.623   3.651
    1GLY    HT1    2   6.468   4.608   3.651
    1GLY    HT2    3   6.340   4.700   3.716
    1GLY    HT3    4   6.339   4.653   3.556
    1GLY     CA    5   6.297   4.494   3.691
    1GLY    HA1    6   6.319   4.477   3.795
    1GLY    HA2    7   6.334   4.418   3.624
    1GLY      C    8   6.148   4.498   3.677
    1GLY      O    9   6.094   4.606   3.656
    2PRO      N   10   6.079   4.384   3.687
    2PRO     CD   11   6.137   4.261   3.743
    2PRO    HD1   12   6.152   4.274   3.852
    2PRO    HD2   13   6.232   4.232   3.694
    2PRO     CA   14   5.933   4.374   3.678
    2PRO     HA   15   5.907   4.393   3.575
    2PRO     CB   16   5.898   4.231   3.723
    2PRO    HB1   17   5.821   4.185   3.658
    2PRO    HB2   18   5.861   4.229   3.828
    2PRO     CG   19   6.031   4.153   3.719
    2PRO    HG1   20   6.034   4.072   3.795
    2PRO    HG2   21   6.046   4.110   3.618
    2PRO      C   22   5.857   4.476   3.761
    2PRO      O   23   5.901   4.510   3.870
    3GLY      N   24   5.743   4.526   3.711
    3GLY     HN   25   5.714   4.503   3.619
    3GLY     CA   26   5.651   4.605   3.793
    3GLY    HA1   27   5.566   4.628   3.731
    3GLY    HA2   28   5.705   4.692   3.827
    3GLY      C   29   5.598   4.534   3.915
    3GLY      O   30   5.613   4.413   3.932
    4ASP      N   31   5.529   4.608   4.004
    4ASP     HN   32   5.526   4.707   4.001
    4ASP     CA   33   5.441   4.547   4.102
    4ASP     HA   34   5.502   4.479   4.160
    4ASP     CB   35   5.380   4.655   4.194
    4ASP    HB1   36   5.300   4.611   4.258
    4ASP    HB2   37   5.335   4.738   4.134
    4ASP     CG   38   5.484   4.711   4.289
    4ASP    OD1   39   5.558   4.630   4.351
    4ASP    OD2   40   5.482   4.835   4.313
    4ASP      C   41   5.328   4.466   4.034
    4ASP      O   42   5.285   4.504   3.924
    5PRO      N   43   5.279   4.356   4.090
    5PRO     CD   44   5.333   4.294   4.211
    5PRO    HD1   45   5.305   4.357   4.299
    5PRO    HD2   46   5.443   4.281   4.205
    5PRO     CA   47   5.154   4.294   4.049
    5PRO     HA   48   5.171   4.252   3.950
    5PRO     CB   49   5.126   4.186   4.154
    5PRO    HB1   50   5.081   4.094   4.109
    5PRO    HB2   51   5.057   4.224   4.233
    5PRO     CG   52   5.263   4.158   4.216
    5PRO    HG1   53   5.255   4.118   4.319
    5PRO    HG2   54   5.319   4.087   4.151
    5PRO      C   55   5.037   4.390   4.035
    5PRO      O   56   5.029   4.486   4.111
    6GLY      N   57   4.946   4.365   3.939
    6GLY     HN   58   4.954   4.284   3.882
    6GLY     CA   59   4.821   4.439   3.932
    6GLY    HA1   60   4.767   4.403   3.846
    6GLY    HA2   61   4.846   4.544   3.927
    6GLY      C   62   4.732   4.418   4.053
    6GLY      O   63   4.753   4.323   4.128
    7PRO      N   64   4.631   4.502   4.075
    7PRO     CD   65   4.590   4.607   3.981
    7PRO    HD1   66   4.599   4.575   3.875
    7PRO    HD2   67   4.653   4.697   4.000
    7PRO     CA   68   4.531   4.479   4.178
    7PRO     HA   69   4.581   4.476   4.274
    7PRO     CB   70   4.436   4.599   4.164
    7PRO    HB1   71   4.477   4.684   4.224
    7PRO    HB2   72   4.333   4.579   4.199
    7PRO     CG   73   4.443   4.635   4.015
    7PRO    HG1   74   4.378   4.566   3.958
    7PRO    HG2   75   4.412   4.740   3.996
    7PRO      C   76   4.457   4.347   4.164
    7PRO      O   77   4.439   4.298   4.053
    8GLY      N   78   4.415   4.288   4.278
    8GLY     HN   79   4.441   4.327   4.365
    8GLY     CA   80   4.321   4.175   4.281
    8GLY    HA1   81   4.299   4.155   4.385
    8GLY    HA2   82   4.369   4.092   4.231
    8GLY      C   83   4.189   4.202   4.212
    8GLY      O   84   4.146   4.315   4.197
    9ASP      N   85   4.119   4.094   4.171
    9ASP     HN   86   4.156   4.002   4.180
    9ASP     CA   87   3.986   4.103   4.114
    9ASP     HA   88   3.997   4.170   4.029
    9ASP     CB   89   3.936   3.964   4.064
    9ASP    HB1   90   3.829   3.969   4.034
    9ASP    HB2   91   3.946   3.890   4.146
    9ASP     CG   92   4.013   3.915   3.944
    9ASP    OD1   93   4.068   3.999   3.868
    9ASP    OD2   94   4.007   3.792   3.918
    9ASP      C   95   3.883   4.166   4.210
    9ASP      O   96   3.895   4.147   4.332
   10PRO      N   97   3.783   4.242   4.163
   10PRO     CD   98   3.755   4.265   4.021
   10PRO    HD1   99   3.707   4.174   3.979
   10PRO    HD2  100   3.847   4.290   3.963
   10PRO     CA  101   3.676   4.295   4.247
   10PRO     HA  102   3.722   4.364   4.316
   10PRO     CB  103   3.579   4.365   4.150
   10PRO    HB1  104   3.544   4.462   4.191
   10PRO    HB2  105   3.490   4.301   4.128
   10PRO     CG  106   3.659   4.383   4.021
   10PRO    HG1  107   3.594   4.385   3.930
   10PRO    HG2  108   3.717   4.478   4.026
   10PRO      C  109   3.605   4.190   4.331
   10PRO      O  110   3.569   4.084   4.279
   11GLY      N  111   3.581   4.219   4.461
   11GLY     HN  112   3.614   4.306   4.497
   11GLY     CA  113   3.506   4.132   4.550
   11GLY    HA1  114   3.496   4.183   4.644
   11GLY    HA2  115   3.563   4.040   4.556
   11GLY      C  116   3.366   4.098   4.502
   11GLY      O  117   3.308   4.173   4.423
   12PRO      N  118   3.307   3.988   4.547
   12PRO     CD  119   3.358   3.911   4.662
   12PRO    HD1  120   3.393   3.977   4.744
   12PRO    HD2  121   3.441   3.846   4.627
   12PRO     CA  122   3.172   3.948   4.511
   12PRO     HA  123   3.169   3.936   4.404
   12PRO     CB  124   3.152   3.814   4.585
   12PRO    HB1  125   3.192   3.733   4.520
   12PRO    HB2  126   3.046   3.792   4.609
   12PRO     CG  127   3.240   3.826   4.710
   12PRO    HG1  128   3.185   3.882   4.789
   12PRO    HG2  129   3.273   3.728   4.750
   12PRO      C  130   3.065   4.051   4.546
   12PRO      O  131   3.083   4.134   4.634
   13GLY      N  132   2.951   4.048   4.472
   13GLY     HN  133   2.941   3.981   4.399
   13GLY     CA  134   2.833   4.128   4.505
   13GLY    HA1  135   2.757   4.106   4.430
   13GLY    HA2  136   2.862   4.232   4.506
   13GLY      C  137   2.771   4.097   4.639
   13GLY      O  138   2.795   3.992   4.699
   14ASP      N  139   2.686   4.189   4.689
   14ASP     HN  140   2.670   4.275   4.642
   14ASP     CA  141   2.605   4.168   4.807
   14ASP     HA  142   2.673   4.137   4.884
   14ASP     CB  143   2.544   4.303   4.852
   14ASP    HB1  144   2.472   4.286   4.935
   14ASP    HB2  145   2.492   4.353   4.767
   14ASP     CG  146   2.653   4.395   4.906
   14ASP    OD1  147   2.719   4.354   5.005
   14ASP    OD2  148   2.672   4.508   4.854
   14ASP      C  149   2.496   4.059   4.785
   14ASP      O  150   2.431   4.062   4.680
   15PRO      N  151   2.475   3.962   4.877
   15PRO     CD  152   2.570   3.931   4.985
   15PRO    HD1  153   2.541   3.991   5.074
   15PRO    HD2  154   2.676   3.952   4.957
   15PRO     CA  155   2.379   3.853   4.858
   15PRO     HA  156   2.398   3.806   4.762
   15PRO     CB  157   2.408   3.758   4.977
   15PRO    HB1  158   2.388   3.652   4.951
   15PRO    HB2  159   2.346   3.786   5.064
   15PRO     CG  160   2.554   3.782   5.011
   15PRO    HG1  161   2.577   3.755   5.117
   15PRO    HG2  162   2.620   3.724   4.943
   15PRO      C  163   2.231   3.890   4.862
   15PRO    OT1  164   2.195   4.010   4.869
   15PRO    OT2  165   2.148   3.794   4.865
   16LIT    LIT  166   6.466   2.107   0.935
   17LIT    LIT  167   7.461   7.307   3.591
   18LIT    LIT  168   2.854   0.089   6.322
   19LIT    LIT  169   5.107   5.672   1.005
   20LIT    LIT  170   7.015   5.545   5.576
   21LIT    LIT  171   2.616   6.528   1.873
   22LIT    LIT  172   2.972   1.908   4.716
   23LIT    LIT  173   8.459   2.084   5.483
   24LIT    LIT  174   7.586   6.180   4.782
   25LIT    LIT  175   7.777   5.426   5.824
   26LIT    LIT  176   6.524   0.229   6.790
   27LIT    LIT  177   7.062   6.245   2.228
   28LIT    LIT  178   8.406   3.438   3.624
   29LIT    LIT  179   2.113   2.678   1.241
   30LIT    LIT  180   1.387   2.228   4.229
   31LIT    LIT  181   5.566   6.631   1.566
   32LIT    LIT  182   4.462   1.922   6.277
   33LIT    LIT  183   0.751   7.859   2.986
   34LIT    LIT  184   1.407   7.264   4.876
   35LIT    LIT  185   3.058   2.919   5.617
   36LIT    LIT  186   7.986   0.204   6.461
   37LIT    LIT  187   5.475   7.042   5.968
   38LIT    LIT  188   2.025   1.886   3.823
   39LIT    LIT  189   7.199   7.968   0.564
   40LIT    LIT  190   6.720   6.050   3.306
   41LIT    LIT  191   0.414   2.521   2.834
   42LIT    LIT  192   1.467   4.895   5.504
   43LIT    LIT  193   7.571   4.465   4.483
   44LIT    LIT  194   0.056   4.156   4.654
   45LIT    LIT  195   3.887   4.935   6.325
   46LIT    LIT  196   2.122   2.294   3.480
   47LIT    LIT  197   6.078   0.968   2.329
   48LIT    LIT  198   0.063   5.469   3.898
   49LIT    LIT  199   5.739   1.035   5.748
   50LIT    LIT  200   8.499   6.268   3.952
   51LIT    LIT  201   3.798   0.143   1.402
   52LIT    LIT  202   3.357   2.137   3.563
   53LIT    LIT  203   7.617   6.845   1.118
   54LIT    LIT  204   5.791   6.887   2.246
   55LIT    LIT  205   0.772   5.679   2.031
   56LIT    LIT  206   2.640   1.501   5.707
   57LIT    LIT  207   2.445   1.209   2.703
   58LIT    LIT  208   1.135   7.617   0.442
   59LIT    LIT  209   3.164   7.302   2.883
   60LIT    LIT  210   1.133   3.360   5.870
   61CLA    CLA  211   6.256   3.098   6.618
   62CLA    CLA  212   4.227   6.552   0.741
   63CLA    CLA  213   7.457   5.180   5.691
   64CLA    CLA  214   2.614   0.975   2.910
   65CLA    CLA  215   3.098   1.968   1.972
   66CLA    CLA  216   8.352   6.689   2.760
   67CLA    CLA  217   1.805   6.267   5.661
   68CLA    CLA  218   0.380   5.495   3.523
   69CLA    CLA  219   4.125   5.113   4.365
   70CLA    CLA  220   7.348   7.500   3.588
   71CLA    CLA  221   1.547   1.800   4.057
   72CLA    CLA  222   0.760   4.549   2.874
   73CLA    CLA  223   1.619   2.415   3.968
   74CLA    CLA  224   6.433   2.050   1.373
   75CLA    CLA  225   3.539   1.131   1.105
   76CLA    CLA  226   8.479   5.580   4.745
   77CLA    CLA  227   5.481   5.222   5.944
   78CLA    CLA  228   2.025   0.278   0.948
   79CLA    CLA  229   6.860   6.324   2.265
   80CLA    CLA  230   2.637   0.475   5.344
   81CLA    CLA  231   8.187   3.293   5.720
   82CLA    CLA  232   2.528   1.720   6.354
   83CLA    CLA  233   1.346   1.689   2.872
   84CLA    CLA  234   7.367   6.331   5.723
   85CLA    CLA  235   1.056   2.907   2.139
   86CLA    CLA  236   2.236   1.802   5.259
   87CLA    CLA  237   8.189   5.351   3.915
   88CLA    CLA  238   0.192   6.157   3.915
   89CLA    CLA  239   3.991   4.421   6.468
   90CLA    CLA  240   6.035   6.683   1.089
   91CLA    CLA  241   7.782   6.216   4.682
   92CLA    CLA  242   4.609   1.850   6.130
   93CLA    CLA  243   7.523   6.507   3.719
   94CLA    CLA  244   6.525   4.941   4.971
   95CLA    CLA  245   7.344   1.057   3.023
   96CLA    CLA  246   2.912   2.268   3.462
   97CLA    CLA  247   3.095   6.358   2.456
   98CLA    CLA  248   3.246   0.832   1.959
   99CLA    CLA  249   1.114   1.498   6.914
  100CLA    CLA  250   3.013   4.228   6.576
  101CLA    CLA  251   1.082   3.638   1.843
  102CLA    CLA  252   6.368   4.759   3.368
  103TIP3   OH2  253   3.301   0.358   2.285
  103TIP3    H1  254   3.288   0.264   2.296
  103TIP3    H2  255   3.218   0.397   2.312
  104TIP3   OH2  256   2.981   0.724   2.368
  104TIP3    H1  257   2.957   0.732   2.276
  104TIP3    H2  258   3.066   0.769   2.375
  105TIP3   OH2  259   3.285   0.054   2.249
  105TIP3    H1  260   3.189   0.059   2.242
  105TIP3    H2  261   3.311  -0.004   2.178
  106TIP3   OH2  262   2.700   0.291   2.564
  106TIP3    H1  263   2.721   0.218   2.622
  106TIP3    H2  264   2.778   0.346   2.563
  107TIP3   OH2  265   3.092   0.498   2.024
  107TIP3    H1  266   3.076   0.525   1.934
  107TIP3    H2  267   3.179   0.531   2.045
  108TIP3   OH2  268   3.180   0.175   2.561
  108TIP3    H1  269   3.104   0.174   2.620
  108TIP3    H2  270   3.220   0.261   2.574
  109TIP3   OH2  271   0.365   7.847   2.436
  109TIP3    H1  272   0.411   7.764   2.421
  109TIP3    H2  273   0.401   7.907   2.372
  110TIP3   OH2  274   0.540   7.640   2.425
  110TIP3    H1  275   0.567   7.549   2.442
  110TIP3    H2  276   0.611   7.693   2.460
  111TIP3   OH2  277   2.527   0.652   2.331
  111TIP3    H1  278   2.573   0.590   2.275
  111TIP3    H2  279   2.594   0.686   2.390
  112TIP3   OH2  280   3.050   0.457   2.339
  112TIP3    H1  281   3.014   0.445   2.251
  112TIP3    H2  282   3.025   0.547   2.362
  113TIP3   OH2  283   1.479   7.842   1.475
  113TIP3    H1  284   1.504   7.827   1.566
  113TIP3    H2  285   1.481   7.755   1.435
  114TIP3   OH2  286   4.586   0.097   1.262
  114TIP3    H1  287   4.494   0.095   1.288
  114TIP3    H2  288   4.620   0.177   1.303
  115TIP3   OH2  289   4.074   0.566   1.286
  115TIP3    H1  290   4.126   0.587   1.209
  115TIP3    H2  291   4.125   0.498   1.332
  116TIP3   OH2  292   4.149   0.035   1.545
  116TIP3    H1  293   4.203  -0.021   1.489
  116TIP3    H2  294   4.212   0.087   1.595
  117TIP3   OH2  295   3.960   0.004   1.772
  117TIP3    H1  296   3.879   0.049   1.795
  117TIP3    H2  297   3.993   0.053   1.696
  118TIP3   OH2  298   3.750   0.163   1.841
  118TIP3    H1  299   3.736   0.257   1.828
  118TIP3    H2  300   3.676   0.136   1.896
  119TIP3   OH2  301   4.635   0.380   1.306
  119TIP3    H1  302   4.564   0.370   1.369
  119TIP3    H2  303   4.637   0.473   1.286
  120TIP3   OH2  304   4.298   0.387   1.097
  120TIP3    H1  305   4.392   0.372   1.087
  120TIP3    H2  306   4.286   0.480   1.080
  121TIP3   OH2  307   4.837   0.300   1.708
  121TIP3    H1  308   4.829   0.228   1.646
  121TIP3    H2  309   4.823   0.379   1.655
  122TIP3   OH2  310   1.898   7.830   1.842
  122TIP3    H1  311   1.869   7.909   1.887
  122TIP3    H2  312   1.823   7.806   1.787
  123TIP3   OH2  313   4.452   0.352   1.500
  123TIP3    H1  314   4.416   0.432   1.538
  123TIP3    H2  315   4.410   0.281   1.548
  124TIP3   OH2  316   3.962   0.269   2.005
  124TIP3    H1  317   3.901   0.331   2.046
  124TIP3    H2  318   3.905   0.212   1.953
  125TIP3   OH2  319   0.887   7.874   2.130
  125TIP3    H1  320   0.898   7.961   2.169
  125TIP3    H2  321   0.793   7.859   2.130
  126TIP3   OH2  322   3.989   0.279   1.204
  126TIP3    H1  323   4.060   0.284   1.141
  126TIP3    H2  324   3.925   0.344   1.173
  127TIP3   OH2  325   3.767   0.440   2.092
  127TIP3    H1  326   3.720   0.473   2.016
  127TIP3    H2  327   3.699   0.414   2.153
  128TIP3   OH2  328   5.068   0.644   1.746
  128TIP3    H1  329   5.074   0.549   1.755
  128TIP3    H2  330   4.988   0.668   1.794
  129TIP3   OH2  331   4.182   0.400   1.909
  129TIP3    H1  332   4.177   0.494   1.926
  129TIP3    H2  333   4.109   0.362   1.957
  130TIP3   OH2  334   4.215   0.489   0.784
  130TIP3    H1  335   4.124   0.512   0.764
  130TIP3    H2  336   4.221   0.395   0.764
  131TIP3   OH2  337   2.149   7.742   1.903
  131TIP3    H1  338   2.074   7.797   1.882
  131TIP3    H2  339   2.124   7.654   1.875
  132TIP3   OH2  340   3.550   0.160   2.042
  132TIP3    H1  341   3.623   0.151   2.103
  132TIP3    H2  342   3.478   0.193   2.094
  133TIP3   OH2  343   1.991   7.520   1.873
  133TIP3    H1  344   1.923   7.509   1.939
  133TIP3    H2  345   1.944   7.555   1.797
  134TIP3   OH2  346   1.597   7.814   2.124
  134TIP3    H1  347   1.571   7.734   2.169
  134TIP3    H2  348   1.693   7.814   2.127
  135TIP3   OH2  349   1.570   7.774   1.719
  135TIP3    H1  350   1.645   7.718   1.698
  135TIP3    H2  351   1.537   7.740   1.802
  136TIP3   OH2  352   4.778   0.983   1.830
  136TIP3    H1  353   4.774   1.000   1.736
  136TIP3    H2  354   4.857   1.029   1.859
  137TIP3   OH2  355   3.729   0.108   2.248
  137TIP3    H1  356   3.808   0.124   2.298
  137TIP3    H2  357   3.657   0.126   2.309
  138TIP3   OH2  358   1.306   7.430   1.916
  138TIP3    H1  359   1.278   7.397   1.831
  138TIP3    H2  360   1.369   7.498   1.896
  139TIP3   OH2  361   4.801   0.107   1.529
  139TIP3    H1  362   4.839   0.120   1.442
  139TIP3    H2  363   4.724   0.052   1.513
  140TIP3   OH2  364   4.300   0.141   1.933
  140TIP3    H1  365   4.353   0.131   2.012
  140TIP3    H2  366   4.268   0.231   1.937
  141TIP3   OH2  367   1.360   7.931   2.175
  141TIP3    H1  368   1.312   7.905   2.096
  141TIP3    H2  369   1.450   7.906   2.158
  142TIP3   OH2  370   4.442   0.420   1.806
  142TIP3    H1  371   4.348   0.412   1.820
  142TIP3    H2  372   4.471   0.477   1.877
  143TIP3   OH2  373   5.091   0.373   1.765
  143TIP3    H1  374   4.999   0.350   1.778
  143TIP3    H2  375   5.114   0.334   1.681
  144TIP3   OH2  376   1.741   7.960   1.515
  144TIP3    H1  377   1.651   7.983   1.489
  144TIP3    H2  378   1.744   7.865   1.508
  145TIP3   OH2  379   4.006   0.432   1.697
  145TIP3    H1  380   4.045   0.510   1.658
  145TIP3    H2  381   4.069   0.405   1.764
  146TIP3   OH2  382   4.369   0.136   1.667
  146TIP3    H1  383   4.344   0.136   1.760
  146TIP3    H2  384   4.463   0.117   1.668
  147TIP3   OH2  385   4.608   0.676   1.662
  147TIP3    H1  386   4.524   0.630   1.654
  147TIP3    H2  387   4.603   0.746   1.597
  148TIP3   OH2  388   3.450   0.332   1.827
  148TIP3    H1  389   3.489   0.285   1.901
  148TIP3    H2  390   3.442   0.422   1.858
  149TIP3   OH2  391   1.503   7.622   1.931
  149TIP3    H1  392   1.475   7.683   2.000
  149TIP3    H2  393   1.580   7.579   1.966
  150TIP3   OH2  394   4.655   0.650   1.271
  150TIP3    H1  395   4.624   0.694   1.193
  150TIP3    H2  396   4.748   0.673   1.277
  151TIP3   OH2  397   3.392   0.635   2.239
  151TIP3    H1  398   3.473   0.643   2.290
  151TIP3    H2  399   3.364   0.545   2.254
  152TIP3   OH2  400   3.867   0.619   2.282
  152TIP3    H1  401   3.961   0.605   2.295
  152TIP3    H2  402   3.843   0.558   2.212
  153TIP3   OH2  403   4.500   0.551   2.038
  153TIP3    H1  404   4.513   0.480   2.101
  153TIP3    H2  405   4.575   0.610   2.052
  154TIP3   OH2  406   3.505   0.092   2.417
  154TIP3    H1  407   3.537   0.002   2.423
  154TIP3    H2  408   3.420   0.084   2.374
  155TIP3   OH2  409   4.129   0.182   2.204
  155TIP3    H1  410   4.077   0.199   2.125
  155TIP3    H2  411   4.162   0.094   2.193
  156TIP3   OH2  412   4.607   0.203   1.817
  156TIP3    H1  413   4.687   0.241   1.781
  156TIP3    H2  414   4.543   0.274   1.812
  157TIP3   OH2  415   0.805   7.865   2.416
  157TIP3    H1  416   0.875   7.829   2.362
  157TIP3    H2  417   0.847   7.886   2.499
  158TIP3   OH2  418   1.099   7.718   2.062
  158TIP3    H1  419   1.029   7.782   2.075
  158TIP3    H2  420   1.160   7.761   2.002
  159TIP3   OH2  421   4.478   0.103   2.160
  159TIP3    H1  422   4.552   0.071   2.109
  159TIP3    H2  423   4.475   0.047   2.237
  160TIP3   OH2  424   1.249   7.512   2.163
  160TIP3    H1  425   1.263   7.463   2.082
  160TIP3    H2  426   1.207   7.593   2.135
  161TIP3   OH2  427   1.289   7.858   1.916
  161TIP3    H1  428   1.371   7.864   1.868
  161TIP3    H2  429   1.230   7.920   1.873
  162TIP3   OH2  430   1.862   7.767   2.172
  162TIP3    H1  431   1.856   7.762   2.268
  162TIP3    H2  432   1.923   7.838   2.155
  163TIP3   OH2  433   4.733   0.049   1.997
  163TIP3    H1  434   4.681   0.106   1.940
  163TIP3    H2  435   4.821   0.052   1.961
  164TIP3   OH2  436   1.129   7.667   2.430
  164TIP3    H1  437   1.057   7.629   2.379
  164TIP3    H2  438   1.204   7.610   2.411
  165TIP3   OH2  439   1.513   7.582   2.226
  165TIP3    H1  440   1.539   7.558   2.315
  165TIP3    H2  441   1.424   7.547   2.217
  166TIP3   OH2  442   4.912   0.736   1.257
  166TIP3    H1  443   4.935   0.742   1.350
  166TIP3    H2  444   4.912   0.826   1.226
  167TIP3   OH2  445   4.924   0.738   1.529
  167TIP3    H1  446   4.872   0.657   1.528
  167TIP3    H2  447   4.992   0.722   1.595
  168TIP3   OH2  448   4.954   0.432   2.075
  168TIP3    H1  449   4.882   0.441   2.137
  168TIP3    H2  450   5.000   0.516   2.079
  169TIP3   OH2  451   4.963   0.205   1.316
  169TIP3    H1  452   4.949   0.174   1.227
  169TIP3    H2  453   4.969   0.300   1.308
  170TIP3   OH2  454   4.779   0.502   1.531
  170TIP3    H1  455   4.706   0.547   1.573
  170TIP3    H2  456   4.738   0.452   1.460
  171TIP3   OH2  457   4.993   0.060   1.885
  171TIP3    H1  458   5.069   0.002   1.877
  171TIP3    H2  459   4.988   0.104   1.800
  172TIP3   OH2  460   2.377   7.887   1.969
  172TIP3    H1  461   2.306   7.830   1.936
  172TIP3    H2  462   2.456   7.833   1.960
  173TIP3   OH2  463   0.638   7.392   2.503
  173TIP3    H1  464   0.671   7.325   2.443
  173TIP3    H2  465   0.615   7.343   2.582
  174TIP3   OH2  466   4.538   0.551   1.030
  174TIP3    H1  467   4.590   0.499   0.969
  174TIP3    H2  468   4.504   0.624   0.977
  175TIP3   OH2  469   3.574   0.384   2.275
  175TIP3    H1  470   3.479   0.370   2.281
  175TIP3    H2  471   3.593   0.452   2.338
  176TIP3   OH2  472   3.750   0.427   1.797
  176TIP3    H1  473   3.711   0.515   1.786
  176TIP3    H2  474   3.843   0.440   1.779
  177TIP3   OH2  475   4.169   0.673   1.942
  177TIP3    H1  476   4.206   0.676   2.030
  177TIP3    H2  477   4.229   0.726   1.890
  178TIP3   OH2  478   4.352   0.835   1.816
  178TIP3    H1  479   4.412   0.797   1.752
  178TIP3    H2  480   4.407   0.891   1.870
  179TIP3   OH2  481   3.448   0.581   1.945
  179TIP3    H1  482   3.409   0.630   1.873
  179TIP3    H2  483   3.425   0.631   2.023
  180TIP3   OH2  484   3.667   0.676   1.739
  180TIP3    H1  485   3.575   0.678   1.764
  180TIP3    H2  486   3.668   0.700   1.647
  181TIP3   OH2  487   4.100   0.657   1.585
  181TIP3    H1  488   4.044   0.666   1.509
  181TIP3    H2  489   4.112   0.747   1.617
  182TIP3   OH2  490   4.366   0.607   1.560
  182TIP3    H1  491   4.273   0.617   1.581
  182TIP3    H2  492   4.371   0.622   1.466
  183TIP3   OH2  493   4.582   0.854   1.453
  183TIP3    H1  494   4.548   0.934   1.413
  183TIP3    H2  495   4.591   0.792   1.381
  184TIP3   OH2  496   3.313   0.436   1.520
  184TIP3    H1  497   3.242   0.500   1.523
  184TIP3    H2  498   3.270   0.353   1.498
  185TIP3   OH2  499   4.819   0.711   1.841
  185TIP3    H1  500   4.746   0.682   1.786
  185TIP3    H2  501   4.807   0.805   1.848
  186TIP3   OH2  502   5.567   0.445   1.333
  186TIP3    H1  503   5.552   0.532   1.296
  186TIP3    H2  504   5.488   0.426   1.383
  187TIP3   OH2  505   5.770   0.542   1.494
  187TIP3    H1  506   5.706   0.604   1.529
  187TIP3    H2  507   5.721   0.491   1.429
  188TIP3   OH2  508   5.563   0.709   1.565
  188TIP3    H1  509   5.542   0.717   1.472
  188TIP3    H2  510   5.478   0.693   1.607
  189TIP3   OH2  511   5.147   0.242   1.530
  189TIP3    H1  512   5.087   0.216   1.460
  189TIP3    H2  513   5.172   0.159   1.571
  190TIP3   OH2  514   4.984   0.473   1.231
  190TIP3    H1  515   5.075   0.491   1.255
  190TIP3    H2  516   4.941   0.558   1.236
  191TIP3   OH2  517   5.931   0.716   1.328
  191TIP3    H1  518   5.941   0.798   1.376
  191TIP3    H2  519   5.890   0.656   1.391
  192TIP3   OH2  520   5.342   0.440   1.496
  192TIP3    H1  521   5.396   0.435   1.575
  192TIP3    H2  522   5.278   0.370   1.507
  193TIP3   OH2  523   6.520   1.240   1.359
  193TIP3    H1  524   6.535   1.199   1.274
  193TIP3    H2  525   6.603   1.283   1.379
  194TIP3   OH2  526   5.498   0.402   1.733
  194TIP3    H1  527   5.584   0.390   1.774
  194TIP3    H2  528   5.435   0.387   1.805
  195TIP3   OH2  529   5.224   0.029   1.685
  195TIP3    H1  530   5.282   0.066   1.751
  195TIP3    H2  531   5.261  -0.057   1.665
  196TIP3   OH2  532   5.748   0.758   1.129
  196TIP3    H1  533   5.779   0.820   1.062
  196TIP3    H2  534   5.825   0.742   1.184
  197TIP3   OH2  535   5.211   0.621   1.316
  197TIP3    H1  536   5.263   0.564   1.372
  197TIP3    H2  537   5.230   0.709   1.347
  198TIP3   OH2  538   5.209   0.947   1.720
  198TIP3    H1  539   5.291   0.958   1.769
  198TIP3    H2  540   5.203   0.853   1.705
  199TIP3   OH2  541   5.669   0.851   1.774
  199TIP3    H1  542   5.764   0.840   1.765
  199TIP3    H2  543   5.631   0.806   1.699
  200TIP3   OH2  544   6.282   0.834   1.549
  200TIP3    H1  545   6.294   0.746   1.586
  200TIP3    H2  546   6.370   0.872   1.551
  201TIP3   OH2  547   5.305   0.366   1.930
  201TIP3    H1  548   5.321   0.272   1.933
  201TIP3    H2  549   5.222   0.375   1.883
  202TIP3   OH2  550   5.922   0.436   1.689
  202TIP3    H1  551   5.869   0.469   1.617
  202TIP3    H2  552   5.970   0.362   1.652
  203TIP3   OH2  553   5.367   0.098   1.914
  203TIP3    H1  554   5.318   0.023   1.947
  203TIP3    H2  555   5.428   0.120   1.985
  204TIP3   OH2  556   4.746   0.744   0.828
  204TIP3    H1  557   4.804   0.734   0.752
  204TIP3    H2  558   4.790   0.697   0.898
  205TIP3   OH2  559   4.934   0.571   0.949
  205TIP3    H1  560   4.935   0.493   1.004
  205TIP3    H2  561   5.000   0.629   0.987
  206TIP3   OH2  562   5.336   0.681   1.722
  206TIP3    H1  563   5.244   0.657   1.726
  206TIP3    H2  564   5.375   0.641   1.800
  207TIP3   OH2  565   5.532   0.719   1.288
  207TIP3    H1  566   5.485   0.797   1.260
  207TIP3    H2  567   5.613   0.720   1.235
  208TIP3   OH2  568   5.954   0.965   1.456
  208TIP3    H1  569   6.001   0.962   1.539
  208TIP3    H2  570   6.014   1.008   1.396
  209TIP3   OH2  571   6.128   1.105   1.292
  209TIP3    H1  572   6.197   1.070   1.236
  209TIP3    H2  573   6.174   1.158   1.357
  210TIP3   OH2  574   5.195   0.948   1.333
  210TIP3    H1  575   5.104   0.966   1.309
  210TIP3    H2  576   5.217   1.015   1.397
  211TIP3   OH2  577   5.428   0.950   1.187
  211TIP3    H1  578   5.343   0.954   1.231
  211TIP3    H2  579   5.410   0.977   1.097
  212TIP3   OH2  580   5.825   0.962   0.954
  212TIP3    H1  581   5.753   1.006   0.908
  212TIP3    H2  582   5.867   1.031   1.005
  213TIP3   OH2  583   5.149   0.720   1.049
  213TIP3    H1  584   5.144   0.704   1.143
  213TIP3    H2  585   5.240   0.700   1.026
  214TIP3   OH2  586   0.813   2.315   2.500
  214TIP3    H1  587   0.835   2.327   2.408
  214TIP3    H2  588   0.898   2.315   2.545
  215TIP3   OH2  589   0.968   1.751   2.741
  215TIP3    H1  590   0.925   1.738   2.825
  215TIP3    H2  591   1.042   1.809   2.760
  216TIP3   OH2  592   2.408   1.649   1.439
  216TIP3    H1  593   2.313   1.655   1.453
  216TIP3    H2  594   2.446   1.707   1.506
  217TIP3   OH2  595   2.036   2.061   1.374
  217TIP3    H1  596   2.056   2.007   1.297
  217TIP3    H2  597   2.006   1.999   1.440
  218TIP3   OH2  598   2.970   0.931   1.742
  218TIP3    H1  599   2.988   1.009   1.795
  218TIP3    H2  600   3.052   0.916   1.694
  219TIP3   OH2  601   3.037   1.172   1.881
  219TIP3    H1  602   2.953   1.219   1.879
  219TIP3    H2  603   3.080   1.204   1.960
  220TIP3   OH2  604   2.461   1.867   1.590
  220TIP3    H1  605   2.373   1.892   1.617
  220TIP3    H2  606   2.481   1.926   1.517
  221TIP3   OH2  607   2.672   1.876   1.872
  221TIP3    H1  608   2.684   1.802   1.813
  221TIP3    H2  609   2.761   1.912   1.883
  222TIP3   OH2  610   2.870   1.463   1.709
  222TIP3    H1  611   2.822   1.544   1.726
  222TIP3    H2  612   2.879   1.459   1.614
  223TIP3   OH2  613   2.566   1.346   2.021
  223TIP3    H1  614   2.565   1.435   2.054
  223TIP3    H2  615   2.481   1.335   1.979
  224TIP3   OH2  616   2.206   1.952   1.627
  224TIP3    H1  617   2.177   2.037   1.659
  224TIP3    H2  618   2.176   1.890   1.693
  225TIP3   OH2  619   1.804   1.839   2.168
  225TIP3    H1  620   1.746   1.902   2.212
  225TIP3    H2  621   1.745   1.772   2.134
  226TIP3   OH2  622   1.599   2.005   2.254
  226TIP3    H1  623   1.574   2.012   2.162
  226TIP3    H2  624   1.516   1.988   2.299
  227TIP3   OH2  625   2.923   2.216   1.882
  227TIP3    H1  626   2.961   2.133   1.911
  227TIP3    H2  627   2.841   2.223   1.930
  228TIP3   OH2  628   2.010   1.965   2.035
  228TIP3    H1  629   2.007   2.057   2.058
  228TIP3    H2  630   1.941   1.925   2.087
  229TIP3   OH2  631   2.799   1.303   2.179
  229TIP3    H1  632   2.719   1.317   2.128
  229TIP3    H2  633   2.821   1.211   2.166
  230TIP3   OH2  634   2.554   1.057   2.036
  230TIP3    H1  635   2.507   1.038   2.117
  230TIP3    H2  636   2.546   1.151   2.025
  231TIP3   OH2  637   2.302   1.331   2.329
  231TIP3    H1  638   2.275   1.255   2.381
  231TIP3    H2  639   2.397   1.328   2.329
  232TIP3   OH2  640   2.324   1.285   1.919
  232TIP3    H1  641   2.298   1.282   1.827
  232TIP3    H2  642   2.250   1.246   1.966
  233TIP3   OH2  643   2.620   2.543   1.983
  233TIP3    H1  644   2.617   2.559   1.889
  233TIP3    H2  645   2.700   2.588   2.012
  234TIP3   OH2  646   1.600   1.625   2.399
  234TIP3    H1  647   1.666   1.656   2.461
  234TIP3    H2  648   1.517   1.638   2.444
  235TIP3   OH2  649   2.702   1.675   1.692
  235TIP3    H1  650   2.714   1.718   1.608
  235TIP3    H2  651   2.632   1.612   1.678
  236TIP3   OH2  652   2.128   1.702   2.083
  236TIP3    H1  653   2.197   1.696   2.149
  236TIP3    H2  654   2.101   1.793   2.085
  237TIP3   OH2  655   2.060   1.465   2.333
  237TIP3    H1  656   2.004   1.437   2.262
  237TIP3    H2  657   2.145   1.424   2.314
  238TIP3   OH2  658   2.270   2.013   1.929
  238TIP3    H1  659   2.183   1.974   1.939
  238TIP3    H2  660   2.295   2.040   2.017
  239TIP3   OH2  661   2.525   1.475   1.655
  239TIP3    H1  662   2.432   1.496   1.662
  239TIP3    H2  663   2.530   1.380   1.662
  240TIP3   OH2  664   1.812   1.976   1.833
  240TIP3    H1  665   1.834   2.056   1.785
  240TIP3    H2  666   1.888   1.962   1.891
  241TIP3   OH2  667   2.161   1.745   1.810
  241TIP3    H1  668   2.150   1.716   1.901
  241TIP3    H2  669   2.204   1.671   1.766
  242TIP3   OH2  670   2.403   2.247   1.873
  242TIP3    H1  671   2.367   2.160   1.884
  242TIP3    H2  672   2.444   2.245   1.787
  243TIP3   OH2  673   2.186   1.164   2.132
  243TIP3    H1  674   2.233   1.231   2.183
  243TIP3    H2  675   2.246   1.090   2.130
  244TIP3   OH2  676   2.832   1.043   2.065
  244TIP3    H1  677   2.740   1.019   2.066
  244TIP3    H2  678   2.846   1.080   1.978
  245TIP3   OH2  679   2.469   2.248   1.507
  245TIP3    H1  680   2.495   2.307   1.437
  245TIP3    H2  681   2.539   2.182   1.511
  246TIP3   OH2  682   1.272   2.234   2.387
  246TIP3    H1  683   1.347   2.252   2.443
  246TIP3    H2  684   1.274   2.139   2.375
  247TIP3   OH2  685   1.725   2.173   2.431
  247TIP3    H1  686   1.814   2.140   2.440
  247TIP3    H2  687   1.683   2.117   2.367
  248TIP3   OH2  688   2.334   2.105   2.176
  248TIP3    H1  689   2.342   2.033   2.240
  248TIP3    H2  690   2.412   2.159   2.192
  249TIP3   OH2  691   1.373   1.622   2.556
  249TIP3    H1  692   1.338   1.533   2.558
  249TIP3    H2  693   1.355   1.658   2.643
  250TIP3   OH2  694   1.976   1.736   2.361
  250TIP3    H1  695   1.925   1.756   2.283
  250TIP3    H2  696   2.017   1.651   2.343
  251TIP3   OH2  697   2.436   1.776   1.972
  251TIP3    H1  698   2.517   1.816   1.939
  251TIP3    H2  699   2.366   1.827   1.931
  252TIP3   OH2  700   1.511   1.354   2.586
  252TIP3    H1  701   1.537   1.408   2.512
  252TIP3    H2  702   1.531   1.408   2.663
  253TIP3   OH2  703   2.331   1.655   2.289
  253TIP3    H1  704   2.410   1.645   2.236
  253TIP3    H2  705   2.320   1.571   2.333
  254TIP3   OH2  706   2.572   1.331   2.392
  254TIP3    H1  707   2.625   1.252   2.388
  254TIP3    H2  708   2.634   1.402   2.373
  255TIP3   OH2  709   2.575   1.606   2.128
  255TIP3    H1  710   2.520   1.661   2.073
  255TIP3    H2  711   2.664   1.625   2.099
  256TIP3   OH2  712   1.793   1.123   2.641
  256TIP3    H1  713   1.727   1.138   2.709
  256TIP3    H2  714   1.743   1.119   2.559
  257TIP3   OH2  715   2.199   1.102   2.452
  257TIP3    H1  716   2.162   1.080   2.537
  257TIP3    H2  717   2.128   1.086   2.390
  258TIP3   OH2  718   2.423   1.044   2.283
  258TIP3    H1  719   2.351   1.043   2.346
  258TIP3    H2  720   2.500   1.020   2.334
  259TIP3   OH2  721   2.629   1.001   2.458
  259TIP3    H1  722   2.658   0.911   2.469
  259TIP3    H2  723   2.659   1.046   2.537
  260TIP3   OH2  724   2.226   0.812   2.651
  260TIP3    H1  725   2.239   0.768   2.566
  260TIP3    H2  726   2.149   0.867   2.637
  261TIP3   OH2  727   2.734   2.303   1.390
  261TIP3    H1  728   2.747   2.309   1.485
  261TIP3    H2  729   2.809   2.349   1.352
  262TIP3   OH2  730   2.757   2.307   1.670
  262TIP3    H1  731   2.696   2.237   1.692
  262TIP3    H2  732   2.834   2.289   1.724
  263TIP3   OH2  733   2.787   1.985   2.249
  263TIP3    H1  734   2.720   2.003   2.315
  263TIP3    H2  735   2.836   2.067   2.242
  264TIP3   OH2  736   2.764   1.776   1.438
  264TIP3    H1  737   2.784   1.693   1.394
  264TIP3    H2  738   2.847   1.823   1.438
  265TIP3   OH2  739   2.595   2.097   1.731
  265TIP3    H1  740   2.598   2.028   1.798
  265TIP3    H2  741   2.608   2.050   1.649
  266TIP3   OH2  742   2.832   1.658   2.037
  266TIP3    H1  743   2.895   1.588   2.021
  266TIP3    H2  744   2.868   1.733   1.990
  267TIP3   OH2  745   2.993   1.439   2.036
  267TIP3    H1  746   2.929   1.392   2.089
  267TIP3    H2  747   3.078   1.406   2.065
  268TIP3   OH2  748   2.743   1.036   1.555
  268TIP3    H1  749   2.819   1.089   1.581
  268TIP3    H2  750   2.712   0.998   1.637
  269TIP3   OH2  751   2.779   1.261   1.863
  269TIP3    H1  752   2.697   1.285   1.907
  269TIP3    H2  753   2.801   1.337   1.811
  270TIP3   OH2  754   3.238   0.839   2.348
  270TIP3    H1  755   3.296   0.784   2.296
  270TIP3    H2  756   3.198   0.898   2.283
  271TIP3   OH2  757   3.085   0.987   2.172
  271TIP3    H1  758   2.995   0.997   2.142
  271TIP3    H2  759   3.130   0.941   2.101
  272TIP3   OH2  760   2.180   2.274   0.845
  272TIP3    H1  761   2.275   2.269   0.854
  272TIP3    H2  762   2.146   2.238   0.926
  273TIP3   OH2  763   1.363   1.954   2.404
  273TIP3    H1  764   1.337   1.864   2.385
  273TIP3    H2  765   1.373   1.956   2.499
  274TIP3   OH2  766   1.574   2.014   1.978
  274TIP3    H1  767   1.528   2.072   1.917
  274TIP3    H2  768   1.655   1.991   1.933
  275TIP3   OH2  769   2.005   2.242   2.087
  275TIP3    H1  770   2.035   2.231   2.177
  275TIP3    H2  771   2.073   2.295   2.045
  276TIP3   OH2  772   2.201   2.400   1.975
  276TIP3    H1  773   2.274   2.350   1.938
  276TIP3    H2  774   2.243   2.465   2.031
  277TIP3   OH2  775   2.930   0.710   2.103
  277TIP3    H1  776   2.946   0.774   2.034
  277TIP3    H2  777   2.977   0.632   2.073
  278TIP3   OH2  778   1.252   2.309   1.970
  278TIP3    H1  779   1.161   2.287   1.992
  278TIP3    H2  780   1.283   2.360   2.044
  279TIP3   OH2  781   1.481   2.264   1.822
  279TIP3    H1  782   1.411   2.276   1.886
  279TIP3    H2  783   1.442   2.286   1.738
  280TIP3   OH2  784   1.838   2.211   1.697
  280TIP3    H1  785   1.912   2.246   1.648
  280TIP3    H2  786   1.814   2.281   1.757
  281TIP3   OH2  787   2.154   2.225   1.694
  281TIP3    H1  788   2.125   2.226   1.785
  281TIP3    H2  789   2.218   2.296   1.689
  282TIP3   OH2  790   2.331   2.435   1.644
  282TIP3    H1  791   2.342   2.520   1.602
  282TIP3    H2  792   2.384   2.375   1.592
  283TIP3   OH2  793   2.736   0.748   2.492
  283TIP3    H1  794   2.745   0.711   2.580
  283TIP3    H2  795   2.822   0.735   2.452
  284TIP3   OH2  796   2.669   2.270   1.989
  284TIP3    H1  797   2.588   2.238   1.950
  284TIP3    H2  798   2.655   2.364   1.999
  285TIP3   OH2  799   3.995   1.702   0.857
  285TIP3    H1  800   3.958   1.784   0.825
  285TIP3    H2  801   3.919   1.645   0.873
  286TIP3   OH2  802   3.889   1.631   1.188
  286TIP3    H1  803   3.970   1.647   1.237
  286TIP3    H2  804   3.840   1.569   1.242
  287TIP3   OH2  805   3.285   1.640   1.543
  287TIP3    H1  806   3.236   1.558   1.536
  287TIP3    H2  807   3.361   1.628   1.486
  288TIP3   OH2  808   4.212   1.951   0.835
  288TIP3    H1  809   4.198   1.891   0.908
  288TIP3    H2  810   4.231   2.035   0.876
  289TIP3   OH2  811   3.182   1.964   1.289
  289TIP3    H1  812   3.167   1.912   1.209
  289TIP3    H2  813   3.267   1.934   1.321
  290TIP3   OH2  814   3.018   1.393   1.156
  290TIP3    H1  815   3.080   1.322   1.141
  290TIP3    H2  816   2.993   1.423   1.068
  291TIP3   OH2  817   3.825   2.401   0.851
  291TIP3    H1  818   3.879   2.344   0.797
  291TIP3    H2  819   3.826   2.361   0.938
  292TIP3   OH2  820   3.741   1.872   1.163
  292TIP3    H1  821   3.777   1.784   1.151
  292TIP3    H2  822   3.816   1.924   1.191
  293TIP3   OH2  823   4.767   1.193   1.165
  293TIP3    H1  824   4.784   1.273   1.215
  293TIP3    H2  825   4.798   1.213   1.077
  294TIP3   OH2  826   4.186   1.387   1.193
  294TIP3    H1  827   4.217   1.299   1.215
  294TIP3    H2  828   4.123   1.374   1.123
  295TIP3   OH2  829   4.270   1.150   0.840
  295TIP3    H1  830   4.330   1.144   0.915
  295TIP3    H2  831   4.322   1.190   0.771
  296TIP3   OH2  832   3.159   1.171   1.257
  296TIP3    H1  833   3.234   1.114   1.267
  296TIP3    H2  834   3.091   1.117   1.217
  297TIP3   OH2  835   3.615   1.456   1.117
  297TIP3    H1  836   3.685   1.425   1.174
  297TIP3    H2  837   3.559   1.380   1.103
  298TIP3   OH2  838   4.827   1.405   1.341
  298TIP3    H1  839   4.739   1.442   1.336
  298TIP3    H2  840   4.863   1.438   1.423
  299TIP3   OH2  841   3.471   1.004   1.634
  299TIP3    H1  842   3.414   0.934   1.602
  299TIP3    H2  843   3.419   1.050   1.700
  300TIP3   OH2  844   3.851   1.896   0.731
  300TIP3    H1  845   3.927   1.925   0.680
  300TIP3    H2  846   3.790   1.970   0.727
  301TIP3   OH2  847   3.610   1.825   1.413
  301TIP3    H1  848   3.532   1.877   1.435
  301TIP3    H2  849   3.639   1.861   1.329
  302TIP3   OH2  850   4.428   1.140   1.054
  302TIP3    H1  851   4.369   1.131   1.128
  302TIP3    H2  852   4.469   1.226   1.066
  303TIP3   OH2  853   3.369   1.024   1.338
  303TIP3    H1  854   3.367   1.090   1.408
  303TIP3    H2  855   3.436   1.055   1.278
  304TIP3   OH2  856   3.397   1.987   1.498
  304TIP3    H1  857   3.385   2.078   1.471
  304TIP3    H2  858   3.323   1.970   1.557
  305TIP3   OH2  859   4.236   2.200   0.958
  305TIP3    H1  860   4.149   2.190   0.997
  305TIP3    H2  861   4.232   2.284   0.913
  306TIP3   OH2  862   4.550   1.105   1.341
  306TIP3    H1  863   4.461   1.122   1.311
  306TIP3    H2  864   4.604   1.120   1.263
  307TIP3   OH2  865   3.941   0.779   1.397
  307TIP3    H1  866   3.953   0.701   1.342
  307TIP3    H2  867   3.854   0.769   1.435
  308TIP3   OH2  868   3.972   2.256   0.674
  308TIP3    H1  869   4.005   2.167   0.660
  308TIP3    H2  870   4.029   2.312   0.622
  309TIP3   OH2  871   4.069   2.008   0.613
  309TIP3    H1  872   4.117   1.989   0.532
  309TIP3    H2  873   4.129   1.983   0.683
  310TIP3   OH2  874   4.472   2.094   1.311
  310TIP3    H1  875   4.457   2.019   1.255
  310TIP3    H2  876   4.456   2.170   1.255
  311TIP3   OH2  877   3.724   1.525   0.578
  311TIP3    H1  878   3.639   1.561   0.555
  311TIP3    H2  879   3.781   1.551   0.505
  312TIP3   OH2  880   4.654   1.749   1.169
  312TIP3    H1  881   4.570   1.794   1.170
  312TIP3    H2  882   4.686   1.759   1.079
  313TIP3   OH2  883   4.165   1.609   0.651
  313TIP3    H1  884   4.122   1.633   0.733
  313TIP3    H2  885   4.255   1.587   0.676
  314TIP3   OH2  886   4.355   1.611   1.481
  314TIP3    H1  887   4.352   1.692   1.532
  314TIP3    H2  888   4.275   1.613   1.429
  315TIP3   OH2  889   3.271   1.546   0.931
  315TIP3    H1  890   3.267   1.515   0.841
  315TIP3    H2  891   3.290   1.468   0.982
  316TIP3   OH2  892   3.547   2.023   1.033
  316TIP3    H1  893   3.472   1.963   1.040
  316TIP3    H2  894   3.618   1.977   1.077
  317TIP3   OH2  895   3.497   1.581   1.368
  317TIP3    H1  896   3.535   1.544   1.288
  317TIP3    H2  897   3.540   1.666   1.379
  318TIP3   OH2  898   3.999   2.184   1.090
  318TIP3    H1  899   3.989   2.264   1.141
  318TIP3    H2  900   3.989   2.113   1.155
  319TIP3   OH2  901   3.620   2.087   1.636
  319TIP3    H1  902   3.564   2.151   1.681
  319TIP3    H2  903   3.559   2.029   1.591
  320TIP3   OH2  904   3.948   1.474   0.389
  320TIP3    H1  905   3.970   1.564   0.415
  320TIP3    H2  906   3.978   1.468   0.299
  321TIP3   OH2  907   3.393   1.684   1.805
  321TIP3    H1  908   3.354   1.760   1.849
  321TIP3    H2  909   3.341   1.673   1.725
  322TIP3   OH2  910   3.735   2.118   0.628
  322TIP3    H1  911   3.800   2.187   0.640
  322TIP3    H2  912   3.657   2.150   0.674
  323TIP3   OH2  913   3.425   2.266   1.708
  323TIP3    H1  914   3.398   2.270   1.617
  323TIP3    H2  915   3.344   2.255   1.757
  324TIP3   OH2  916   7.124   6.073   6.918
  324TIP3    H1  917   7.130   6.164   6.890
  324TIP3    H2  918   7.214   6.041   6.918
  325TIP3   OH2  919   2.992   1.785   1.660
  325TIP3    H1  920   2.994   1.737   1.578
  325TIP3    H2  921   3.034   1.726   1.723
  326TIP3   OH2  922   2.923   2.010   1.371
  326TIP3    H1  923   3.004   1.971   1.339
  326TIP3    H2  924   2.951   2.085   1.424
  327TIP3   OH2  925   4.703   2.452   1.368
  327TIP3    H1  926   4.709   2.358   1.381
  327TIP3    H2  927   4.623   2.477   1.415
  328TIP3   OH2  928   3.808   2.228   1.497
  328TIP3    H1  929   3.803   2.318   1.529
  328TIP3    H2  930   3.742   2.181   1.548
  329TIP3   OH2  931   3.683   2.416   0.507
  329TIP3    H1  932   3.630   2.339   0.488
  329TIP3    H2  933   3.620   2.487   0.517
  330TIP3   OH2  934   3.005   2.269   0.759
  330TIP3    H1  935   3.013   2.193   0.817
  330TIP3    H2  936   2.929   2.249   0.705
  331TIP3   OH2  937   3.781   2.293   0.108
  331TIP3    H1  938   3.838   2.225   0.071
  331TIP3    H2  939   3.814   2.306   0.197
  332TIP3   OH2  940   3.887   2.315   0.361
  332TIP3    H1  941   3.822   2.347   0.423
  332TIP3    H2  942   3.970   2.320   0.409
  333TIP3   OH2  943   4.595   1.558   1.639
  333TIP3    H1  944   4.512   1.571   1.592
  333TIP3    H2  945   4.613   1.464   1.631
  334TIP3   OH2  946   3.169   1.992   1.663
  334TIP3    H1  947   3.174   2.002   1.758
  334TIP3    H2  948   3.105   1.922   1.649
  335TIP3   OH2  949   3.690   0.819   1.506
  335TIP3    H1  950   3.603   0.803   1.470
  335TIP3    H2  951   3.678   0.893   1.565
  336TIP3   OH2  952   4.131   0.919   1.672
  336TIP3    H1  953   4.200   0.901   1.736
  336TIP3    H2  954   4.049   0.903   1.719
  337TIP3   OH2  955   4.353   1.342   1.569
  337TIP3    H1  956   4.313   1.340   1.656
  337TIP3    H2  957   4.333   1.430   1.536
  338TIP3   OH2  958   4.048   1.477   0.128
  338TIP3    H1  959   3.987   1.412   0.095
  338TIP3    H2  960   4.057   1.540   0.057
  339TIP3   OH2  961   3.603   1.408   1.573
  339TIP3    H1  962   3.522   1.390   1.621
  339TIP3    H2  963   3.574   1.459   1.497
  340TIP3   OH2  964   3.376   1.216   0.869
  340TIP3    H1  965   3.428   1.178   0.939
  340TIP3    H2  966   3.440   1.259   0.811
  341TIP3   OH2  967   3.929   1.419   0.749
  341TIP3    H1  968   3.855   1.470   0.716
  341TIP3    H2  969   3.964   1.375   0.672
  342TIP3   OH2  970   4.083   1.564   1.806
  342TIP3    H1  971   4.052   1.494   1.864
  342TIP3    H2  972   4.176   1.573   1.827
  343TIP3   OH2  973   4.175   1.402   0.863
  343TIP3    H1  974   4.101   1.417   0.804
  343TIP3    H2  975   4.191   1.308   0.858
  344TIP3   OH2  976   3.372   1.360   1.706
  344TIP3    H1  977   3.329   1.428   1.759
  344TIP3    H2  978   3.347   1.278   1.748
  345TIP3   OH2  979   4.106   1.585   1.358
  345TIP3    H1  980   4.139   1.520   1.296
  345TIP3    H2  981   4.073   1.533   1.431
  346TIP3   OH2  982   4.249   1.129   1.261
  346TIP3    H1  983   4.223   1.132   1.353
  346TIP3    H2  984   4.184   1.072   1.220
  347TIP3   OH2  985   4.414   2.792   1.464
  347TIP3    H1  986   4.412   2.809   1.369
  347TIP3    H2  987   4.492   2.838   1.494
  348TIP3   OH2  988   3.810   1.369   1.275
  348TIP3    H1  989   3.882   1.336   1.220
  348TIP3    H2  990   3.813   1.314   1.353
  349TIP3   OH2  991   3.836   1.274   1.535
  349TIP3    H1  992   3.756   1.325   1.542
  349TIP3    H2  993   3.906   1.338   1.546
  350TIP3   OH2  994   3.463   1.611   0.515
  350TIP3    H1  995   3.392   1.546   0.523
  350TIP3    H2  996   3.454   1.665   0.593
  351TIP3   OH2  997   4.423   1.893   1.136
  351TIP3    H1  998   4.456   1.937   1.058
  351TIP3    H2  999   4.336   1.860   1.110
  352TIP3   OH2 1000   3.936   1.958   1.533
  352TIP3    H1 1001   3.976   1.950   1.620
  352TIP3    H2 1002   3.887   2.041   1.537
  353TIP3   OH2 1003   4.054   1.287   0.549
  353TIP3    H1 1004   4.129   1.244   0.509
  353TIP3    H2 1005   4.029   1.356   0.487
  354TIP3   OH2 1006   3.210   1.640   1.181
  354TIP3    H1 1007   3.212   1.618   1.088
  354TIP3    H2 1008   3.239   1.560   1.225
  355TIP3   OH2 1009   3.655   1.657   0.313
  355TIP3    H1 1010   3.649   1.727   0.378
  355TIP3    H2 1011   3.592   1.591   0.343
  356TIP3   OH2 1012   3.113   1.584   1.818
  356TIP3    H1 1013   3.154   1.592   1.904
  356TIP3    H2 1014   3.041   1.522   1.831
  357TIP3   OH2 1015   3.865   1.734   1.832
  357TIP3    H1 1016   3.789   1.679   1.812
  357TIP3    H2 1017   3.940   1.681   1.807
  358TIP3   OH2 1018   4.078   2.248   1.417
  358TIP3    H1 1019   3.984   2.232   1.424
  358TIP3    H2 1020   4.103   2.285   1.501
  359TIP3   OH2 1021   4.476   1.311   0.240
  359TIP3    H1 1022   4.396   1.278   0.199
  359TIP3    H2 1023   4.473   1.405   0.224
  360TIP3   OH2 1024   4.720   2.173   1.393
  360TIP3    H1 1025   4.626   2.158   1.392
  360TIP3    H2 1026   4.751   2.140   1.309
  361TIP3   OH2 1027   4.213   2.157   0.226
  361TIP3    H1 1028   4.202   2.085   0.288
  361TIP3    H2 1029   4.227   2.114   0.141
  362TIP3   OH2 1030   4.180   1.777   1.054
  362TIP3    H1 1031   4.099   1.750   1.012
  362TIP3    H2 1032   4.239   1.702   1.041
  363TIP3   OH2 1033   3.315   1.918   0.887
  363TIP3    H1 1034   3.273   2.003   0.876
  363TIP3    H2 1035   3.258   1.870   0.947
  364TIP3   OH2 1036   3.489   1.764   0.740
  364TIP3    H1 1037   3.423   1.830   0.763
  364TIP3    H2 1038   3.513   1.724   0.824
  365TIP3   OH2 1039   3.628   2.313   1.299
  365TIP3    H1 1040   3.668   2.389   1.258
  365TIP3    H2 1041   3.698   2.275   1.353
  366TIP3   OH2 1042   3.257   2.275   0.660
  366TIP3    H1 1043   3.173   2.279   0.706
  366TIP3    H2 1044   3.304   2.353   0.690
  367TIP3   OH2 1045   3.985   1.961   1.260
  367TIP3    H1 1046   3.976   1.954   1.355
  367TIP3    H2 1047   4.062   1.908   1.240
  368TIP3   OH2 1048   4.041   1.847   0.078
  368TIP3    H1 1049   4.076   1.804   0.156
  368TIP3    H2 1050   3.947   1.853   0.093
  369TIP3   OH2 1051   4.230   2.466   1.303
  369TIP3    H1 1052   4.159   2.403   1.318
  369TIP3    H2 1053   4.199   2.521   1.232
  370TIP3   OH2 1054   7.127   6.343   6.880
  370TIP3    H1 1055   7.180   6.421   6.869
  370TIP3    H2 1056   7.040   6.376   6.903
  371TIP3   OH2 1057   3.301   1.111   1.824
  371TIP3    H1 1058   3.210   1.138   1.832
  371TIP3    H2 1059   3.306   1.029   1.873
  372TIP3   OH2 1060   4.200   1.937   0.384
  372TIP3    H1 1061   4.139   1.872   0.349
  372TIP3    H2 1062   4.286   1.896   0.377
  373TIP3   OH2 1063   3.054   2.204   1.519
  373TIP3    H1 1064   3.097   2.131   1.562
  373TIP3    H2 1065   3.074   2.280   1.575
  374TIP3   OH2 1066   3.256   1.753   0.334
  374TIP3    H1 1067   3.256   1.744   0.429
  374TIP3    H2 1068   3.348   1.761   0.310
  375TIP3   OH2 1069   4.155   1.146   1.519
  375TIP3    H1 1070   4.236   1.187   1.552
  375TIP3    H2 1071   4.149   1.064   1.567
  376TIP3   OH2 1072   3.999   0.811   0.646
  376TIP3    H1 1073   3.950   0.807   0.563
  376TIP3    H2 1074   4.037   0.898   0.647
  377TIP3   OH2 1075   3.538   2.190   0.428
  377TIP3    H1 1076   3.492   2.115   0.467
  377TIP3    H2 1077   3.615   2.152   0.386
  378TIP3   OH2 1078   3.614   1.107   0.747
  378TIP3    H1 1079   3.680   1.167   0.781
  378TIP3    H2 1080   3.608   1.038   0.814
  379TIP3   OH2 1081   4.058   1.423   1.572
  379TIP3    H1 1082   4.065   1.470   1.655
  379TIP3    H2 1083   4.097   1.337   1.589
  380TIP3   OH2 1084   3.935   0.829   0.926
  380TIP3    H1 1085   3.843   0.849   0.947
  380TIP3    H2 1086   3.937   0.823   0.831
  381TIP3   OH2 1087   3.218   2.166   0.417
  381TIP3    H1 1088   3.222   2.208   0.331
  381TIP3    H2 1089   3.244   2.235   0.478
  382TIP3   OH2 1090   4.614   1.282   1.552
  382TIP3    H1 1091   4.521   1.297   1.565
  382TIP3    H2 1092   4.620   1.223   1.477
  383TIP3   OH2 1093   4.344   1.567   0.988
  383TIP3    H1 1094   4.274   1.510   0.956
  383TIP3    H2 1095   4.401   1.509   1.039
  384TIP3   OH2 1096   4.254   2.466   0.874
  384TIP3    H1 1097   4.212   2.515   0.803
  384TIP3    H2 1098   4.348   2.477   0.859
  385TIP3   OH2 1099   3.125   0.624   1.511
  385TIP3    H1 1100   3.130   0.683   1.435
  385TIP3    H2 1101   3.114   0.683   1.586
  386TIP3   OH2 1102   2.971   1.907   0.799
  386TIP3    H1 1103   2.899   1.954   0.842
  386TIP3    H2 1104   2.928   1.832   0.757
  387TIP3   OH2 1105   3.037   2.498   1.877
  387TIP3    H1 1106   3.123   2.496   1.920
  387TIP3    H2 1107   3.006   2.408   1.883
  388TIP3   OH2 1108   3.516   2.427   1.912
  388TIP3    H1 1109   3.605   2.396   1.929
  388TIP3    H2 1110   3.487   2.374   1.837
  389TIP3   OH2 1111   3.495   1.934   0.006
  389TIP3    H1 1112   3.479   1.916   0.099
  389TIP3    H2 1113   3.441   1.870  -0.041
  390TIP3   OH2 1114   4.135   2.351   1.665
  390TIP3    H1 1115   4.146   2.282   1.730
  390TIP3    H2 1116   4.208   2.411   1.680
  391TIP3   OH2 1117   6.788   6.114   6.953
  391TIP3    H1 1118   6.845   6.040   6.975
  391TIP3    H2 1119   6.798   6.124   6.858
  392TIP3   OH2 1120   3.775   1.994   1.845
  392TIP3    H1 1121   3.725   2.007   1.764
  392TIP3    H2 1122   3.813   1.907   1.836
  393TIP3   OH2 1123   3.537   1.654   0.059
  393TIP3    H1 1124   3.571   1.656   0.148
  393TIP3    H2 1125   3.599   1.600   0.010
  394TIP3   OH2 1126   4.247   2.022   1.456
  394TIP3    H1 1127   4.325   2.055   1.411
  394TIP3    H2 1128   4.180   2.088   1.439
  395TIP3   OH2 1129   3.289   1.566   2.062
  395TIP3    H1 1130   3.359   1.593   2.003
  395TIP3    H2 1131   3.292   1.630   2.133
  396TIP3   OH2 1132   3.649   1.582   1.778
  396TIP3    H1 1133   3.562   1.618   1.793
  396TIP3    H2 1134   3.648   1.557   1.685
  397TIP3   OH2 1135   4.135   1.907   1.820
  397TIP3    H1 1136   4.197   1.861   1.763
  397TIP3    H2 1137   4.122   1.848   1.895
  398TIP3   OH2 1138   7.238   5.695   6.880
  398TIP3    H1 1139   7.264   5.654   6.798
  398TIP3    H2 1140   7.143   5.690   6.880
  399TIP3   OH2 1141   3.743   1.319   1.844
  399TIP3    H1 1142   3.730   1.240   1.792
  399TIP3    H2 1143   3.707   1.389   1.791
  400TIP3   OH2 1144   3.733   1.068   1.687
  400TIP3    H1 1145   3.761   1.134   1.623
  400TIP3    H2 1146   3.638   1.067   1.680
  401TIP3   OH2 1147   3.794   1.640   1.500
  401TIP3    H1 1148   3.876   1.687   1.515
  401TIP3    H2 1149   3.730   1.709   1.481
  402TIP3   OH2 1150   4.350   1.588   1.889
  402TIP3    H1 1151   4.399   1.506   1.890
  402TIP3    H2 1152   4.415   1.656   1.875
  403TIP3   OH2 1153   4.370   1.850   1.625
  403TIP3    H1 1154   4.315   1.909   1.575
  403TIP3    H2 1155   4.459   1.866   1.593
  404TIP3   OH2 1156   3.625   1.407   2.083
  404TIP3    H1 1157   3.550   1.349   2.096
  404TIP3    H2 1158   3.651   1.393   1.992
  405TIP3   OH2 1159   3.880   0.852   1.756
  405TIP3    H1 1160   3.832   0.932   1.735
  405TIP3    H2 1161   3.813   0.783   1.752
  406TIP3   OH2 1162   3.997   1.343   1.944
  406TIP3    H1 1163   3.985   1.328   2.037
  406TIP3    H2 1164   3.911   1.330   1.905
  407TIP3   OH2 1165   4.235   1.295   1.806
  407TIP3    H1 1166   4.157   1.298   1.862
  407TIP3    H2 1167   4.306   1.272   1.866
  408TIP3   OH2 1168   4.472   1.257   1.955
  408TIP3    H1 1169   4.483   1.162   1.962
  408TIP3    H2 1170   4.466   1.287   2.045
  409TIP3   OH2 1171   3.443   1.215   2.159
  409TIP3    H1 1172   3.456   1.122   2.142
  409TIP3    H2 1173   3.465   1.227   2.251
  410TIP3   OH2 1174   3.955   0.837   2.012
  410TIP3    H1 1175   4.024   0.771   2.003
  410TIP3    H2 1176   3.921   0.848   1.923
  411TIP3   OH2 1177   4.027   1.065   2.145
  411TIP3    H1 1178   4.000   0.989   2.092
  411TIP3    H2 1179   3.952   1.124   2.143
  412TIP3   OH2 1180   3.234   2.353   0.212
  412TIP3    H1 1181   3.280   2.323   0.134
  412TIP3    H2 1182   3.144   2.370   0.182
  413TIP3   OH2 1183   2.444   2.214   0.811
  413TIP3    H1 1184   2.460   2.155   0.738
  413TIP3    H2 1185   2.489   2.173   0.885
  414TIP3   OH2 1186   2.810   2.276   1.089
  414TIP3    H1 1187   2.821   2.181   1.086
  414TIP3    H2 1188   2.868   2.306   1.159
  415TIP3   OH2 1189   4.527   2.511   0.865
  415TIP3    H1 1190   4.546   2.540   0.955
  415TIP3    H2 1191   4.581   2.568   0.810
  416TIP3   OH2 1192   4.546   2.545   1.145
  416TIP3    H1 1193   4.498   2.463   1.141
  416TIP3    H2 1194   4.616   2.529   1.209
  417TIP3   OH2 1195   4.597   2.243   1.715
  417TIP3    H1 1196   4.525   2.252   1.776
  417TIP3    H2 1197   4.643   2.328   1.719
  418TIP3   OH2 1198   4.426   1.782   0.346
  418TIP3    H1 1199   4.490   1.845   0.312
  418TIP3    H2 1200   4.473   1.737   0.417
  419TIP3   OH2 1201   4.567   1.646   0.533
  419TIP3    H1 1202   4.511   1.611   0.602
  419TIP3    H2 1203   4.643   1.683   0.579
  420TIP3   OH2 1204   4.596   2.020   0.959
  420TIP3    H1 1205   4.646   1.951   0.916
  420TIP3    H2 1206   4.596   2.092   0.897
  421TIP3   OH2 1207   4.403   2.308   1.152
  421TIP3    H1 1208   4.336   2.352   1.204
  421TIP3    H2 1209   4.355   2.266   1.080
  422TIP3   OH2 1210   4.510   1.579   0.167
  422TIP3    H1 1211   4.472   1.614   0.086
  422TIP3    H2 1212   4.479   1.638   0.236
  423TIP3   OH2 1213   4.238   1.186   0.133
  423TIP3    H1 1214   4.256   1.257   0.072
  423TIP3    H2 1215   4.143   1.186   0.144
  424TIP3   OH2 1216   4.417   1.524   0.720
  424TIP3    H1 1217   4.414   1.429   0.708
  424TIP3    H2 1218   4.408   1.537   0.814
  425TIP3   OH2 1219   3.049   1.704   1.401
  425TIP3    H1 1220   3.077   1.679   1.313
  425TIP3    H2 1221   3.129   1.703   1.453
  426TIP3   OH2 1222   4.625   1.896   1.526
  426TIP3    H1 1223   4.693   1.830   1.510
  426TIP3    H2 1224   4.636   1.960   1.456
  427TIP3   OH2 1225   4.805   1.687   1.519
  427TIP3    H1 1226   4.730   1.644   1.561
  427TIP3    H2 1227   4.880   1.632   1.541
  428TIP3   OH2 1228   4.406   1.263   0.633
  428TIP3    H1 1229   4.492   1.221   0.626
  428TIP3    H2 1230   4.359   1.233   0.556
  429TIP3   OH2 1231   4.524   1.387   1.095
  429TIP3    H1 1232   4.605   1.405   1.047
  429TIP3    H2 1233   4.538   1.425   1.182
  430TIP3   OH2 1234   4.578   1.531   1.320
  430TIP3    H1 1235   4.500   1.557   1.369
  430TIP3    H2 1236   4.605   1.611   1.274
  431TIP3   OH2 1237   3.174   1.241   2.109
  431TIP3    H1 1238   3.269   1.243   2.116
  431TIP3    H2 1239   3.149   1.159   2.154
  432TIP3   OH2 1240   5.031   1.112   1.844
  432TIP3    H1 1241   5.095   1.056   1.799
  432TIP3    H2 1242   4.992   1.164   1.774
  433TIP3   OH2 1243   4.434   0.968   0.661
  433TIP3    H1 1244   4.487   0.978   0.740
  433TIP3    H2 1245   4.389   0.884   0.673
  434TIP3   OH2 1246   3.197   0.897   1.577
  434TIP3    H1 1247   3.190   0.871   1.485
  434TIP3    H2 1248   3.204   0.992   1.574
  435TIP3   OH2 1249   2.943   1.214   1.595
  435TIP3    H1 1250   2.923   1.273   1.523
  435TIP3    H2 1251   2.938   1.269   1.674
  436TIP3   OH2 1252   4.881   1.238   1.654
  436TIP3    H1 1253   4.802   1.277   1.691
  436TIP3    H2 1254   4.849   1.169   1.596
  437TIP3   OH2 1255   4.110   2.414   0.501
  437TIP3    H1 1256   4.162   2.425   0.421
  437TIP3    H2 1257   4.132   2.490   0.555
  438TIP3   OH2 1258   3.051   0.659   1.796
  438TIP3    H1 1259   3.121   0.707   1.839
  438TIP3    H2 1260   2.983   0.724   1.779
  439TIP3   OH2 1261   3.199   2.237   1.854
  439TIP3    H1 1262   3.104   2.235   1.847
  439TIP3    H2 1263   3.221   2.166   1.914
  440TIP3   OH2 1264   3.393   2.257   1.432
  440TIP3    H1 1265   3.342   2.335   1.408
  440TIP3    H2 1266   3.479   2.272   1.394
  441TIP3   OH2 1267   3.795   2.496   1.573
  441TIP3    H1 1268   3.831   2.488   1.662
  441TIP3    H2 1269   3.858   2.550   1.526
  442TIP3   OH2 1270   3.986   2.652   1.448
  442TIP3    H1 1271   4.050   2.598   1.403
  442TIP3    H2 1272   4.039   2.710   1.503
  443TIP3   OH2 1273   4.805   0.988   1.545
  443TIP3    H1 1274   4.717   0.965   1.515
  443TIP3    H2 1275   4.853   0.905   1.545
  444TIP3   OH2 1276   3.053   2.545   1.485
  444TIP3    H1 1277   2.962   2.561   1.463
  444TIP3    H2 1278   3.071   2.604   1.559
  445TIP3   OH2 1279   3.286   2.496   1.348
  445TIP3    H1 1280   3.204   2.511   1.394
  445TIP3    H2 1281   3.270   2.528   1.259
  446TIP3   OH2 1282   3.712   2.519   1.135
  446TIP3    H1 1283   3.645   2.534   1.069
  446TIP3    H2 1284   3.724   2.605   1.177
  447TIP3   OH2 1285   3.972   2.448   1.172
  447TIP3    H1 1286   3.880   2.471   1.159
  447TIP3    H2 1287   4.020   2.518   1.127
  448TIP3   OH2 1288   4.169   2.629   1.079
  448TIP3    H1 1289   4.162   2.716   1.039
  448TIP3    H2 1290   4.198   2.572   1.008
  449TIP3   OH2 1291   2.994   2.337   1.278
  449TIP3    H1 1292   3.009   2.305   1.367
  449TIP3    H2 1293   3.072   2.313   1.230
  450TIP3   OH2 1294   3.221   2.216   1.189
  450TIP3    H1 1295   3.217   2.139   1.246
  450TIP3    H2 1296   3.313   2.240   1.187
  451TIP3   OH2 1297   3.475   2.283   1.075
  451TIP3    H1 1298   3.499   2.192   1.052
  451TIP3    H2 1299   3.526   2.302   1.154
  452TIP3   OH2 1300   4.041   0.983   1.145
  452TIP3    H1 1301   3.977   1.005   1.213
  452TIP3    H2 1302   3.994   0.924   1.086
  453TIP3   OH2 1303   4.599   0.876   1.124
  453TIP3    H1 1304   4.620   0.936   1.052
  453TIP3    H2 1305   4.504   0.884   1.134
  454TIP3   OH2 1306   4.618   0.979   0.864
  454TIP3    H1 1307   4.685   0.915   0.842
  454TIP3    H2 1308   4.657   1.063   0.841
  455TIP3   OH2 1309   3.701   0.632   0.986
  455TIP3    H1 1310   3.611   0.601   0.978
  455TIP3    H2 1311   3.710   0.656   1.079
  456TIP3   OH2 1312   4.330   0.874   1.135
  456TIP3    H1 1313   4.266   0.906   1.071
  456TIP3    H2 1314   4.287   0.885   1.220
  457TIP3   OH2 1315   4.277   0.744   0.649
  457TIP3    H1 1316   4.186   0.773   0.642
  457TIP3    H2 1317   4.287   0.720   0.741
  458TIP3   OH2 1318   3.499   2.261   0.109
  458TIP3    H1 1319   3.589   2.250   0.138
  458TIP3    H2 1320   3.460   2.174   0.121
  459TIP3   OH2 1321   4.230   2.422   0.252
  459TIP3    H1 1322   4.230   2.326   0.248
  459TIP3    H2 1323   4.183   2.449   0.173
  460TIP3   OH2 1324   3.481   0.950   2.139
  460TIP3    H1 1325   3.420   0.898   2.087
  460TIP3    H2 1326   3.561   0.898   2.143
  461TIP3   OH2 1327   3.740   0.856   2.186
  461TIP3    H1 1328   3.807   0.864   2.118
  461TIP3    H2 1329   3.771   0.785   2.241
  462TIP3   OH2 1330   4.534   0.985   1.964
  462TIP3    H1 1331   4.551   0.957   2.055
  462TIP3    H2 1332   4.620   0.982   1.922
  463TIP3   OH2 1333   4.453   2.519   1.465
  463TIP3    H1 1334   4.377   2.488   1.415
  463TIP3    H2 1335   4.439   2.613   1.475
  464TIP3   OH2 1336   5.671   1.887   0.256
  464TIP3    H1 1337   5.685   1.974   0.217
  464TIP3    H2 1338   5.585   1.861   0.226
  465TIP3   OH2 1339   5.711   1.912   0.626
  465TIP3    H1 1340   5.755   1.888   0.708
  465TIP3    H2 1341   5.668   1.831   0.597
  466TIP3   OH2 1342   5.025   1.757   0.975
  466TIP3    H1 1343   5.062   1.706   1.048
  466TIP3    H2 1344   5.101   1.785   0.925
  467TIP3   OH2 1345   6.000   2.209   0.314
  467TIP3    H1 1346   5.979   2.145   0.383
  467TIP3    H2 1347   6.019   2.290   0.361
  468TIP3   OH2 1348   5.014   2.189   0.670
  468TIP3    H1 1349   4.996   2.095   0.678
  468TIP3    H2 1350   5.108   2.195   0.658
  469TIP3   OH2 1351   4.711   1.428   0.445
  469TIP3    H1 1352   4.658   1.505   0.465
  469TIP3    H2 1353   4.655   1.354   0.469
  470TIP3   OH2 1354   4.797   1.715   0.664
  470TIP3    H1 1355   4.843   1.636   0.689
  470TIP3    H2 1356   4.865   1.781   0.652
  471TIP3   OH2 1357   5.631   2.647   0.337
  471TIP3    H1 1358   5.666   2.579   0.279
  471TIP3    H2 1359   5.634   2.607   0.424
  472TIP3   OH2 1360   5.527   2.131   0.635
  472TIP3    H1 1361   5.571   2.051   0.605
  472TIP3    H2 1362   5.598   2.187   0.666
  473TIP3   OH2 1363   5.936   1.617   0.670
  473TIP3    H1 1364   5.960   1.530   0.701
  473TIP3    H2 1365   5.881   1.600   0.593
  474TIP3   OH2 1366   5.275   1.288   0.658
  474TIP3    H1 1367   5.261   1.348   0.585
  474TIP3    H2 1368   5.265   1.201   0.620
  475TIP3   OH2 1369   4.919   1.484   0.751
  475TIP3    H1 1370   4.997   1.465   0.804
  475TIP3    H2 1371   4.928   1.427   0.675
  476TIP3   OH2 1372   5.333   1.682   0.580
  476TIP3    H1 1373   5.428   1.674   0.590
  476TIP3    H2 1374   5.305   1.597   0.546
  477TIP3   OH2 1375   6.521   1.636   0.864
  477TIP3    H1 1376   6.443   1.689   0.854
  477TIP3    H2 1377   6.572   1.680   0.933
  478TIP3   OH2 1378   5.266   1.277   1.095
  478TIP3    H1 1379   5.218   1.323   1.026
  478TIP3    H2 1380   5.214   1.293   1.175
  479TIP3   OH2 1381   5.625   2.119   0.098
  479TIP3    H1 1382   5.590   2.088   0.014
  479TIP3    H2 1383   5.569   2.194   0.120
  480TIP3   OH2 1384   5.374   2.048   0.850
  480TIP3    H1 1385   5.319   2.118   0.886
  480TIP3    H2 1386   5.421   2.089   0.778
  481TIP3   OH2 1387   5.151   1.394   0.875
  481TIP3    H1 1388   5.205   1.469   0.897
  481TIP3    H2 1389   5.195   1.353   0.801
  482TIP3   OH2 1390   5.214   2.247   0.957
  482TIP3    H1 1391   5.198   2.336   0.926
  482TIP3    H2 1392   5.136   2.226   1.009
  483TIP3   OH2 1393   4.609   1.959   0.244
  483TIP3    H1 1394   4.578   1.972   0.155
  483TIP3    H2 1395   4.630   2.047   0.275
  484TIP3   OH2 1396   6.029   2.461   0.445
  484TIP3    H1 1397   5.942   2.448   0.483
  484TIP3    H2 1398   6.022   2.544   0.397
  485TIP3   OH2 1399   5.730   2.489   0.140
  485TIP3    H1 1400   5.780   2.408   0.127
  485TIP3    H2 1401   5.780   2.555   0.092
  486TIP3   OH2 1402   5.863   2.262   0.081
  486TIP3    H1 1403   5.795   2.195   0.078
  486TIP3    H2 1404   5.922   2.234   0.151
  487TIP3   OH2 1405   6.266   2.341   0.772
  487TIP3    H1 1406   6.242   2.268   0.714
  487TIP3    H2 1407   6.248   2.419   0.720
  488TIP3   OH2 1408   6.402   2.040   0.758
  488TIP3    H1 1409   6.327   2.070   0.706
  488TIP3    H2 1410   6.474   2.033   0.695
  489TIP3   OH2 1411   6.095   1.849   0.968
  489TIP3    H1 1412   6.100   1.926   1.024
  489TIP3    H2 1413   6.010   1.856   0.925
  490TIP3   OH2 1414   5.136   1.816   0.438
  490TIP3    H1 1415   5.100   1.755   0.374
  490TIP3    H2 1416   5.209   1.769   0.478
  491TIP3   OH2 1417   5.273   2.239   0.566
  491TIP3    H1 1418   5.250   2.222   0.475
  491TIP3    H2 1419   5.361   2.202   0.576
  492TIP3   OH2 1420   5.242   1.813   0.807
  492TIP3    H1 1421   5.279   1.776   0.726
  492TIP3    H2 1422   5.292   1.893   0.821
  493TIP3   OH2 1423   5.792   2.445   0.576
  493TIP3    H1 1424   5.780   2.524   0.628
  493TIP3    H2 1425   5.780   2.373   0.638
  494TIP3   OH2 1426   5.414   2.346   1.122
  494TIP3    H1 1427   5.354   2.403   1.169
  494TIP3    H2 1428   5.357   2.294   1.065
  495TIP3   OH2 1429   5.167   1.890   1.263
  495TIP3    H1 1430   5.173   1.983   1.283
  495TIP3    H2 1431   5.073   1.872   1.258
  496TIP3   OH2 1432   5.484   2.364   0.113
  496TIP3    H1 1433   5.563   2.414   0.134
  496TIP3    H2 1434   5.425   2.428   0.074
  497TIP3   OH2 1435   5.203   2.503   1.208
  497TIP3    H1 1436   5.176   2.513   1.117
  497TIP3    H2 1437   5.121   2.487   1.255
  498TIP3   OH2 1438   5.010   1.656   0.241
  498TIP3    H1 1439   4.955   1.728   0.211
  498TIP3    H2 1440   4.950   1.581   0.247
  499TIP3   OH2 1441   4.794   2.058   1.157
  499TIP3    H1 1442   4.724   2.041   1.093
  499TIP3    H2 1443   4.828   1.971   1.180
  500TIP3   OH2 1444   4.638   2.254   0.804
  500TIP3    H1 1445   4.731   2.272   0.817
  500TIP3    H2 1446   4.594   2.331   0.839
  501TIP3   OH2 1447   6.469   2.729   0.855
  501TIP3    H1 1448   6.468   2.633   0.858
  501TIP3    H2 1449   6.392   2.755   0.905
  502TIP3   OH2 1450   5.604   2.487   0.982
  502TIP3    H1 1451   5.596   2.578   1.011
  502TIP3    H2 1452   5.537   2.440   1.032
  503TIP3   OH2 1453   8.189   6.596   6.876
  503TIP3    H1 1454   8.107   6.574   6.833
  503TIP3    H2 1455   8.174   6.683   6.914
  504TIP3   OH2 1456   4.819   2.448   0.320
  504TIP3    H1 1457   4.865   2.441   0.403
  504TIP3    H2 1458   4.770   2.366   0.312
  505TIP3   OH2 1459   8.459   6.560   6.801
  505TIP3    H1 1460   8.367   6.575   6.820
  505TIP3    H2 1461   8.479   6.475   6.841
  506TIP3   OH2 1462   6.381   1.771   1.127
  506TIP3    H1 1463   6.288   1.750   1.123
  506TIP3    H2 1464   6.412   1.730   1.208
  507TIP3   OH2 1465   4.995   2.243   1.125
  507TIP3    H1 1466   5.045   2.232   1.206
  507TIP3    H2 1467   4.923   2.180   1.133
  508TIP3   OH2 1468   5.346   1.057   0.951
  508TIP3    H1 1469   5.263   1.027   0.915
  508TIP3    H2 1470   5.325   1.138   0.996
  509TIP3   OH2 1471   5.911   1.162   1.128
  509TIP3    H1 1472   5.981   1.141   1.189
  509TIP3    H2 1473   5.831   1.144   1.176
  510TIP3   OH2 1474   6.153   1.593   1.055
  510TIP3    H1 1475   6.106   1.587   1.138
  510TIP3    H2 1476   6.124   1.676   1.016
  511TIP3   OH2 1477   5.326   1.592   0.955
  511TIP3    H1 1478   5.284   1.602   1.040
  511TIP3    H2 1479   5.308   1.675   0.910
  512TIP3   OH2 1480   5.206   1.465   0.458
  512TIP3    H1 1481   5.116   1.437   0.475
  512TIP3    H2 1482   5.211   1.474   0.363
  513TIP3   OH2 1483   5.868   1.813   1.264
  513TIP3    H1 1484   5.848   1.746   1.329
  513TIP3    H2 1485   5.962   1.829   1.275
  514TIP3   OH2 1486   5.790   1.564   0.444
  514TIP3    H1 1487   5.799   1.628   0.374
  514TIP3    H2 1488   5.791   1.479   0.399
  515TIP3   OH2 1489   5.156   1.604   1.172
  515TIP3    H1 1490   5.167   1.672   1.239
  515TIP3    H2 1491   5.136   1.524   1.221
  516TIP3   OH2 1492   4.739   1.199   0.756
  516TIP3    H1 1493   4.810   1.214   0.819
  516TIP3    H2 1494   4.773   1.134   0.695
  517TIP3   OH2 1495   4.860   1.130   0.370
  517TIP3    H1 1496   4.860   1.176   0.286
  517TIP3    H2 1497   4.771   1.144   0.404
  518TIP3   OH2 1498   5.844   1.806   0.846
  518TIP3    H1 1499   5.882   1.744   0.784
  518TIP3    H2 1500   5.812   1.752   0.918
  519TIP3   OH2 1501   5.556   1.327   0.677
  519TIP3    H1 1502   5.462   1.306   0.680
  519TIP3    H2 1503   5.573   1.375   0.758
  520TIP3   OH2 1504   4.962   1.351   0.507
  520TIP3    H1 1505   4.876   1.391   0.488
  520TIP3    H2 1506   4.955   1.262   0.473
  521TIP3   OH2 1507   5.964   1.355   0.742
  521TIP3    H1 1508   5.951   1.372   0.835
  521TIP3    H2 1509   5.941   1.263   0.730
  522TIP3   OH2 1510   6.204   3.056   0.958
  522TIP3    H1 1511   6.202   3.069   0.863
  522TIP3    H2 1512   6.284   3.099   0.986
  523TIP3   OH2 1513   5.153   2.155   1.360
  523TIP3    H1 1514   5.233   2.177   1.407
  523TIP3    H2 1515   5.084   2.164   1.425
  524TIP3   OH2 1516   5.601   1.642   0.631
  524TIP3    H1 1517   5.660   1.601   0.568
  524TIP3    H2 1518   5.607   1.587   0.709
  525TIP3   OH2 1519   5.582   1.507   0.893
  525TIP3    H1 1520   5.498   1.547   0.915
  525TIP3    H2 1521   5.646   1.557   0.943
  526TIP3   OH2 1522   5.266   1.929  -0.012
  526TIP3    H1 1523   5.227   1.841  -0.017
  526TIP3    H2 1524   5.271   1.946   0.082
  527TIP3   OH2 1525   6.198   2.135   0.607
  527TIP3    H1 1526   6.239   2.171   0.528
  527TIP3    H2 1527   6.115   2.098   0.576
  528TIP3   OH2 1528   5.736   2.220   1.018
  528TIP3    H1 1529   5.781   2.206   1.102
  528TIP3    H2 1530   5.693   2.305   1.028
  529TIP3   OH2 1531   5.009   1.900   0.665
  529TIP3    H1 1532   5.047   1.884   0.579
  529TIP3    H2 1533   5.077   1.873   0.727
  530TIP3   OH2 1534   8.313   6.067   6.813
  530TIP3    H1 1535   8.269   6.141   6.772
  530TIP3    H2 1536   8.242   6.011   6.845
  531TIP3   OH2 1537   4.895   1.825   1.288
  531TIP3    H1 1538   4.896   1.800   1.380
  531TIP3    H2 1539   4.819   1.779   1.252
  532TIP3   OH2 1540   5.634   1.962   1.313
  532TIP3    H1 1541   5.567   1.901   1.282
  532TIP3    H2 1542   5.716   1.924   1.281
  533TIP3   OH2 1543   5.876   2.505   0.903
  533TIP3    H1 1544   5.781   2.489   0.909
  533TIP3    H2 1545   5.899   2.543   0.988
  534TIP3   OH2 1546   6.473   2.458   0.902
  534TIP3    H1 1547   6.424   2.467   0.984
  534TIP3    H2 1548   6.414   2.410   0.844
  535TIP3   OH2 1549   5.957   2.022   0.522
  535TIP3    H1 1550   5.866   1.996   0.536
  535TIP3    H2 1551   6.003   1.940   0.504
  536TIP3   OH2 1552   5.134   2.234   0.318
  536TIP3    H1 1553   5.132   2.311   0.262
  536TIP3    H2 1554   5.042   2.214   0.336
  537TIP3   OH2 1555   4.767   1.579   0.046
  537TIP3    H1 1556   4.785   1.671   0.066
  537TIP3    H2 1557   4.680   1.563   0.082
  538TIP3   OH2 1558   5.249   1.989   0.253
  538TIP3    H1 1559   5.222   2.079   0.270
  538TIP3    H2 1560   5.211   1.938   0.324
  539TIP3   OH2 1561   5.415   2.560   0.778
  539TIP3    H1 1562   5.452   2.633   0.729
  539TIP3    H2 1563   5.490   2.526   0.828
  540TIP3   OH2 1564   5.048   2.463   0.170
  540TIP3    H1 1565   4.962   2.466   0.210
  540TIP3    H2 1566   5.082   2.552   0.180
  541TIP3   OH2 1567   5.768   2.223   0.744
  541TIP3    H1 1568   5.762   2.216   0.839
  541TIP3    H2 1569   5.836   2.160   0.720
  542TIP3   OH2 1570   6.017   2.727   0.791
  542TIP3    H1 1571   5.949   2.661   0.804
  542TIP3    H2 1572   5.986   2.779   0.716
  543TIP3   OH2 1573   5.100   1.353   1.301
  543TIP3    H1 1574   5.005   1.362   1.305
  543TIP3    H2 1575   5.123   1.305   1.381
  544TIP3   OH2 1576   4.844   2.446   0.937
  544TIP3    H1 1577   4.895   2.382   0.987
  544TIP3    H2 1578   4.859   2.529   0.982
  545TIP3   OH2 1579   7.911   5.984   6.576
  545TIP3    H1 1580   7.984   6.028   6.533
  545TIP3    H2 1581   7.902   6.029   6.660
  546TIP3   OH2 1582   7.901   6.099   6.828
  546TIP3    H1 1583   7.974   6.053   6.868
  546TIP3    H2 1584   7.917   6.192   6.846
  547TIP3   OH2 1585   4.828   1.831   0.137
  547TIP3    H1 1586   4.757   1.868   0.190
  547TIP3    H2 1587   4.832   1.887   0.060
  548TIP3   OH2 1588   5.939   1.409   1.009
  548TIP3    H1 1589   6.025   1.442   1.032
  548TIP3    H2 1590   5.932   1.326   1.056
  549TIP3   OH2 1591   8.165   6.282   6.720
  549TIP3    H1 1592   8.093   6.306   6.778
  549TIP3    H2 1593   8.205   6.366   6.696
  550TIP3   OH2 1594   5.779   1.634   1.049
  550TIP3    H1 1595   5.807   1.683   1.126
  550TIP3    H2 1596   5.834   1.556   1.049
  551TIP3   OH2 1597   7.947   6.368   6.866
  551TIP3    H1 1598   7.917   6.435   6.804
  551TIP3    H2 1599   7.921   6.400   6.952
  552TIP3   OH2 1600   6.399   1.460   1.041
  552TIP3    H1 1601   6.310   1.494   1.052
  552TIP3    H2 1602   6.434   1.506   0.965
  553TIP3   OH2 1603   6.085   1.780   0.505
  553TIP3    H1 1604   6.038   1.725   0.568
  553TIP3    H2 1605   6.171   1.737   0.497
  554TIP3   OH2 1606   7.649   5.986   6.845
  554TIP3    H1 1607   7.722   6.047   6.842
  554TIP3    H2 1608   7.676   5.913   6.789
  555TIP3   OH2 1609   6.038   2.726   0.355
  555TIP3    H1 1610   5.992   2.779   0.290
  555TIP3    H2 1611   6.130   2.751   0.346
  556TIP3   OH2 1612   5.092   0.954   0.895
  556TIP3    H1 1613   5.051   0.916   0.818
  556TIP3    H2 1614   5.104   0.879   0.955
  557TIP3   OH2 1615   4.654   2.224   0.314
  557TIP3    H1 1616   4.611   2.262   0.391
  557TIP3    H2 1617   4.606   2.261   0.239
  558TIP3   OH2 1618   4.838   2.757   1.358
  558TIP3    H1 1619   4.921   2.760   1.406
  558TIP3    H2 1620   4.818   2.663   1.351
  559TIP3   OH2 1621   5.306   2.672   1.400
  559TIP3    H1 1622   5.398   2.648   1.410
  559TIP3    H2 1623   5.273   2.616   1.330
  560TIP3   OH2 1624   5.930   2.608   1.152
  560TIP3    H1 1625   5.940   2.536   1.215
  560TIP3    H2 1626   6.004   2.666   1.171
  561TIP3   OH2 1627   4.948   2.155   1.550
  561TIP3    H1 1628   4.965   2.062   1.561
  561TIP3    H2 1629   4.862   2.160   1.509
  562TIP3   OH2 1630   7.785   5.784   6.721
  562TIP3    H1 1631   7.849   5.748   6.784
  562TIP3    H2 1632   7.838   5.837   6.662
  563TIP3   OH2 1633   5.566   2.239   1.327
  563TIP3    H1 1634   5.522   2.259   1.244
  563TIP3    H2 1635   5.602   2.151   1.314
  564TIP3   OH2 1636   6.058   2.286   0.950
  564TIP3    H1 1637   6.130   2.309   0.892
  564TIP3    H2 1638   5.989   2.349   0.929
  565TIP3   OH2 1639   5.064   1.898   1.556
  565TIP3    H1 1640   5.140   1.883   1.501
  565TIP3    H2 1641   5.100   1.920   1.642
  566TIP3   OH2 1642   5.129   1.684  -0.018
  566TIP3    H1 1643   5.093   1.671   0.070
  566TIP3    H2 1644   5.157   1.597  -0.046
  567TIP3   OH2 1645   5.426   1.784   1.212
  567TIP3    H1 1646   5.341   1.827   1.220
  567TIP3    H2 1647   5.460   1.814   1.127
  568TIP3   OH2 1648   5.915   2.157   1.301
  568TIP3    H1 1649   5.980   2.121   1.241
  568TIP3    H2 1650   5.921   2.102   1.379
  569TIP3   OH2 1651   5.527   1.555   1.325
  569TIP3    H1 1652   5.530   1.482   1.263
  569TIP3    H2 1653   5.495   1.629   1.274
  570TIP3   OH2 1654   5.529   1.350   1.130
  570TIP3    H1 1655   5.557   1.383   1.045
  570TIP3    H2 1656   5.438   1.324   1.116
  571TIP3   OH2 1657   5.545   1.882   0.988
  571TIP3    H1 1658   5.635   1.904   0.965
  571TIP3    H2 1659   5.492   1.946   0.941
  572TIP3   OH2 1660   6.170   1.850   1.379
  572TIP3    H1 1661   6.211   1.764   1.394
  572TIP3    H2 1662   6.245   1.909   1.368
  573TIP3   OH2 1663   6.114   2.080   1.120
  573TIP3    H1 1664   6.092   2.153   1.062
  573TIP3    H2 1665   6.201   2.101   1.153
  574TIP3   OH2 1666   5.410   1.642   1.564
  574TIP3    H1 1667   5.340   1.579   1.584
  574TIP3    H2 1668   5.440   1.618   1.476
  575TIP3   OH2 1669   5.653   1.118   1.224
  575TIP3    H1 1670   5.611   1.198   1.193
  575TIP3    H2 1671   5.588   1.050   1.208
  576TIP3   OH2 1672   5.785   1.601   1.422
  576TIP3    H1 1673   5.776   1.589   1.516
  576TIP3    H2 1674   5.698   1.580   1.387
  577TIP3   OH2 1675   6.024   1.556   1.288
  577TIP3    H1 1676   5.944   1.556   1.340
  577TIP3    H2 1677   6.093   1.533   1.350
  578TIP3   OH2 1678   6.235   1.508   1.458
  578TIP3    H1 1679   6.243   1.413   1.466
  578TIP3    H2 1680   6.234   1.540   1.548
  579TIP3   OH2 1681   5.244   1.420   1.627
  579TIP3    H1 1682   5.251   1.331   1.591
  579TIP3    H2 1683   5.283   1.414   1.714
  580TIP3   OH2 1684   5.715   1.102   1.489
  580TIP3    H1 1685   5.791   1.044   1.487
  580TIP3    H2 1686   5.687   1.109   1.398
  581TIP3   OH2 1687   5.812   1.316   1.631
  581TIP3    H1 1688   5.781   1.247   1.573
  581TIP3    H2 1689   5.743   1.382   1.630
  582TIP3   OH2 1690   7.931   6.571   6.680
  582TIP3    H1 1691   7.950   6.556   6.587
  582TIP3    H2 1692   7.852   6.625   6.679
  583TIP3   OH2 1693   7.381   5.971   6.916
  583TIP3    H1 1694   7.468   5.990   6.879
  583TIP3    H2 1695   7.350   5.895   6.868
  584TIP3   OH2 1696   4.444   2.541   0.375
  584TIP3    H1 1697   4.381   2.495   0.321
  584TIP3    H2 1698   4.482   2.474   0.431
  585TIP3   OH2 1699   4.580   2.368   0.546
  585TIP3    H1 1700   4.572   2.301   0.614
  585TIP3    H2 1701   4.633   2.437   0.586
  586TIP3   OH2 1702   6.297   2.798   0.343
  586TIP3    H1 1703   6.328   2.820   0.431
  586TIP3    H2 1704   6.372   2.817   0.286
  587TIP3   OH2 1705   6.330   2.811   0.625
  587TIP3    H1 1706   6.289   2.725   0.616
  587TIP3    H2 1707   6.400   2.797   0.689
  588TIP3   OH2 1708   6.374   2.481   1.155
  588TIP3    H1 1709   6.312   2.472   1.228
  588TIP3    H2 1710   6.418   2.564   1.170
  589TIP3   OH2 1711   6.359   2.261   0.424
  589TIP3    H1 1712   6.391   2.200   0.359
  589TIP3    H2 1713   6.341   2.341   0.375
  590TIP3   OH2 1714   6.194   2.569   0.638
  590TIP3    H1 1715   6.128   2.613   0.692
  590TIP3    H2 1716   6.144   2.528   0.567
  591TIP3   OH2 1717   4.762   1.797   0.922
  591TIP3    H1 1718   4.754   1.769   0.831
  591TIP3    H2 1719   4.856   1.794   0.940
  592TIP3   OH2 1720   6.402   2.197   1.096
  592TIP3    H1 1721   6.418   2.153   1.179
  592TIP3    H2 1722   6.385   2.288   1.120
  593TIP3   OH2 1723   6.541   1.947   1.009
  593TIP3    H1 1724   6.484   1.889   1.060
  593TIP3    H2 1725   6.628   1.906   1.016
  594TIP3   OH2 1726   6.321   1.629   0.560
  594TIP3    H1 1727   6.352   1.546   0.594
  594TIP3    H2 1728   6.310   1.684   0.638
  595TIP3   OH2 1729   6.304   1.784   0.793
  595TIP3    H1 1730   6.229   1.795   0.851
  595TIP3    H2 1731   6.338   1.873   0.780
  596TIP3   OH2 1732   4.981   1.481   1.571
  596TIP3    H1 1733   5.075   1.478   1.588
  596TIP3    H2 1734   4.947   1.401   1.612
  597TIP3   OH2 1735   6.777   1.346   1.339
  597TIP3    H1 1736   6.870   1.354   1.315
  597TIP3    H2 1737   6.731   1.398   1.275
  598TIP3   OH2 1738   4.951   1.196   0.933
  598TIP3    H1 1739   5.002   1.115   0.930
  598TIP3    H2 1740   5.017   1.265   0.925
  599TIP3   OH2 1741   4.757   1.466   0.981
  599TIP3    H1 1742   4.794   1.455   0.893
  599TIP3    H2 1743   4.784   1.554   1.008
  600TIP3   OH2 1744   6.627   1.514   1.185
  600TIP3    H1 1745   6.573   1.562   1.247
  600TIP3    H2 1746   6.565   1.469   1.129
  601TIP3   OH2 1747   4.822   0.985   0.606
  601TIP3    H1 1748   4.754   0.926   0.574
  601TIP3    H2 1749   4.868   1.015   0.528
  602TIP3   OH2 1750   0.191   6.685   6.926
  602TIP3    H1 1751   0.153   6.648   6.846
  602TIP3    H2 1752   0.285   6.682   6.912
  603TIP3   OH2 1753   4.929   1.012   1.290
  603TIP3    H1 1754   4.887   1.019   1.376
  603TIP3    H2 1755   4.876   1.069   1.234
  604TIP3   OH2 1756   4.980   2.472   1.373
  604TIP3    H1 1757   4.886   2.456   1.364
  604TIP3    H2 1758   4.997   2.464   1.467
  605TIP3   OH2 1759   5.185   2.522   0.925
  605TIP3    H1 1760   5.134   2.596   0.893
  605TIP3    H2 1761   5.271   2.531   0.882
  606TIP3   OH2 1762   5.590   2.754   1.060
  606TIP3    H1 1763   5.627   2.746   1.148
  606TIP3    H2 1764   5.654   2.807   1.012
  607TIP3   OH2 1765   5.783   2.908   0.935
  607TIP3    H1 1766   5.848   2.854   0.890
  607TIP3    H2 1767   5.834   2.966   0.991
  608TIP3   OH2 1768   4.847   2.770   0.968
  608TIP3    H1 1769   4.755   2.786   0.947
  608TIP3    H2 1770   4.867   2.835   1.036
  609TIP3   OH2 1771   5.078   2.753   0.820
  609TIP3    H1 1772   4.995   2.760   0.868
  609TIP3    H2 1773   5.055   2.778   0.730
  610TIP3   OH2 1774   5.493   2.770   0.614
  610TIP3    H1 1775   5.421   2.782   0.552
  610TIP3    H2 1776   5.503   2.855   0.656
  611TIP3   OH2 1777   5.757   2.707   0.659
  611TIP3    H1 1778   5.665   2.728   0.643
  611TIP3    H2 1779   5.805   2.777   0.615
  612TIP3   OH2 1780   5.957   2.886   0.566
  612TIP3    H1 1781   5.951   2.973   0.526
  612TIP3    H2 1782   5.985   2.829   0.494
  613TIP3   OH2 1783   4.759   2.543   0.689
  613TIP3    H1 1784   4.782   2.518   0.778
  613TIP3    H2 1785   4.831   2.511   0.635
  614TIP3   OH2 1786   4.964   2.430   0.552
  614TIP3    H1 1787   4.974   2.345   0.595
  614TIP3    H2 1788   5.051   2.470   0.556
  615TIP3   OH2 1789   5.232   2.516   0.572
  615TIP3    H1 1790   5.249   2.423   0.557
  615TIP3    H2 1791   5.285   2.537   0.649
  616TIP3   OH2 1792   4.524   2.339   0.105
  616TIP3    H1 1793   4.445   2.299   0.070
  616TIP3    H2 1794   4.527   2.425   0.065
  617TIP3   OH2 1795   5.250   1.149   1.533
  617TIP3    H1 1796   5.218   1.082   1.595
  617TIP3    H2 1797   5.343   1.158   1.554
  618TIP3   OH2 1798   5.498   1.160   1.656
  618TIP3    H1 1799   5.575   1.138   1.604
  618TIP3    H2 1800   5.493   1.091   1.722
  619TIP3   OH2 1801   7.514   6.407   6.683
  619TIP3    H1 1802   7.466   6.372   6.759
  619TIP3    H2 1803   7.499   6.342   6.614
  620TIP3   OH2 1804   6.280   1.238   1.480
  620TIP3    H1 1805   6.302   1.205   1.567
  620TIP3    H2 1806   6.364   1.240   1.433
  621TIP3   OH2 1807   6.225   2.782   0.965
  621TIP3    H1 1808   6.153   2.753   0.910
  621TIP3    H2 1809   6.214   2.877   0.972
  622TIP3   OH2 1810   6.825   2.149   0.448
  622TIP3    H1 1811   6.864   2.166   0.534
  622TIP3    H2 1812   6.898   2.162   0.387
  623TIP3   OH2 1813   6.848   2.326   0.210
  623TIP3    H1 1814   6.767   2.280   0.189
  623TIP3    H2 1815   6.818   2.410   0.247
  624TIP3   OH2 1816   7.096   2.210   0.380
  624TIP3    H1 1817   7.069   2.302   0.375
  624TIP3    H2 1818   7.189   2.211   0.355
  625TIP3   OH2 1819   7.017   2.470   0.416
  625TIP3    H1 1820   7.016   2.556   0.375
  625TIP3    H2 1821   6.928   2.459   0.451
  626TIP3   OH2 1822   7.267   2.572   0.565
  626TIP3    H1 1823   7.190   2.628   0.575
  626TIP3    H2 1824   7.236   2.484   0.588
  627TIP3   OH2 1825   6.922   2.945   0.752
  627TIP3    H1 1826   6.904   2.958   0.659
  627TIP3    H2 1827   6.852   2.886   0.781
  628TIP3   OH2 1828   6.353   2.515   0.301
  628TIP3    H1 1829   6.421   2.546   0.361
  628TIP3    H2 1830   6.285   2.583   0.305
  629TIP3   OH2 1831   7.438   2.773   0.517
  629TIP3    H1 1832   7.410   2.860   0.543
  629TIP3    H2 1833   7.370   2.715   0.551
  630TIP3   OH2 1834   6.722   2.458   0.770
  630TIP3    H1 1835   6.782   2.499   0.833
  630TIP3    H2 1836   6.638   2.454   0.817
  631TIP3   OH2 1837   6.939   1.922   0.715
  631TIP3    H1 1838   6.885   1.954   0.787
  631TIP3    H2 1839   6.936   1.827   0.722
  632TIP3   OH2 1840   6.906   2.569   0.942
  632TIP3    H1 1841   6.998   2.590   0.923
  632TIP3    H2 1842   6.909   2.513   1.019
  633TIP3   OH2 1843   7.568   2.527   0.522
  633TIP3    H1 1844   7.529   2.612   0.542
  633TIP3    H2 1845   7.604   2.537   0.434
  634TIP3   OH2 1846   7.397   2.214   0.755
  634TIP3    H1 1847   7.323   2.160   0.730
  634TIP3    H2 1848   7.462   2.199   0.687
  635TIP3   OH2 1849   7.198   2.918   0.311
  635TIP3    H1 1850   7.170   2.943   0.223
  635TIP3    H2 1851   7.294   2.914   0.305
  636TIP3   OH2 1852   6.551   2.618   0.455
  636TIP3    H1 1853   6.624   2.557   0.458
  636TIP3    H2 1854   6.591   2.703   0.437
  637TIP3   OH2 1855   6.636   3.028   0.860
  637TIP3    H1 1856   6.713   3.036   0.917
  637TIP3    H2 1857   6.628   2.934   0.844
  638TIP3   OH2 1858   7.099   2.956   0.959
  638TIP3    H1 1859   7.192   2.960   0.937
  638TIP3    H2 1860   7.055   2.951   0.874
  639TIP3   OH2 1861   6.681   2.463   1.103
  639TIP3    H1 1862   6.708   2.380   1.141
  639TIP3    H2 1863   6.603   2.441   1.051
  640TIP3   OH2 1864   7.355   2.476   0.825
  640TIP3    H1 1865   7.425   2.534   0.793
  640TIP3    H2 1866   7.373   2.392   0.784
  641TIP3   OH2 1867   6.819   2.015   0.939
  641TIP3    H1 1868   6.864   1.951   0.994
  641TIP3    H2 1869   6.831   2.098   0.985
  642TIP3   OH2 1870   7.223   2.020   0.672
  642TIP3    H1 1871   7.166   1.962   0.722
  642TIP3    H2 1872   7.285   1.962   0.627
  643TIP3   OH2 1873   7.010   1.898   1.082
  643TIP3    H1 1874   7.022   1.897   1.177
  643TIP3    H2 1875   7.076   1.959   1.050
  644TIP3   OH2 1876   6.969   1.599   1.043
  644TIP3    H1 1877   7.005   1.514   1.019
  644TIP3    H2 1878   7.038   1.640   1.096
  645TIP3   OH2 1879   6.401   2.629   0.029
  645TIP3    H1 1880   6.351   2.566   0.082
  645TIP3    H2 1881   6.423   2.699   0.090
  646TIP3   OH2 1882   6.522   2.025   0.374
  646TIP3    H1 1883   6.505   2.031   0.280
  646TIP3    H2 1884   6.599   1.968   0.381
  647TIP3   OH2 1885   6.723   1.732   1.043
  647TIP3    H1 1886   6.817   1.714   1.041
  647TIP3    H2 1887   6.687   1.664   1.100
  648TIP3   OH2 1888   6.737   2.762   0.843
  648TIP3    H1 1889   6.646   2.740   0.863
  648TIP3    H2 1890   6.788   2.703   0.899
  649TIP3   OH2 1891   6.997   2.715   0.301
  649TIP3    H1 1892   6.986   2.793   0.354
  649TIP3    H2 1893   7.083   2.725   0.259
  650TIP3   OH2 1894   7.421   3.055   0.558
  650TIP3    H1 1895   7.445   3.050   0.650
  650TIP3    H2 1896   7.494   3.101   0.517
  651TIP3   OH2 1897   7.639   3.153   0.413
  651TIP3    H1 1898   7.641   3.108   0.328
  651TIP3    H2 1899   7.582   3.228   0.399
  652TIP3   OH2 1900   6.640   3.123   0.449
  652TIP3    H1 1901   6.546   3.106   0.447
  652TIP3    H2 1902   6.656   3.156   0.537
  653TIP3   OH2 1903   6.832   3.103   0.265
  653TIP3    H1 1904   6.767   3.102   0.335
  653TIP3    H2 1905   6.814   3.183   0.216
  654TIP3   OH2 1906   6.527   2.818   0.191
  654TIP3    H1 1907   6.590   2.836   0.261
  654TIP3    H2 1908   6.580   2.813   0.112
  655TIP3   OH2 1909   1.041   6.711   6.948
  655TIP3    H1 1910   0.969   6.660   6.911
  655TIP3    H2 1911   1.119   6.658   6.933
  656TIP3   OH2 1912   0.843   2.691   2.097
  656TIP3    H1 1913   0.786   2.736   2.034
  656TIP3    H2 1914   0.914   2.752   2.114
  657TIP3   OH2 1915   0.488   3.416   1.966
  657TIP3    H1 1916   0.491   3.343   1.905
  657TIP3    H2 1917   0.479   3.494   1.910
  658TIP3   OH2 1918   0.686   3.023   1.809
  658TIP3    H1 1919   0.730   3.107   1.823
  658TIP3    H2 1920   0.712   2.997   1.721
  659TIP3   OH2 1921   0.441   2.917   2.140
  659TIP3    H1 1922   0.432   3.001   2.185
  659TIP3    H2 1923   0.360   2.907   2.090
  660TIP3   OH2 1924   0.775   3.805   2.001
  660TIP3    H1 1925   0.842   3.738   1.994
  660TIP3    H2 1926   0.715   3.772   2.068
  661TIP3   OH2 1927   8.342   3.509   2.164
  661TIP3    H1 1928   8.355   3.603   2.175
  661TIP3    H2 1929   8.275   3.487   2.228
  662TIP3   OH2 1930   0.598   2.876   2.378
  662TIP3    H1 1931   0.563   2.907   2.295
  662TIP3    H2 1932   0.633   2.789   2.358
  663TIP3   OH2 1933   0.103   2.824   2.529
  663TIP3    H1 1934   0.098   2.763   2.455
  663TIP3    H2 1935   0.196   2.846   2.535
  664TIP3   OH2 1936   0.458   4.084   2.122
  664TIP3    H1 1937   0.455   4.101   2.028
  664TIP3    H2 1938   0.536   4.130   2.153
  665TIP3   OH2 1939   0.478   3.213   1.781
  665TIP3    H1 1940   0.510   3.253   1.700
  665TIP3    H2 1941   0.533   3.136   1.794
  666TIP3   OH2 1942   8.483   3.273   2.221
  666TIP3    H1 1943   8.574   3.276   2.191
  666TIP3    H2 1944   8.442   3.350   2.182
  667TIP3   OH2 1945   0.117   3.546   2.083
  667TIP3    H1 1946   0.021   3.541   2.082
  667TIP3    H2 1947   0.137   3.591   2.165
  668TIP3   OH2 1948   0.744   3.425   2.092
  668TIP3    H1 1949   0.654   3.456   2.093
  668TIP3    H2 1950   0.761   3.403   2.000
  669TIP3   OH2 1951   0.259   3.780   1.972
  669TIP3    H1 1952   0.190   3.713   1.975
  669TIP3    H2 1953   0.233   3.839   1.902
  670TIP3   OH2 1954   0.671   2.617   2.296
  670TIP3    H1 1955   0.603   2.567   2.252
  670TIP3    H2 1956   0.725   2.652   2.225
  671TIP3   OH2 1957   0.309   3.802   1.561
  671TIP3    H1 1958   0.260   3.850   1.494
  671TIP3    H2 1959   0.400   3.809   1.534
  672TIP3   OH2 1960   8.160   3.778   2.466
  672TIP3    H1 1961   8.230   3.824   2.513
  672TIP3    H2 1962   8.108   3.736   2.534
  673TIP3   OH2 1963   0.181   3.658   2.326
  673TIP3    H1 1964   0.187   3.583   2.385
  673TIP3    H2 1965   0.262   3.707   2.342
  674TIP3   OH2 1966   8.394   3.257   2.480
  674TIP3    H1 1967   8.403   3.252   2.385
  674TIP3    H2 1968   8.478   3.224   2.513
  675TIP3   OH2 1969   0.283   3.329   2.126
  675TIP3    H1 1970   0.360   3.349   2.073
  675TIP3    H2 1971   0.223   3.401   2.108
  676TIP3   OH2 1972   0.159   3.191   2.521
  676TIP3    H1 1973   0.220   3.164   2.452
  676TIP3    H2 1974   0.180   3.134   2.595
  677TIP3   OH2 1975   0.391   2.848   2.567
  677TIP3    H1 1976   0.415   2.758   2.547
  677TIP3    H2 1977   0.455   2.902   2.521
  678TIP3   OH2 1978   0.431   3.154   2.281
  678TIP3    H1 1979   0.378   3.219   2.234
  678TIP3    H2 1980   0.520   3.172   2.252
  679TIP3   OH2 1981   0.482   2.548   2.649
  679TIP3    H1 1982   0.501   2.457   2.628
  679TIP3    H2 1983   0.564   2.594   2.631
  680TIP3   OH2 1984   0.575   3.848   1.520
  680TIP3    H1 1985   0.595   3.862   1.613
  680TIP3    H2 1986   0.650   3.885   1.474
  681TIP3   OH2 1987   0.595   3.862   1.800
  681TIP3    H1 1988   0.548   3.779   1.801
  681TIP3    H2 1989   0.667   3.849   1.862
  682TIP3   OH2 1990   0.636   3.544   2.386
  682TIP3    H1 1991   0.572   3.556   2.456
  682TIP3    H2 1992   0.682   3.628   2.383
  683TIP3   OH2 1993   0.614   3.323   1.559
  683TIP3    H1 1994   0.699   3.287   1.584
  683TIP3    H2 1995   0.633   3.411   1.527
  684TIP3   OH2 1996   0.430   3.639   1.803
  684TIP3    H1 1997   0.369   3.677   1.867
  684TIP3    H2 1998   0.383   3.644   1.719
  685TIP3   OH2 1999   0.697   3.175   2.197
  685TIP3    H1 2000   0.765   3.116   2.165
  685TIP3    H2 2001   0.715   3.258   2.153
  686TIP3   OH2 2002   0.625   2.801   1.967
  686TIP3    H1 2003   0.563   2.842   2.027
  686TIP3    H2 2004   0.647   2.870   1.904
  687TIP3   OH2 2005   1.089   2.410   2.499
  687TIP3    H1 2006   1.150   2.348   2.460
  687TIP3    H2 2007   1.040   2.445   2.424
  688TIP3   OH2 2008   0.923   2.493   2.294
  688TIP3    H1 2009   0.836   2.526   2.315
  688TIP3    H2 2010   0.951   2.545   2.218
  689TIP3   OH2 2011   8.397   3.767   2.218
  689TIP3    H1 2012   8.415   3.770   2.312
  689TIP3    H2 2013   8.465   3.822   2.179
  690TIP3   OH2 2014   0.075   3.946   2.115
  690TIP3    H1 2015   0.148   3.897   2.077
  690TIP3    H2 2016   0.117   4.010   2.173
  691TIP3   OH2 2017   8.501   3.800   1.825
  691TIP3    H1 2018   8.433   3.858   1.860
  691TIP3    H2 2019   8.564   3.859   1.784
  692TIP3   OH2 2020   0.222   3.964   1.760
  692TIP3    H1 2021   0.209   4.048   1.717
  692TIP3    H2 2022   0.254   3.906   1.691
  693TIP3   OH2 2023   0.591   2.305   2.658
  693TIP3    H1 2024   0.610   2.247   2.732
  693TIP3    H2 2025   0.667   2.298   2.602
  694TIP3   OH2 2026   0.495   3.808   2.133
  694TIP3    H1 2027   0.418   3.782   2.082
  694TIP3    H2 2028   0.490   3.904   2.136
  695TIP3   OH2 2029   1.856   3.246   0.976
  695TIP3    H1 2030   1.868   3.341   0.971
  695TIP3    H2 2031   1.761   3.235   0.987
  696TIP3   OH2 2032   1.851   3.197   1.317
  696TIP3    H1 2033   1.881   3.179   1.406
  696TIP3    H2 2034   1.836   3.111   1.278
  697TIP3   OH2 2035   1.087   3.082   1.697
  697TIP3    H1 2036   1.106   3.009   1.756
  697TIP3    H2 2037   1.141   3.154   1.729
  698TIP3   OH2 2038   1.987   3.507   0.989
  698TIP3    H1 2039   2.024   3.442   1.049
  698TIP3    H2 2040   2.024   3.591   1.018
  699TIP3   OH2 2041   0.991   3.515   1.387
  699TIP3    H1 2042   0.984   3.422   1.369
  699TIP3    H2 2043   1.066   3.523   1.446
  700TIP3   OH2 2044   1.692   3.942   0.991
  700TIP3    H1 2045   1.746   3.874   0.952
  700TIP3    H2 2046   1.698   3.926   1.086
  701TIP3   OH2 2047   1.575   3.566   1.316
  701TIP3    H1 2048   1.600   3.564   1.224
  701TIP3    H2 2049   1.656   3.546   1.363
  702TIP3   OH2 2050   2.579   2.757   1.306
  702TIP3    H1 2051   2.601   2.830   1.363
  702TIP3    H2 2052   2.626   2.775   1.224
  703TIP3   OH2 2053   2.060   2.704   1.036
  703TIP3    H1 2054   2.105   2.664   0.962
  703TIP3    H2 2055   2.009   2.776   0.998
  704TIP3   OH2 2056   1.416   2.973   1.210
  704TIP3    H1 2057   1.460   2.933   1.285
  704TIP3    H2 2058   1.401   2.901   1.150
  705TIP3   OH2 2059   2.658   2.955   1.486
  705TIP3    H1 2060   2.568   2.988   1.486
  705TIP3    H2 2061   2.697   2.992   1.565
  706TIP3   OH2 2062   1.320   2.566   1.814
  706TIP3    H1 2063   1.286   2.478   1.797
  706TIP3    H2 2064   1.273   2.595   1.892
  707TIP3   OH2 2065   1.729   3.486   0.691
  707TIP3    H1 2066   1.719   3.426   0.617
  707TIP3    H2 2067   1.684   3.442   0.763
  708TIP3   OH2 2068   1.424   3.371   1.538
  708TIP3    H1 2069   1.347   3.425   1.557
  708TIP3    H2 2070   1.462   3.410   1.459
  709TIP3   OH2 2071   2.319   2.679   1.215
  709TIP3    H1 2072   2.342   2.590   1.241
  709TIP3    H2 2073   2.399   2.730   1.231
  710TIP3   OH2 2074   1.144   2.656   1.602
  710TIP3    H1 2075   1.232   2.641   1.637
  710TIP3    H2 2076   1.120   2.573   1.561
  711TIP3   OH2 2077   1.211   3.533   1.590
  711TIP3    H1 2078   1.212   3.621   1.554
  711TIP3    H2 2079   1.163   3.541   1.672
  712TIP3   OH2 2080   2.079   3.754   1.098
  712TIP3    H1 2081   1.997   3.748   1.147
  712TIP3    H2 2082   2.076   3.841   1.059
  713TIP3   OH2 2083   2.399   2.673   1.518
  713TIP3    H1 2084   2.310   2.675   1.484
  713TIP3    H2 2085   2.455   2.671   1.441
  714TIP3   OH2 2086   6.570   7.195   6.426
  714TIP3    H1 2087   6.559   7.110   6.383
  714TIP3    H2 2088   6.499   7.248   6.392
  715TIP3   OH2 2089   1.826   3.756   0.841
  715TIP3    H1 2090   1.876   3.678   0.815
  715TIP3    H2 2091   1.870   3.828   0.798
  716TIP3   OH2 2092   1.989   3.572   0.708
  716TIP3    H1 2093   1.909   3.520   0.699
  716TIP3    H2 2094   2.034   3.534   0.783
  717TIP3   OH2 2095   2.307   3.658   1.460
  717TIP3    H1 2096   2.300   3.580   1.405
  717TIP3    H2 2097   2.293   3.731   1.401
  718TIP3   OH2 2098   2.500   3.283   1.312
  718TIP3    H1 2099   2.421   3.335   1.321
  718TIP3    H2 2100   2.536   3.307   1.227
  719TIP3   OH2 2101   1.931   3.000   0.671
  719TIP3    H1 2102   1.860   3.065   0.669
  719TIP3    H2 2103   1.997   3.038   0.730
  720TIP3   OH2 2104   2.199   3.171   1.634
  720TIP3    H1 2105   2.198   3.256   1.678
  720TIP3    H2 2106   2.112   3.163   1.594
  721TIP3   OH2 2107   1.320   3.609   1.227
  721TIP3    H1 2108   1.275   3.525   1.241
  721TIP3    H2 2109   1.403   3.599   1.272
  722TIP3   OH2 2110   1.299   3.129   1.489
  722TIP3    H1 2111   1.362   3.087   1.431
  722TIP3    H2 2112   1.339   3.213   1.511
  723TIP3   OH2 2113   1.856   3.744   1.250
  723TIP3    H1 2114   1.834   3.826   1.294
  723TIP3    H2 2115   1.837   3.676   1.314
  724TIP3   OH2 2116   1.409   3.638   1.785
  724TIP3    H1 2117   1.336   3.665   1.840
  724TIP3    H2 2118   1.368   3.592   1.711
  725TIP3   OH2 2119   1.225   3.247   1.880
  725TIP3    H1 2120   1.225   3.341   1.899
  725TIP3    H2 2121   1.146   3.214   1.923
  726TIP3   OH2 2122   1.556   3.707   0.704
  726TIP3    H1 2123   1.635   3.666   0.741
  726TIP3    H2 2124   1.490   3.697   0.773
  727TIP3   OH2 2125   2.073   3.605   0.180
  727TIP3    H1 2126   2.161   3.638   0.161
  727TIP3    H2 2127   2.049   3.553   0.104
  728TIP3   OH2 2128   0.785   3.305   1.851
  728TIP3    H1 2129   0.815   3.330   1.764
  728TIP3    H2 2130   0.860   3.262   1.891
  729TIP3   OH2 2131   0.728   3.562   1.464
  729TIP3    H1 2132   0.821   3.552   1.441
  729TIP3    H2 2133   0.728   3.636   1.525
  730TIP3   OH2 2134   2.542   4.002   1.520
  730TIP3    H1 2135   2.548   3.908   1.536
  730TIP3    H2 2136   2.462   4.029   1.565
  731TIP3   OH2 2137   1.631   3.772   1.662
  731TIP3    H1 2138   1.629   3.865   1.686
  731TIP3    H2 2139   1.554   3.734   1.706
  732TIP3   OH2 2140   1.299   3.877   0.618
  732TIP3    H1 2141   1.353   3.929   0.559
  732TIP3    H2 2142   1.330   3.900   0.705
  733TIP3   OH2 2143   0.844   3.763   1.008
  733TIP3    H1 2144   0.901   3.755   1.085
  733TIP3    H2 2145   0.761   3.725   1.036
  734TIP3   OH2 2146   1.529   3.687   0.286
  734TIP3    H1 2147   1.607   3.706   0.234
  734TIP3    H2 2148   1.562   3.653   0.369
  735TIP3   OH2 2149   1.690   3.932   0.606
  735TIP3    H1 2150   1.650   3.845   0.611
  735TIP3    H2 2151   1.781   3.918   0.630
  736TIP3   OH2 2152   2.436   3.128   1.798
  736TIP3    H1 2153   2.356   3.138   1.748
  736TIP3    H2 2154   2.455   3.035   1.797
  737TIP3   OH2 2155   1.990   2.456   1.808
  737TIP3    H1 2156   2.063   2.445   1.868
  737TIP3    H2 2157   1.912   2.441   1.861
  738TIP3   OH2 2158   2.182   2.907   1.718
  738TIP3    H1 2159   2.145   2.906   1.806
  738TIP3    H2 2160   2.178   2.998   1.690
  739TIP3   OH2 2161   1.378   2.932   1.677
  739TIP3    H1 2162   1.312   2.914   1.744
  739TIP3    H2 2163   1.335   2.993   1.617
  740TIP3   OH2 2164   1.856   2.868   0.894
  740TIP3    H1 2165   1.772   2.912   0.881
  740TIP3    H2 2166   1.903   2.883   0.812
  741TIP3   OH2 2167   1.915   3.125   1.959
  741TIP3    H1 2168   1.890   3.058   2.023
  741TIP3    H2 2169   2.008   3.138   1.973
  742TIP3   OH2 2170   1.173   2.878   1.854
  742TIP3    H1 2171   1.153   2.898   1.945
  742TIP3    H2 2172   1.153   2.784   1.845
  743TIP3   OH2 2173   1.941   3.105   1.558
  743TIP3    H1 2174   1.935   3.018   1.517
  743TIP3    H2 2175   1.890   3.098   1.638
  744TIP3   OH2 2176   2.123   2.633   1.459
  744TIP3    H1 2177   2.083   2.670   1.537
  744TIP3    H2 2178   2.082   2.547   1.449
  745TIP3   OH2 2179   2.254   4.349   1.615
  745TIP3    H1 2180   2.254   4.367   1.520
  745TIP3    H2 2181   2.333   4.394   1.647
  746TIP3   OH2 2182   1.620   2.798   1.349
  746TIP3    H1 2183   1.693   2.853   1.323
  746TIP3    H2 2184   1.642   2.771   1.439
  747TIP3   OH2 2185   1.624   2.835   1.630
  747TIP3    H1 2186   1.539   2.872   1.656
  747TIP3    H2 2187   1.688   2.885   1.680
  748TIP3   OH2 2188   2.280   3.448   1.288
  748TIP3    H1 2189   2.315   3.497   1.213
  748TIP3    H2 2190   2.200   3.407   1.255
  749TIP3   OH2 2191   1.758   3.508   1.698
  749TIP3    H1 2192   1.808   3.509   1.780
  749TIP3    H2 2193   1.713   3.592   1.696
  750TIP3   OH2 2194   1.045   3.207   1.413
  750TIP3    H1 2195   1.038   3.144   1.342
  750TIP3    H2 2196   1.116   3.173   1.468
  751TIP3   OH2 2197   0.972   3.157   1.975
  751TIP3    H1 2198   1.000   3.201   2.055
  751TIP3    H2 2199   0.979   3.064   1.995
  752TIP3   OH2 2200   1.679   3.279   1.987
  752TIP3    H1 2201   1.609   3.217   1.968
  752TIP3    H2 2202   1.760   3.233   1.963
  753TIP3   OH2 2203   1.905   3.803   1.570
  753TIP3    H1 2204   1.812   3.785   1.584
  753TIP3    H2 2205   1.934   3.843   1.652
  754TIP3   OH2 2206   2.295   2.836   0.475
  754TIP3    H1 2207   2.240   2.763   0.445
  754TIP3    H2 2208   2.270   2.909   0.418
  755TIP3   OH2 2209   2.557   3.719   1.548
  755TIP3    H1 2210   2.462   3.710   1.542
  755TIP3    H2 2211   2.589   3.692   1.462
  756TIP3   OH2 2212   2.056   3.671   0.453
  756TIP3    H1 2213   2.043   3.620   0.532
  756TIP3    H2 2214   2.060   3.607   0.382
  757TIP3   OH2 2215   2.061   3.319   1.187
  757TIP3    H1 2216   1.979   3.302   1.234
  757TIP3    H2 2217   2.083   3.235   1.145
  758TIP3   OH2 2218   1.130   3.527   0.995
  758TIP3    H1 2219   1.117   3.622   1.002
  758TIP3    H2 2220   1.046   3.489   1.020
  759TIP3   OH2 2221   1.293   3.320   0.850
  759TIP3    H1 2222   1.311   3.401   0.897
  759TIP3    H2 2223   1.269   3.257   0.919
  760TIP3   OH2 2224   1.462   3.878   1.440
  760TIP3    H1 2225   1.507   3.944   1.388
  760TIP3    H2 2226   1.532   3.835   1.489
  761TIP3   OH2 2227   1.107   3.815   0.909
  761TIP3    H1 2228   1.027   3.830   0.960
  761TIP3    H2 2229   1.140   3.902   0.889
  762TIP3   OH2 2230   1.824   3.520   1.428
  762TIP3    H1 2231   1.803   3.509   1.521
  762TIP3    H2 2232   1.915   3.489   1.421
  763TIP3   OH2 2233   1.802   3.437   0.211
  763TIP3    H1 2234   1.876   3.419   0.269
  763TIP3    H2 2235   1.732   3.381   0.244
  764TIP3   OH2 2236   2.065   4.021   1.453
  764TIP3    H1 2237   1.993   3.960   1.465
  764TIP3    H2 2238   2.035   4.079   1.382
  765TIP3   OH2 2239   2.133   3.886   0.140
  765TIP3    H1 2240   2.136   3.964   0.195
  765TIP3    H2 2241   2.066   3.831   0.180
  766TIP3   OH2 2242   1.174   2.631   2.035
  766TIP3    H1 2243   1.145   2.712   2.077
  766TIP3    H2 2244   1.211   2.579   2.106
  767TIP3   OH2 2245   1.991   3.393   0.399
  767TIP3    H1 2246   1.949   3.355   0.476
  767TIP3    H2 2247   2.085   3.391   0.419
  768TIP3   OH2 2248   0.888   3.778   1.627
  768TIP3    H1 2249   0.940   3.722   1.684
  768TIP3    H2 2250   0.895   3.865   1.665
  769TIP3   OH2 2251   1.987   2.703   1.692
  769TIP3    H1 2252   2.058   2.755   1.729
  769TIP3    H2 2253   1.988   2.622   1.743
  770TIP3   OH2 2254   1.247   3.639   0.439
  770TIP3    H1 2255   1.320   3.586   0.469
  770TIP3    H2 2256   1.284   3.727   0.428
  771TIP3   OH2 2257   1.829   2.952   1.766
  771TIP3    H1 2258   1.850   3.014   1.836
  771TIP3    H2 2259   1.883   2.875   1.785
  772TIP3   OH2 2260   2.450   2.857   1.718
  772TIP3    H1 2261   2.355   2.866   1.729
  772TIP3    H2 2262   2.461   2.796   1.645
  773TIP3   OH2 2263   2.099   4.024   1.028
  773TIP3    H1 2264   2.061   4.077   0.958
  773TIP3    H2 2265   2.194   4.034   1.016
  774TIP3   OH2 2266   0.877   4.066   2.014
  774TIP3    H1 2267   0.956   4.060   2.069
  774TIP3    H2 2268   0.847   3.975   2.008
  775TIP3   OH2 2269   1.338   3.967   2.060
  775TIP3    H1 2270   1.430   3.939   2.067
  775TIP3    H2 2271   1.296   3.897   2.010
  776TIP3   OH2 2272   1.980   3.909   1.809
  776TIP3    H1 2273   1.987   3.841   1.876
  776TIP3    H2 2274   2.052   3.969   1.827
  777TIP3   OH2 2275   1.751   3.693   0.126
  777TIP3    H1 2276   1.774   3.603   0.150
  777TIP3    H2 2277   1.768   3.697   0.032
  778TIP3   OH2 2278   0.964   3.462   2.259
  778TIP3    H1 2279   1.013   3.384   2.235
  778TIP3    H2 2280   0.887   3.461   2.201
  779TIP3   OH2 2281   1.600   3.550   1.980
  779TIP3    H1 2282   1.538   3.559   1.907
  779TIP3    H2 2283   1.631   3.460   1.974
  780TIP3   OH2 2284   2.078   3.577   1.591
  780TIP3    H1 2285   2.158   3.611   1.552
  780TIP3    H2 2286   2.015   3.648   1.584
  781TIP3   OH2 2287   1.086   3.212   2.212
  781TIP3    H1 2288   1.089   3.117   2.204
  781TIP3    H2 2289   1.132   3.230   2.294
  782TIP3   OH2 2290   1.475   3.111   1.900
  782TIP3    H1 2291   1.386   3.147   1.906
  782TIP3    H2 2292   1.505   3.136   1.812
  783TIP3   OH2 2293   1.966   3.464   1.967
  783TIP3    H1 2294   2.041   3.430   1.917
  783TIP3    H2 2295   1.961   3.409   2.044
  784TIP3   OH2 2296   1.584   2.872   1.991
  784TIP3    H1 2297   1.571   2.795   1.936
  784TIP3    H2 2298   1.539   2.942   1.944
  785TIP3   OH2 2299   1.584   2.639   1.820
  785TIP3    H1 2300   1.598   2.692   1.741
  785TIP3    H2 2301   1.491   2.615   1.816
  786TIP3   OH2 2302   1.606   3.228   1.680
  786TIP3    H1 2303   1.675   3.291   1.704
  786TIP3    H2 2304   1.539   3.282   1.638
  787TIP3   OH2 2305   2.187   3.139   2.038
  787TIP3    H1 2306   2.233   3.056   2.054
  787TIP3    H2 2307   2.257   3.202   2.024
  788TIP3   OH2 2308   2.213   3.415   1.767
  788TIP3    H1 2309   2.157   3.472   1.715
  788TIP3    H2 2310   2.302   3.433   1.735
  789TIP3   OH2 2311   1.464   2.954   2.236
  789TIP3    H1 2312   1.397   2.888   2.255
  789TIP3    H2 2313   1.484   2.942   2.143
  790TIP3   OH2 2314   1.716   2.403   1.868
  790TIP3    H1 2315   1.678   2.491   1.860
  790TIP3    H2 2316   1.641   2.344   1.858
  791TIP3   OH2 2317   1.836   2.903   2.096
  791TIP3    H1 2318   1.825   2.887   2.190
  791TIP3    H2 2319   1.749   2.887   2.059
  792TIP3   OH2 2320   2.066   2.845   1.953
  792TIP3    H1 2321   1.992   2.854   2.013
  792TIP3    H2 2322   2.141   2.828   2.009
  793TIP3   OH2 2323   2.302   2.822   2.100
  793TIP3    H1 2324   2.322   2.728   2.108
  793TIP3    H2 2325   2.300   2.853   2.191
  794TIP3   OH2 2326   1.326   2.726   2.306
  794TIP3    H1 2327   1.298   2.637   2.284
  794TIP3    H2 2328   1.351   2.720   2.398
  795TIP3   OH2 2329   1.776   2.402   2.143
  795TIP3    H1 2330   1.845   2.337   2.144
  795TIP3    H2 2331   1.744   2.403   2.053
  796TIP3   OH2 2332   1.865   2.617   2.293
  796TIP3    H1 2333   1.834   2.546   2.237
  796TIP3    H2 2334   1.793   2.680   2.295
  797TIP3   OH2 2335   0.670   3.684   1.209
  797TIP3    H1 2336   0.667   3.615   1.275
  797TIP3    H2 2337   0.672   3.765   1.260
  798TIP3   OH2 2338   2.369   4.077   1.017
  798TIP3    H1 2339   2.390   4.103   1.107
  798TIP3    H2 2340   2.427   4.131   0.962
  799TIP3   OH2 2341   2.390   4.103   1.297
  799TIP3    H1 2342   2.340   4.022   1.291
  799TIP3    H2 2343   2.458   4.085   1.361
  800TIP3   OH2 2344   2.433   3.802   1.864
  800TIP3    H1 2345   2.362   3.810   1.928
  800TIP3    H2 2346   2.479   3.885   1.870
  801TIP3   OH2 2347   2.251   3.420   0.506
  801TIP3    H1 2348   2.305   3.485   0.461
  801TIP3    H2 2349   2.300   3.338   0.498
  802TIP3   OH2 2350   2.402   3.201   0.749
  802TIP3    H1 2351   2.408   3.114   0.789
  802TIP3    H2 2352   2.482   3.245   0.776
  803TIP3   OH2 2353   2.436   3.581   1.109
  803TIP3    H1 2354   2.491   3.512   1.070
  803TIP3    H2 2355   2.439   3.652   1.045
  804TIP3   OH2 2356   2.242   3.869   1.297
  804TIP3    H1 2357   2.173   3.910   1.349
  804TIP3    H2 2358   2.197   3.826   1.225
  805TIP3   OH2 2359   2.283   3.037   0.293
  805TIP3    H1 2360   2.206   3.014   0.241
  805TIP3    H2 2361   2.249   3.094   0.362
  806TIP3   OH2 2362   2.152   3.046   0.827
  806TIP3    H1 2363   2.161   2.953   0.806
  806TIP3    H2 2364   2.227   3.066   0.883
  807TIP3   OH2 2365   0.854   3.199   1.603
  807TIP3    H1 2366   0.897   3.213   1.518
  807TIP3    H2 2367   0.920   3.154   1.656
  808TIP3   OH2 2368   2.473   3.459   1.675
  808TIP3    H1 2369   2.537   3.390   1.660
  808TIP3    H2 2370   2.500   3.530   1.617
  809TIP3   OH2 2371   2.647   3.245   1.669
  809TIP3    H1 2372   2.575   3.206   1.718
  809TIP3    H2 2373   2.722   3.189   1.687
  810TIP3   OH2 2374   2.148   2.794   0.740
  810TIP3    H1 2375   2.153   2.699   0.754
  810TIP3    H2 2376   2.104   2.803   0.655
  811TIP3   OH2 2377   2.392   3.062   1.451
  811TIP3    H1 2378   2.332   3.106   1.511
  811TIP3    H2 2379   2.429   3.132   1.398
  812TIP3   OH2 2380   2.868   2.679   1.991
  812TIP3    H1 2381   2.930   2.618   1.952
  812TIP3    H2 2382   2.833   2.728   1.916
  813TIP3   OH2 2383   2.123   2.534   0.817
  813TIP3    H1 2384   2.208   2.540   0.861
  813TIP3    H2 2385   2.109   2.440   0.805
  814TIP3   OH2 2386   2.719   2.797   1.793
  814TIP3    H1 2387   2.635   2.835   1.820
  814TIP3    H2 2388   2.695   2.720   1.742
  815TIP3   OH2 2389   1.948   3.955   0.699
  815TIP3    H1 2390   2.018   3.941   0.636
  815TIP3    H2 2391   1.973   4.035   0.745
  816TIP3   OH2 2392   1.215   3.787   1.503
  816TIP3    H1 2393   1.167   3.867   1.522
  816TIP3    H2 2394   1.306   3.814   1.494
  817TIP3   OH2 2395   1.641   4.046   1.721
  817TIP3    H1 2396   1.676   4.040   1.810
  817TIP3    H2 2397   1.703   4.101   1.675
  818TIP3   OH2 2398   1.831   4.207   1.598
  818TIP3    H1 2399   1.899   4.151   1.561
  818TIP3    H2 2400   1.879   4.268   1.655
  819TIP3   OH2 2401   2.636   2.553   1.690
  819TIP3    H1 2402   2.545   2.538   1.665
  819TIP3    H2 2403   2.678   2.467   1.685
  820TIP3   OH2 2404   0.897   4.075   1.632
  820TIP3    H1 2405   0.805   4.095   1.611
  820TIP3    H2 2406   0.919   4.134   1.704
  821TIP3   OH2 2407   1.130   4.055   1.483
  821TIP3    H1 2408   1.049   4.060   1.534
  821TIP3    H2 2409   1.103   4.080   1.395
  822TIP3   OH2 2410   1.548   4.084   1.265
  822TIP3    H1 2411   1.468   4.097   1.214
  822TIP3    H2 2412   1.557   4.165   1.316
  823TIP3   OH2 2413   1.807   4.010   1.310
  823TIP3    H1 2414   1.716   4.036   1.299
  823TIP3    H2 2415   1.858   4.084   1.277
  824TIP3   OH2 2416   2.010   4.189   1.231
  824TIP3    H1 2417   2.006   4.276   1.190
  824TIP3    H2 2418   2.041   4.132   1.161
  825TIP3   OH2 2419   0.822   3.874   1.375
  825TIP3    H1 2420   0.847   3.850   1.464
  825TIP3    H2 2421   0.885   3.828   1.319
  826TIP3   OH2 2422   1.010   3.742   1.222
  826TIP3    H1 2423   1.012   3.662   1.274
  826TIP3    H2 2424   1.097   3.781   1.233
  827TIP3   OH2 2425   1.267   3.870   1.223
  827TIP3    H1 2426   1.289   3.778   1.208
  827TIP3    H2 2427   1.297   3.887   1.312
  828TIP3   OH2 2428   1.810   2.427   1.298
  828TIP3    H1 2429   1.848   2.412   1.385
  828TIP3    H2 2430   1.804   2.339   1.260
  829TIP3   OH2 2431   2.433   2.454   1.323
  829TIP3    H1 2432   2.502   2.458   1.257
  829TIP3    H2 2433   2.370   2.391   1.287
  830TIP3   OH2 2434   2.605   2.475   1.113
  830TIP3    H1 2435   2.671   2.409   1.092
  830TIP3    H2 2436   2.616   2.543   1.047
  831TIP3   OH2 2437   2.109   2.478   1.226
  831TIP3    H1 2438   2.050   2.442   1.160
  831TIP3    H2 2439   2.140   2.402   1.275
  832TIP3   OH2 2440   1.319   3.868   0.295
  832TIP3    H1 2441   1.397   3.815   0.278
  832TIP3    H2 2442   1.252   3.832   0.238
  833TIP3   OH2 2443   2.129   3.924   0.494
  833TIP3    H1 2444   2.116   3.830   0.481
  833TIP3    H2 2445   2.097   3.964   0.413
  834TIP3   OH2 2446   1.301   2.450   2.213
  834TIP3    H1 2447   1.273   2.377   2.268
  834TIP3    H2 2448   1.392   2.466   2.238
  835TIP3   OH2 2449   1.551   2.455   2.331
  835TIP3    H1 2450   1.630   2.431   2.282
  835TIP3    H2 2451   1.545   2.389   2.400
  836TIP3   OH2 2452   2.378   2.558   2.122
  836TIP3    H1 2453   2.394   2.524   2.210
  836TIP3    H2 2454   2.461   2.546   2.076
  837TIP3   OH2 2455   2.292   4.074   1.613
  837TIP3    H1 2456   2.215   4.044   1.565
  837TIP3    H2 2457   2.278   4.168   1.625
  838TIP3   OH2 2458   3.571   3.463   0.364
  838TIP3    H1 2459   3.544   3.551   0.337
  838TIP3    H2 2460   3.504   3.405   0.328
  839TIP3   OH2 2461   3.570   3.456   0.781
  839TIP3    H1 2462   3.621   3.440   0.861
  839TIP3    H2 2463   3.529   3.372   0.763
  840TIP3   OH2 2464   2.868   3.320   1.132
  840TIP3    H1 2465   2.904   3.267   1.204
  840TIP3    H2 2466   2.945   3.347   1.082
  841TIP3   OH2 2467   3.832   3.764   0.451
  841TIP3    H1 2468   3.821   3.697   0.518
  841TIP3    H2 2469   3.855   3.843   0.500
  842TIP3   OH2 2470   2.854   3.747   0.821
  842TIP3    H1 2471   2.838   3.653   0.827
  842TIP3    H2 2472   2.949   3.755   0.812
  843TIP3   OH2 2473   2.589   3.007   0.634
  843TIP3    H1 2474   2.610   3.080   0.691
  843TIP3    H2 2475   2.540   2.946   0.689
  844TIP3   OH2 2476   2.652   3.276   0.816
  844TIP3    H1 2477   2.700   3.206   0.859
  844TIP3    H2 2478   2.717   3.345   0.802
  845TIP3   OH2 2479   3.483   4.200   0.465
  845TIP3    H1 2480   3.525   4.135   0.407
  845TIP3    H2 2481   3.483   4.158   0.551
  846TIP3   OH2 2482   3.371   3.678   0.788
  846TIP3    H1 2483   3.413   3.598   0.757
  846TIP3    H2 2484   3.444   3.733   0.818
  847TIP3   OH2 2485   4.402   2.998   0.803
  847TIP3    H1 2486   4.420   3.081   0.846
  847TIP3    H2 2487   4.424   3.014   0.711
  848TIP3   OH2 2488   3.789   3.167   0.827
  848TIP3    H1 2489   3.825   3.082   0.854
  848TIP3    H2 2490   3.748   3.150   0.743
  849TIP3   OH2 2491   3.183   2.878   0.830
  849TIP3    H1 2492   3.158   2.954   0.776
  849TIP3    H2 2493   3.141   2.804   0.788
  850TIP3   OH2 2494   3.834   2.937   0.416
  850TIP3    H1 2495   3.897   2.924   0.487
  850TIP3    H2 2496   3.888   2.968   0.343
  851TIP3   OH2 2497   2.764   3.061   0.935
  851TIP3    H1 2498   2.841   3.052   0.991
  851TIP3    H2 2499   2.782   3.003   0.861
  852TIP3   OH2 2500   3.203   3.273   0.737
  852TIP3    H1 2501   3.297   3.254   0.744
  852TIP3    H2 2502   3.164   3.190   0.711
  853TIP3   OH2 2503   4.463   3.217   0.969
  853TIP3    H1 2504   4.373   3.251   0.964
  853TIP3    H2 2505   4.496   3.250   1.052
  854TIP3   OH2 2506   3.117   2.818   1.240
  854TIP3    H1 2507   3.065   2.855   1.169
  854TIP3    H2 2508   3.063   2.829   1.318
  855TIP3   OH2 2509   3.479   3.683   0.219
  855TIP3    H1 2510   3.442   3.659   0.134
  855TIP3    H2 2511   3.425   3.755   0.249
  856TIP3   OH2 2512   3.217   3.609   1.007
  856TIP3    H1 2513   3.162   3.680   1.039
  856TIP3    H2 2514   3.264   3.647   0.932
  857TIP3   OH2 2515   3.996   2.946   0.636
  857TIP3    H1 2516   3.957   2.921   0.720
  857TIP3    H2 2517   4.052   3.021   0.657
  858TIP3   OH2 2518   3.004   2.952   1.029
  858TIP3    H1 2519   3.058   3.026   1.059
  858TIP3    H2 2520   3.055   2.912   0.959
  859TIP3   OH2 2521   3.053   3.806   1.107
  859TIP3    H1 2522   3.038   3.896   1.077
  859TIP3    H2 2523   2.976   3.785   1.159
  860TIP3   OH2 2524   2.447   3.550   0.350
  860TIP3    H1 2525   2.441   3.587   0.262
  860TIP3    H2 2526   2.479   3.621   0.405
  861TIP3   OH2 2527   3.872   4.008   0.594
  861TIP3    H1 2528   3.785   4.000   0.633
  861TIP3    H2 2529   3.870   4.093   0.549
  862TIP3   OH2 2530   4.198   2.891   0.970
  862TIP3    H1 2531   4.112   2.912   0.933
  862TIP3    H2 2532   4.260   2.919   0.903
  863TIP3   OH2 2533   3.485   2.543   0.975
  863TIP3    H1 2534   3.479   2.451   0.999
  863TIP3    H2 2535   3.412   2.585   1.020
  864TIP3   OH2 2536   3.595   4.043   0.265
  864TIP3    H1 2537   3.642   3.961   0.251
  864TIP3    H2 2538   3.656   4.111   0.237
  865TIP3   OH2 2539   3.733   3.815   0.197
  865TIP3    H1 2540   3.663   3.751   0.192
  865TIP3    H2 2541   3.780   3.793   0.278
  866TIP3   OH2 2542   4.107   3.899   0.941
  866TIP3    H1 2543   4.090   3.824   0.884
  866TIP3    H2 2544   4.091   3.975   0.886
  867TIP3   OH2 2545   3.408   3.305   0.201
  867TIP3    H1 2546   3.329   3.356   0.188
  867TIP3    H2 2547   3.436   3.281   0.112
  868TIP3   OH2 2548   6.209   7.121   6.874
  868TIP3    H1 2549   6.294   7.164   6.885
  868TIP3    H2 2550   6.231   7.029   6.860
  869TIP3   OH2 2551   4.290   3.557   0.804
  869TIP3    H1 2552   4.206   3.602   0.805
  869TIP3    H2 2553   4.325   3.572   0.716
  870TIP3   OH2 2554   3.756   3.388   0.177
  870TIP3    H1 2555   3.700   3.415   0.250
  870TIP3    H2 2556   3.838   3.363   0.217
  871TIP3   OH2 2557   3.984   3.421   1.114
  871TIP3    H1 2558   3.981   3.504   1.161
  871TIP3    H2 2559   3.901   3.419   1.065
  872TIP3   OH2 2560   2.996   3.389   0.585
  872TIP3    H1 2561   2.951   3.319   0.538
  872TIP3    H2 2562   3.073   3.347   0.624
  873TIP3   OH2 2563   3.116   3.795   0.720
  873TIP3    H1 2564   3.094   3.778   0.628
  873TIP3    H2 2565   3.203   3.756   0.730
  874TIP3   OH2 2566   3.084   3.376   0.961
  874TIP3    H1 2567   3.127   3.342   0.882
  874TIP3    H2 2568   3.131   3.457   0.982
  875TIP3   OH2 2569   3.635   4.000   0.726
  875TIP3    H1 2570   3.622   4.080   0.777
  875TIP3    H2 2571   3.620   3.929   0.789
  876TIP3   OH2 2572   3.254   3.904   1.273
  876TIP3    H1 2573   3.194   3.962   1.320
  876TIP3    H2 2574   3.197   3.852   1.216
  877TIP3   OH2 2575   6.445   7.252   6.931
  877TIP3    H1 2576   6.494   7.312   6.987
  877TIP3    H2 2577   6.468   7.278   6.842
  878TIP3   OH2 2578   3.010   3.456   1.407
  878TIP3    H1 2579   3.013   3.549   1.431
  878TIP3    H2 2580   2.917   3.436   1.401
  879TIP3   OH2 2581   3.339   3.917   0.269
  879TIP3    H1 2582   3.417   3.972   0.282
  879TIP3    H2 2583   3.278   3.974   0.222
  880TIP3   OH2 2584   3.042   4.062   1.358
  880TIP3    H1 2585   3.016   4.071   1.266
  880TIP3    H2 2586   2.960   4.047   1.405
  881TIP3   OH2 2587   4.074   2.493   0.021
  881TIP3    H1 2588   4.007   2.520   0.085
  881TIP3    H2 2589   4.107   2.576  -0.015
  882TIP3   OH2 2590   2.853   3.202   0.440
  882TIP3    H1 2591   2.783   3.243   0.389
  882TIP3    H2 2592   2.854   3.111   0.411
  883TIP3   OH2 2593   2.634   3.617   1.308
  883TIP3    H1 2594   2.567   3.598   1.243
  883TIP3    H2 2595   2.669   3.532   1.333
  884TIP3   OH2 2596   2.495   3.804   0.951
  884TIP3    H1 2597   2.591   3.811   0.949
  884TIP3    H2 2598   2.467   3.882   0.999
  885TIP3   OH2 2599   4.338   4.263   1.005
  885TIP3    H1 2600   4.344   4.169   1.018
  885TIP3    H2 2601   4.258   4.289   1.051
  886TIP3   OH2 2602   3.442   4.046   1.132
  886TIP3    H1 2603   3.436   4.137   1.162
  886TIP3    H2 2604   3.376   4.000   1.183
  887TIP3   OH2 2605   3.204   4.147   0.097
  887TIP3    H1 2606   3.159   4.124   0.016
  887TIP3    H2 2607   3.171   4.233   0.120
  888TIP3   OH2 2608   2.669   4.016   0.476
  888TIP3    H1 2609   2.714   4.009   0.560
  888TIP3    H2 2610   2.619   3.934   0.469
  889TIP3   OH2 2611   0.580   0.054   6.712
  889TIP3    H1 2612   0.654   0.009   6.671
  889TIP3    H2 2613   0.608   0.069   6.802
  890TIP3   OH2 2614   3.466   4.123   0.031
  890TIP3    H1 2615   3.376   4.123   0.062
  890TIP3    H2 2616   3.518   4.090   0.104
  891TIP3   OH2 2617   4.230   3.374   1.273
  891TIP3    H1 2618   4.147   3.384   1.228
  891TIP3    H2 2619   4.248   3.280   1.271
  892TIP3   OH2 2620   2.835   3.803   1.276
  892TIP3    H1 2621   2.886   3.792   1.356
  892TIP3    H2 2622   2.764   3.740   1.284
  893TIP3   OH2 2623   3.252   2.617   1.102
  893TIP3    H1 2624   3.189   2.559   1.060
  893TIP3    H2 2625   3.199   2.686   1.141
  894TIP3   OH2 2626   3.767   2.737   1.293
  894TIP3    H1 2627   3.836   2.712   1.355
  894TIP3    H2 2628   3.685   2.720   1.340
  895TIP3   OH2 2629   3.987   3.158   1.206
  895TIP3    H1 2630   3.945   3.154   1.292
  895TIP3    H2 2631   3.970   3.247   1.175
  896TIP3   OH2 2632   6.502   7.323   6.674
  896TIP3    H1 2633   6.541   7.296   6.591
  896TIP3    H2 2634   6.483   7.416   6.664
  897TIP3   OH2 2635   3.237   2.633   0.060
  897TIP3    H1 2636   3.277   2.626   0.147
  897TIP3    H2 2637   3.290   2.576   0.004
  898TIP3   OH2 2638   3.169   3.156   1.110
  898TIP3    H1 2639   3.124   3.164   1.195
  898TIP3    H2 2640   3.148   3.238   1.065
  899TIP3   OH2 2641   3.070   3.055   0.654
  899TIP3    H1 2642   2.981   3.023   0.666
  899TIP3    H2 2643   3.091   3.032   0.563
  900TIP3   OH2 2644   3.555   3.115   0.335
  900TIP3    H1 2645   3.500   3.182   0.294
  900TIP3    H2 2646   3.607   3.079   0.264
  901TIP3   OH2 2647   3.706   3.365   1.420
  901TIP3    H1 2648   3.679   3.297   1.482
  901TIP3    H2 2649   3.798   3.381   1.441
  902TIP3   OH2 2650   3.691   3.117   0.576
  902TIP3    H1 2651   3.633   3.149   0.508
  902TIP3    H2 2652   3.738   3.044   0.536
  903TIP3   OH2 2653   2.995   3.156   1.324
  903TIP3    H1 2654   3.014   3.214   1.398
  903TIP3    H2 2655   2.976   3.072   1.364
  904TIP3   OH2 2656   5.822   6.629   6.888
  904TIP3    H1 2657   5.913   6.627   6.916
  904TIP3    H2 2658   5.786   6.708   6.928
  905TIP3   OH2 2659   2.594   2.683   0.926
  905TIP3    H1 2660   2.654   2.738   0.976
  905TIP3    H2 2661   2.589   2.725   0.840
  906TIP3   OH2 2662   2.496   2.669   0.395
  906TIP3    H1 2663   2.576   2.718   0.417
  906TIP3    H2 2664   2.425   2.732   0.409
  907TIP3   OH2 2665   3.728   3.368   0.998
  907TIP3    H1 2666   3.756   3.301   0.935
  907TIP3    H2 2667   3.686   3.318   1.068
  908TIP3   OH2 2668   3.442   2.867   0.715
  908TIP3    H1 2669   3.364   2.871   0.771
  908TIP3    H2 2670   3.512   2.837   0.774
  909TIP3   OH2 2671   2.842   2.909   0.722
  909TIP3    H1 2672   2.771   2.897   0.659
  909TIP3    H2 2673   2.899   2.833   0.709
  910TIP3   OH2 2674   3.165   2.974   0.408
  910TIP3    H1 2675   3.253   2.956   0.443
  910TIP3    H2 2676   3.174   2.959   0.314
  911TIP3   OH2 2677   3.867   2.905   0.884
  911TIP3    H1 2678   3.846   2.925   0.975
  911TIP3    H2 2679   3.800   2.843   0.857
  912TIP3   OH2 2680   2.915   2.841   0.087
  912TIP3    H1 2681   2.821   2.840   0.103
  912TIP3    H2 2682   2.937   2.933   0.080
  913TIP3   OH2 2683   4.049   4.605   1.101
  913TIP3    H1 2684   4.045   4.623   1.007
  913TIP3    H2 2685   4.128   4.651   1.131
  914TIP3   OH2 2686   2.993   3.719   1.509
  914TIP3    H1 2687   3.074   3.739   1.556
  914TIP3    H2 2688   2.924   3.726   1.575
  915TIP3   OH2 2689   3.464   3.188   0.780
  915TIP3    H1 2690   3.523   3.131   0.729
  915TIP3    H2 2691   3.458   3.146   0.865
  916TIP3   OH2 2692   3.030   2.708   0.686
  916TIP3    H1 2693   2.981   2.645   0.739
  916TIP3    H2 2694   3.083   2.655   0.628
  917TIP3   OH2 2695   3.429   3.088   1.041
  917TIP3    H1 2696   3.342   3.119   1.067
  917TIP3    H2 2697   3.490   3.137   1.096
  918TIP3   OH2 2698   3.191   3.471   0.155
  918TIP3    H1 2699   3.108   3.429   0.133
  918TIP3    H2 2700   3.175   3.512   0.240
  919TIP3   OH2 2701   4.053   3.694   0.763
  919TIP3    H1 2702   4.088   3.743   0.690
  919TIP3    H2 2703   3.972   3.654   0.729
  920TIP3   OH2 2704   6.581   6.802   6.895
  920TIP3    H1 2705   6.525   6.736   6.937
  920TIP3    H2 2706   6.565   6.882   6.945
  921TIP3   OH2 2707   3.567   3.778   1.170
  921TIP3    H1 2708   3.617   3.766   1.251
  921TIP3    H2 2709   3.528   3.864   1.178
  922TIP3   OH2 2710   3.711   3.020   0.118
  922TIP3    H1 2711   3.803   3.037   0.139
  922TIP3    H2 2712   3.684   3.096   0.066
  923TIP3   OH2 2713   2.859   3.462   0.812
  923TIP3    H1 2714   2.900   3.449   0.727
  923TIP3    H2 2715   2.925   3.435   0.875
  924TIP3   OH2 2716   6.177   7.622   6.915
  924TIP3    H1 2717   6.131   7.706   6.919
  924TIP3    H2 2718   6.126   7.565   6.974
  925TIP3   OH2 2719   2.736   3.391   1.439
  925TIP3    H1 2720   2.747   3.372   1.532
  925TIP3    H2 2721   2.667   3.330   1.411
  926TIP3   OH2 2722   3.473   3.519   1.459
  926TIP3    H1 2723   3.405   3.458   1.430
  926TIP3    H2 2724   3.555   3.478   1.431
  927TIP3   OH2 2725   3.714   4.062   1.054
  927TIP3    H1 2726   3.619   4.050   1.060
  927TIP3    H2 2727   3.738   4.101   1.138
  928TIP3   OH2 2728   6.943   7.124   6.897
  928TIP3    H1 2729   6.889   7.087   6.827
  928TIP3    H2 2730   6.954   7.216   6.873
  929TIP3   OH2 2731   4.352   3.983   1.032
  929TIP3    H1 2732   4.258   3.969   1.029
  929TIP3    H2 2733   4.384   3.951   0.947
  930TIP3   OH2 2734   6.646   7.913   6.836
  930TIP3    H1 2735   6.634   7.882   6.926
  930TIP3    H2 2736   6.640   7.834   6.783
  931TIP3   OH2 2737   3.821   3.562   0.659
  931TIP3    H1 2738   3.732   3.540   0.684
  931TIP3    H2 2739   3.857   3.481   0.623
  932TIP3   OH2 2740   2.969   3.801   0.473
  932TIP3    H1 2741   2.967   3.878   0.416
  932TIP3    H2 2742   2.878   3.788   0.499
  933TIP3   OH2 2743   2.526   3.117   0.114
  933TIP3    H1 2744   2.558   3.196   0.158
  933TIP3    H2 2745   2.443   3.098   0.157
  934TIP3   OH2 2746   3.077   3.565   0.383
  934TIP3    H1 2747   3.050   3.651   0.414
  934TIP3    H2 2748   3.052   3.505   0.454
  935TIP3   OH2 2749   3.257   4.120   0.927
  935TIP3    H1 2750   3.295   4.193   0.877
  935TIP3    H2 2751   3.331   4.086   0.979
  936TIP3   OH2 2752   2.893   4.027   0.320
  936TIP3    H1 2753   2.807   4.031   0.363
  936TIP3    H2 2754   2.926   4.116   0.326
  937TIP3   OH2 2755   3.609   3.778   0.897
  937TIP3    H1 2756   3.596   3.775   0.992
  937TIP3    H2 2757   3.686   3.725   0.881
  938TIP3   OH2 2758   6.404   7.583   6.736
  938TIP3    H1 2759   6.480   7.590   6.794
  938TIP3    H2 2760   6.329   7.607   6.790
  939TIP3   OH2 2761   3.865   4.279   0.940
  939TIP3    H1 2762   3.794   4.217   0.954
  939TIP3    H2 2763   3.835   4.334   0.867
  940TIP3   OH2 2764   2.941   2.904   1.442
  940TIP3    H1 2765   2.845   2.905   1.443
  940TIP3    H2 2766   2.965   2.854   1.520
  941TIP3   OH2 2767   3.773   3.580  -0.023
  941TIP3    H1 2768   3.755   3.524   0.052
  941TIP3    H2 2769   3.869   3.585  -0.028
  942TIP3   OH2 2770   2.683   4.006   1.094
  942TIP3    H1 2771   2.734   3.941   1.144
  942TIP3    H2 2772   2.700   4.089   1.139
  943TIP3   OH2 2773   5.817   7.643   6.736
  943TIP3    H1 2774   5.895   7.589   6.722
  943TIP3    H2 2775   5.803   7.640   6.830
  944TIP3   OH2 2776   2.932   3.663   0.072
  944TIP3    H1 2777   2.973   3.626   0.150
  944TIP3    H2 2778   2.943   3.758   0.082
  945TIP3   OH2 2779   2.668   3.340   0.289
  945TIP3    H1 2780   2.611   3.378   0.356
  945TIP3    H2 2781   2.638   3.379   0.207
  946TIP3   OH2 2782   3.797   2.965   1.142
  946TIP3    H1 2783   3.873   3.011   1.177
  946TIP3    H2 2784   3.787   2.888   1.198
  947TIP3   OH2 2785   3.688   2.711   0.331
  947TIP3    H1 2786   3.637   2.718   0.251
  947TIP3    H2 2787   3.724   2.799   0.344
  948TIP3   OH2 2788   6.027   7.848   6.919
  948TIP3    H1 2789   5.948   7.883   6.961
  948TIP3    H2 2790   6.019   7.872   6.827
  949TIP3   OH2 2791   3.426   2.904   0.447
  949TIP3    H1 2792   3.476   2.977   0.411
  949TIP3    H2 2793   3.440   2.909   0.542
  950TIP3   OH2 2794   3.633   3.200   1.196
  950TIP3    H1 2795   3.658   3.244   1.277
  950TIP3    H2 2796   3.684   3.119   1.196
  951TIP3   OH2 2797   3.539   2.649   0.556
  951TIP3    H1 2798   3.509   2.730   0.595
  951TIP3    H2 2799   3.592   2.677   0.480
  952TIP3   OH2 2800   2.948   3.936   0.069
  952TIP3    H1 2801   2.909   3.999   0.008
  952TIP3    H2 2802   2.928   3.970   0.156
  953TIP3   OH2 2803   3.062   2.702   0.297
  953TIP3    H1 2804   3.029   2.689   0.386
  953TIP3    H2 2805   3.158   2.701   0.307
  954TIP3   OH2 2806   4.249   3.096   1.182
  954TIP3    H1 2807   4.155   3.109   1.195
  954TIP3    H2 2808   4.254   3.034   1.109
  955TIP3   OH2 2809   3.915   3.304   0.575
  955TIP3    H1 2810   3.837   3.249   0.590
  955TIP3    H2 2811   3.983   3.264   0.630
  956TIP3   OH2 2812   5.530   7.627   6.873
  956TIP3    H1 2813   5.598   7.668   6.925
  956TIP3    H2 2814   5.560   7.537   6.859
  957TIP3   OH2 2815   2.665   2.830   0.173
  957TIP3    H1 2816   2.628   2.881   0.246
  957TIP3    H2 2817   2.663   2.739   0.204
  958TIP3   OH2 2818   3.890   4.275   0.510
  958TIP3    H1 2819   3.849   4.329   0.443
  958TIP3    H2 2820   3.984   4.288   0.496
  959TIP3   OH2 2821   2.929   2.577   1.134
  959TIP3    H1 2822   2.971   2.535   1.059
  959TIP3    H2 2823   2.945   2.516   1.206
  960TIP3   OH2 2824   2.504   3.792   0.471
  960TIP3    H1 2825   2.457   3.832   0.544
  960TIP3    H2 2826   2.466   3.833   0.393
  961TIP3   OH2 2827   2.681   4.317   1.510
  961TIP3    H1 2828   2.763   4.323   1.559
  961TIP3    H2 2829   2.665   4.223   1.501
  962TIP3   OH2 2830   3.146   4.231   1.549
  962TIP3    H1 2831   3.238   4.206   1.561
  962TIP3    H2 2832   3.115   4.175   1.479
  963TIP3   OH2 2833   5.969   7.848   6.642
  963TIP3    H1 2834   5.902   7.785   6.665
  963TIP3    H2 2835   6.033   7.798   6.591
  964TIP3   OH2 2836   3.770   4.167   1.301
  964TIP3    H1 2837   3.780   4.097   1.366
  964TIP3    H2 2838   3.844   4.225   1.317
  965TIP3   OH2 2839   2.789   3.714   1.699
  965TIP3    H1 2840   2.810   3.621   1.710
  965TIP3    H2 2841   2.702   3.715   1.660
  966TIP3   OH2 2842   5.639   7.381   6.852
  966TIP3    H1 2843   5.691   7.377   6.933
  966TIP3    H2 2844   5.679   7.316   6.794
  967TIP3   OH2 2845   3.407   3.796   1.477
  967TIP3    H1 2846   3.363   3.818   1.394
  967TIP3    H2 2847   3.441   3.708   1.463
  968TIP3   OH2 2848   6.066   7.539   6.675
  968TIP3    H1 2849   6.117   7.566   6.751
  968TIP3    H2 2850   6.107   7.458   6.646
  969TIP3   OH2 2851   3.882   3.836   1.091
  969TIP3    H1 2852   3.960   3.865   1.044
  969TIP3    H2 2853   3.817   3.905   1.075
  970TIP3   OH2 2854   2.904   3.458   1.700
  970TIP3    H1 2855   2.982   3.436   1.650
  970TIP3    H2 2856   2.936   3.477   1.788
  971TIP3   OH2 2857   2.936   3.359   0.155
  971TIP3    H1 2858   2.869   3.370   0.222
  971TIP3    H2 2859   2.960   3.266   0.160
  972TIP3   OH2 2860   3.261   3.339   1.363
  972TIP3    H1 2861   3.178   3.386   1.372
  972TIP3    H2 2862   3.296   3.369   1.278
  973TIP3   OH2 2863   5.941   7.120   6.807
  973TIP3    H1 2864   5.935   7.030   6.773
  973TIP3    H2 2865   6.034   7.135   6.820
  974TIP3   OH2 2866   3.763   3.717   1.451
  974TIP3    H1 2867   3.833   3.679   1.398
  974TIP3    H2 2868   3.760   3.663   1.530
  975TIP3   OH2 2869   3.367   3.109   1.470
  975TIP3    H1 2870   3.370   3.038   1.406
  975TIP3    H2 2871   3.332   3.184   1.421
  976TIP3   OH2 2872   3.376   2.909   1.268
  976TIP3    H1 2873   3.401   2.945   1.183
  976TIP3    H2 2874   3.286   2.878   1.256
  977TIP3   OH2 2875   3.383   3.438   1.142
  977TIP3    H1 2876   3.474   3.466   1.127
  977TIP3    H2 2877   3.331   3.503   1.095
  978TIP3   OH2 2878   3.973   3.397   1.521
  978TIP3    H1 2879   4.015   3.312   1.531
  978TIP3    H2 2880   4.046   3.458   1.507
  979TIP3   OH2 2881   4.007   3.663   1.259
  979TIP3    H1 2882   3.953   3.723   1.208
  979TIP3    H2 2883   4.096   3.678   1.227
  980TIP3   OH2 2884   3.252   3.198   1.712
  980TIP3    H1 2885   3.183   3.135   1.734
  980TIP3    H2 2886   3.281   3.172   1.625
  981TIP3   OH2 2887   3.502   2.679   1.368
  981TIP3    H1 2888   3.460   2.758   1.335
  981TIP3    H2 2889   3.435   2.611   1.361
  982TIP3   OH2 2890   3.623   3.152   1.572
  982TIP3    H1 2891   3.613   3.139   1.666
  982TIP3    H2 2892   3.537   3.130   1.535
  983TIP3   OH2 2893   3.868   3.107   1.442
  983TIP3    H1 2894   3.790   3.106   1.497
  983TIP3    H2 2895   3.939   3.081   1.502
  984TIP3   OH2 2896   4.106   3.071   1.590
  984TIP3    H1 2897   4.120   2.977   1.597
  984TIP3    H2 2898   4.101   3.102   1.680
  985TIP3   OH2 2899   3.085   2.980   1.778
  985TIP3    H1 2900   3.089   2.891   1.745
  985TIP3    H2 2901   3.123   2.975   1.866
  986TIP3   OH2 2902   3.570   2.659   1.634
  986TIP3    H1 2903   3.637   2.591   1.629
  986TIP3    H2 2904   3.539   2.670   1.544
  987TIP3   OH2 2905   3.661   2.876   1.777
  987TIP3    H1 2906   3.631   2.803   1.723
  987TIP3    H2 2907   3.587   2.937   1.778
  988TIP3   OH2 2908   0.048   0.121   6.820
  988TIP3    H1 2909   0.139   0.116   6.789
  988TIP3    H2 2910   0.001   0.164   6.749
  989TIP3   OH2 2911   2.544   3.448   0.077
  989TIP3    H1 2912   2.581   3.521   0.026
  989TIP3    H2 2913   2.466   3.422   0.030
  990TIP3   OH2 2914   2.309   4.117   0.545
  990TIP3    H1 2915   2.242   4.060   0.507
  990TIP3    H2 2916   2.356   4.062   0.607
  991TIP3   OH2 2917   2.434   3.936   0.706
  991TIP3    H1 2918   2.418   3.865   0.769
  991TIP3    H2 2919   2.489   3.998   0.754
  992TIP3   OH2 2920   4.163   4.326   0.505
  992TIP3    H1 2921   4.177   4.350   0.597
  992TIP3    H2 2922   4.212   4.391   0.455
  993TIP3   OH2 2923   4.177   4.358   0.783
  993TIP3    H1 2924   4.131   4.274   0.782
  993TIP3    H2 2925   4.250   4.344   0.843
  994TIP3   OH2 2926   4.229   4.058   1.352
  994TIP3    H1 2927   4.158   4.066   1.415
  994TIP3    H2 2928   4.276   4.141   1.358
  995TIP3   OH2 2929   6.879   7.565   6.914
  995TIP3    H1 2930   6.934   7.637   6.883
  995TIP3    H2 2931   6.927   7.527   6.987
  996TIP3   OH2 2932   4.185   3.423   0.170
  996TIP3    H1 2933   4.118   3.388   0.229
  996TIP3    H2 2934   4.249   3.464   0.228
  997TIP3   OH2 2935   4.229   3.832   0.599
  997TIP3    H1 2936   4.282   3.765   0.556
  997TIP3    H2 2937   4.231   3.907   0.539
  998TIP3   OH2 2938   4.038   4.118   0.790
  998TIP3    H1 2939   3.970   4.162   0.841
  998TIP3    H2 2940   3.990   4.077   0.717
  999TIP3   OH2 2941   6.923   7.355   6.746
  999TIP3    H1 2942   6.841   7.324   6.709
  999TIP3    H2 2943   6.898   7.432   6.798
 1000TIP3   OH2 2944   6.798   7.060   6.674
 1000TIP3    H1 2945   6.750   7.083   6.594
 1000TIP3    H2 2946   6.796   6.965   6.677
 1001TIP3   OH2 2947   3.981   3.290   0.307
 1001TIP3    H1 2948   3.989   3.196   0.295
 1001TIP3    H2 2949   3.962   3.301   0.401
 1002TIP3   OH2 2950   2.609   3.369   1.074
 1002TIP3    H1 2951   2.605   3.338   0.984
 1002TIP3    H2 2952   2.701   3.361   1.098
 1003TIP3   OH2 2953   4.264   3.710   1.163
 1003TIP3    H1 2954   4.331   3.644   1.148
 1003TIP3    H2 2955   4.279   3.775   1.095
 1004TIP3   OH2 2956   4.443   3.500   1.156
 1004TIP3    H1 2957   4.368   3.458   1.199
 1004TIP3    H2 2958   4.517   3.444   1.177
 1005TIP3   OH2 2959   6.791   6.791   6.717
 1005TIP3    H1 2960   6.869   6.746   6.748
 1005TIP3    H2 2961   6.729   6.784   6.789
 1006TIP3   OH2 2962   3.987   3.020   0.192
 1006TIP3    H1 2963   4.031   2.936   0.203
 1006TIP3    H2 2964   4.031   3.059   0.116
 1007TIP3   OH2 2965   4.129   3.179   0.711
 1007TIP3    H1 2966   4.210   3.197   0.664
 1007TIP3    H2 2967   4.141   3.218   0.797
 1008TIP3   OH2 2968   4.202   3.330   0.937
 1008TIP3    H1 2969   4.130   3.359   0.992
 1008TIP3    H2 2970   4.234   3.410   0.895
 1009TIP3   OH2 2971   2.823   3.039   1.715
 1009TIP3    H1 2972   2.917   3.036   1.732
 1009TIP3    H2 2973   2.789   2.959   1.754
 1010TIP3   OH2 2974   4.664   2.931   1.477
 1010TIP3    H1 2975   4.727   2.871   1.437
 1010TIP3    H2 2976   4.626   2.980   1.404
 1011TIP3   OH2 2977   4.097   2.767   0.234
 1011TIP3    H1 2978   4.140   2.754   0.318
 1011TIP3    H2 2979   4.029   2.700   0.230
 1012TIP3   OH2 2980   2.775   2.794   1.099
 1012TIP3    H1 2981   2.824   2.713   1.117
 1012TIP3    H2 2982   2.843   2.858   1.078
 1013TIP3   OH2 2983   2.555   3.020   1.131
 1013TIP3    H1 2984   2.622   3.028   1.063
 1013TIP3    H2 2985   2.574   3.091   1.192
 1014TIP3   OH2 2986   4.515   3.047   1.280
 1014TIP3    H1 2987   4.435   3.086   1.314
 1014TIP3    H2 2988   4.484   2.974   1.225
 1015TIP3   OH2 2989   7.032   6.687   6.798
 1015TIP3    H1 2990   7.108   6.631   6.791
 1015TIP3    H2 2991   7.067   6.775   6.811
 1016TIP3   OH2 2992   2.643   2.537   0.617
 1016TIP3    H1 2993   2.549   2.522   0.620
 1016TIP3    H2 2994   2.652   2.628   0.587
 1017TIP3   OH2 2995   3.747   4.234   0.151
 1017TIP3    H1 2996   3.787   4.221   0.065
 1017TIP3    H2 2997   3.783   4.317   0.181
 1018TIP3   OH2 2998   2.786   2.609   1.451
 1018TIP3    H1 2999   2.734   2.598   1.530
 1018TIP3    H2 3000   2.724   2.639   1.384
 1019TIP3   OH2 3001   2.817   4.034   1.522
 1019TIP3    H1 3002   2.724   4.014   1.515
 1019TIP3    H2 3003   2.838   4.022   1.615
 1020TIP3   OH2 3004   3.027   4.080   1.074
 1020TIP3    H1 3005   2.976   4.155   1.042
 1020TIP3    H2 3006   3.112   4.089   1.032
 1021TIP3   OH2 3007   3.431   4.313   1.211
 1021TIP3    H1 3008   3.468   4.305   1.299
 1021TIP3    H2 3009   3.495   4.366   1.162
 1022TIP3   OH2 3010   3.623   4.467   1.083
 1022TIP3    H1 3011   3.687   4.414   1.037
 1022TIP3    H2 3012   3.675   4.525   1.139
 1023TIP3   OH2 3013   4.426   2.796   1.174
 1023TIP3    H1 3014   4.337   2.786   1.140
 1023TIP3    H2 3015   4.464   2.709   1.168
 1024TIP3   OH2 3016   2.689   4.327   1.119
 1024TIP3    H1 3017   2.597   4.345   1.098
 1024TIP3    H2 3018   2.710   4.392   1.187
 1025TIP3   OH2 3019   2.919   4.311   0.970
 1025TIP3    H1 3020   2.836   4.318   1.018
 1025TIP3    H2 3021   2.897   4.336   0.880
 1026TIP3   OH2 3022   3.336   4.328   0.760
 1026TIP3    H1 3023   3.264   4.341   0.698
 1026TIP3    H2 3024   3.347   4.414   0.802
 1027TIP3   OH2 3025   3.599   4.261   0.812
 1027TIP3    H1 3026   3.508   4.284   0.792
 1027TIP3    H2 3027   3.651   4.329   0.768
 1028TIP3   OH2 3028   3.798   4.433   0.716
 1028TIP3    H1 3029   3.793   4.522   0.679
 1028TIP3    H2 3030   3.829   4.379   0.644
 1029TIP3   OH2 3031   2.606   4.107   0.847
 1029TIP3    H1 3032   2.628   4.081   0.936
 1029TIP3    H2 3033   2.679   4.075   0.794
 1030TIP3   OH2 3034   2.809   3.992   0.709
 1030TIP3    H1 3035   2.818   3.906   0.751
 1030TIP3    H2 3036   2.897   4.029   0.712
 1031TIP3   OH2 3037   3.075   4.073   0.722
 1031TIP3    H1 3038   3.094   3.980   0.708
 1031TIP3    H2 3039   3.129   4.096   0.798
 1032TIP3   OH2 3040   3.654   2.730   0.831
 1032TIP3    H1 3041   3.609   2.660   0.879
 1032TIP3    H2 3042   3.709   2.684   0.768
 1033TIP3   OH2 3043   4.128   2.626   0.689
 1033TIP3    H1 3044   4.164   2.683   0.620
 1033TIP3    H2 3045   4.034   2.643   0.686
 1034TIP3   OH2 3046   4.249   2.718   0.459
 1034TIP3    H1 3047   4.319   2.658   0.435
 1034TIP3    H2 3048   4.286   2.806   0.447
 1035TIP3   OH2 3049   2.899   2.515   0.814
 1035TIP3    H1 3050   2.816   2.483   0.849
 1035TIP3    H2 3051   2.947   2.436   0.789
 1036TIP3   OH2 3052   2.806   2.302   0.574
 1036TIP3    H1 3053   2.829   2.285   0.482
 1036TIP3    H2 3054   2.727   2.355   0.569
 1037TIP3   OH2 3055   3.373   2.505   0.726
 1037TIP3    H1 3056   3.425   2.545   0.656
 1037TIP3    H2 3057   3.416   2.532   0.807
 1038TIP3   OH2 3058   3.844   2.604   0.670
 1038TIP3    H1 3059   3.808   2.564   0.591
 1038TIP3    H2 3060   3.842   2.534   0.736
 1039TIP3   OH2 3061   3.909   2.566   0.235
 1039TIP3    H1 3062   3.829   2.608   0.267
 1039TIP3    H2 3063   3.908   2.479   0.276
 1040TIP3   OH2 3064   2.418   3.895   0.235
 1040TIP3    H1 3065   2.372   3.825   0.190
 1040TIP3    H2 3066   2.379   3.976   0.201
 1041TIP3   OH2 3067   2.735   2.570   0.240
 1041TIP3    H1 3068   2.780   2.532   0.164
 1041TIP3    H2 3069   2.801   2.571   0.309
 1042TIP3   OH2 3070   3.329   2.671   0.335
 1042TIP3    H1 3071   3.388   2.600   0.360
 1042TIP3    H2 3072   3.373   2.750   0.365
 1043TIP3   OH2 3073   0.309   0.088   6.741
 1043TIP3    H1 3074   0.403   0.102   6.731
 1043TIP3    H2 3075   0.291   0.007   6.694
 1044TIP3   OH2 3076   1.030   0.172   6.841
 1044TIP3    H1 3077   1.020   0.076   6.836
 1044TIP3    H2 3078   0.982   0.205   6.766
 1045TIP3   OH2 3079   3.096   2.709   1.705
 1045TIP3    H1 3080   3.062   2.640   1.761
 1045TIP3    H2 3081   3.189   2.716   1.728
 1046TIP3   OH2 3082   3.349   2.713   1.815
 1046TIP3    H1 3083   3.427   2.689   1.765
 1046TIP3    H2 3084   3.340   2.644   1.881
 1047TIP3   OH2 3085   5.341   7.993   6.835
 1047TIP3    H1 3086   5.379   7.953   6.913
 1047TIP3    H2 3087   5.351   7.926   6.767
 1048TIP3   OH2 3088   4.170   2.800   1.600
 1048TIP3    H1 3089   4.185   2.770   1.690
 1048TIP3    H2 3090   4.256   2.794   1.558
 1049TIP3   OH2 3091   4.088   4.331   1.102
 1049TIP3    H1 3092   4.013   4.302   1.051
 1049TIP3    H2 3093   4.075   4.426   1.112
 1050TIP3   OH2 3094   5.349   3.688   0.265
 1050TIP3    H1 3095   5.391   3.685   0.351
 1050TIP3    H2 3096   5.303   3.605   0.258
 1051TIP3   OH2 3097   4.660   3.584   0.622
 1051TIP3    H1 3098   4.693   3.525   0.689
 1051TIP3    H2 3099   4.738   3.621   0.581
 1052TIP3   OH2 3100   4.644   3.992   0.322
 1052TIP3    H1 3101   4.620   3.899   0.328
 1052TIP3    H2 3102   4.740   3.991   0.320
 1053TIP3   OH2 3103   4.350   3.213   0.084
 1053TIP3    H1 3104   4.306   3.293   0.114
 1053TIP3    H2 3105   4.278   3.158   0.052
 1054TIP3   OH2 3106   4.415   3.513   0.305
 1054TIP3    H1 3107   4.464   3.436   0.333
 1054TIP3    H2 3108   4.482   3.578   0.285
 1055TIP3   OH2 3109   5.176   3.919   0.283
 1055TIP3    H1 3110   5.207   3.842   0.236
 1055TIP3    H2 3111   5.249   3.944   0.340
 1056TIP3   OH2 3112   6.183   3.253   0.305
 1056TIP3    H1 3113   6.209   3.329   0.357
 1056TIP3    H2 3114   6.228   3.266   0.221
 1057TIP3   OH2 3115   5.587   3.421   0.350
 1057TIP3    H1 3116   5.624   3.336   0.377
 1057TIP3    H2 3117   5.547   3.404   0.265
 1058TIP3   OH2 3118   4.934   3.076   0.276
 1058TIP3    H1 3119   4.908   3.151   0.223
 1058TIP3    H2 3120   4.881   3.003   0.243
 1059TIP3   OH2 3121   8.434   7.188   6.896
 1059TIP3    H1 3122   8.510   7.177   6.952
 1059TIP3    H2 3123   8.460   7.151   6.812
 1060TIP3   OH2 3124   4.553   3.294   0.404
 1060TIP3    H1 3125   4.637   3.278   0.448
 1060TIP3    H2 3126   4.556   3.239   0.326
 1061TIP3   OH2 3127   4.982   3.492   0.218
 1061TIP3    H1 3128   5.075   3.472   0.227
 1061TIP3    H2 3129   4.942   3.411   0.189
 1062TIP3   OH2 3130   6.253   3.468   0.463
 1062TIP3    H1 3131   6.164   3.505   0.461
 1062TIP3    H2 3132   6.292   3.505   0.542
 1063TIP3   OH2 3133   4.912   3.082   0.723
 1063TIP3    H1 3134   4.860   3.118   0.651
 1063TIP3    H2 3135   4.858   3.097   0.801
 1064TIP3   OH2 3136   5.014   3.857   0.502
 1064TIP3    H1 3137   4.951   3.922   0.533
 1064TIP3    H2 3138   5.052   3.896   0.423
 1065TIP3   OH2 3139   5.814   3.180   0.132
 1065TIP3    H1 3140   5.767   3.161   0.213
 1065TIP3    H2 3141   5.857   3.264   0.149
 1066TIP3   OH2 3142   4.800   3.190   0.494
 1066TIP3    H1 3143   4.855   3.265   0.516
 1066TIP3    H2 3144   4.848   3.145   0.424
 1067TIP3   OH2 3145   4.836   4.040   0.601
 1067TIP3    H1 3146   4.823   4.127   0.564
 1067TIP3    H2 3147   4.758   4.025   0.655
 1068TIP3   OH2 3148   7.034   7.760   6.805
 1068TIP3    H1 3149   7.014   7.792   6.717
 1068TIP3    H2 3150   7.063   7.838   6.853
 1069TIP3   OH2 3151   5.976   3.147   0.463
 1069TIP3    H1 3152   5.891   3.163   0.423
 1069TIP3    H2 3153   6.039   3.176   0.397
 1070TIP3   OH2 3154   5.254   2.775   0.454
 1070TIP3    H1 3155   5.247   2.683   0.481
 1070TIP3    H2 3156   5.178   2.817   0.494
 1071TIP3   OH2 3157   5.933   4.081   0.460
 1071TIP3    H1 3158   5.905   4.048   0.375
 1071TIP3    H2 3159   5.914   4.175   0.456
 1072TIP3   OH2 3160   6.052   3.819   0.303
 1072TIP3    H1 3161   5.970   3.863   0.277
 1072TIP3    H2 3162   6.121   3.874   0.266
 1073TIP3   OH2 3163   5.766   3.674   0.601
 1073TIP3    H1 3164   5.762   3.751   0.658
 1073TIP3    H2 3165   5.686   3.677   0.549
 1074TIP3   OH2 3166   4.770   3.620   0.083
 1074TIP3    H1 3167   4.720   3.552   0.039
 1074TIP3    H2 3168   4.847   3.575   0.118
 1075TIP3   OH2 3169   4.909   3.996   0.247
 1075TIP3    H1 3170   4.884   4.009   0.156
 1075TIP3    H2 3171   5.003   3.981   0.245
 1076TIP3   OH2 3172   4.881   3.626   0.441
 1076TIP3    H1 3173   4.918   3.592   0.360
 1076TIP3    H2 3174   4.930   3.706   0.459
 1077TIP3   OH2 3175   5.441   4.126   0.223
 1077TIP3    H1 3176   5.372   4.192   0.217
 1077TIP3    H2 3177   5.414   4.069   0.295
 1078TIP3   OH2 3178   5.025   4.138   0.776
 1078TIP3    H1 3179   4.966   4.202   0.816
 1078TIP3    H2 3180   4.970   4.088   0.716
 1079TIP3   OH2 3181   4.805   3.708   0.891
 1079TIP3    H1 3182   4.809   3.800   0.915
 1079TIP3    H2 3183   4.711   3.688   0.888
 1080TIP3   OH2 3184   4.833   4.321   0.849
 1080TIP3    H1 3185   4.806   4.325   0.757
 1080TIP3    H2 3186   4.751   4.305   0.896
 1081TIP3   OH2 3187   7.424   7.452   6.898
 1081TIP3    H1 3188   7.360   7.514   6.863
 1081TIP3    H2 3189   7.381   7.367   6.893
 1082TIP3   OH2 3190   4.428   3.870   0.796
 1082TIP3    H1 3191   4.359   3.852   0.732
 1082TIP3    H2 3192   4.464   3.784   0.817
 1083TIP3   OH2 3193   4.276   4.068   0.449
 1083TIP3    H1 3194   4.368   4.085   0.465
 1083TIP3    H2 3195   4.231   4.146   0.482
 1084TIP3   OH2 3196   6.150   4.484   0.472
 1084TIP3    H1 3197   6.143   4.401   0.426
 1084TIP3    H2 3198   6.096   4.474   0.550
 1085TIP3   OH2 3199   5.248   4.266   0.692
 1085TIP3    H1 3200   5.237   4.354   0.729
 1085TIP3    H2 3201   5.167   4.220   0.715
 1086TIP3   OH2 3202   4.416   4.234  -0.008
 1086TIP3    H1 3203   4.496   4.241   0.044
 1086TIP3    H2 3204   4.346   4.221   0.056
 1087TIP3   OH2 3205   6.019   3.614   0.769
 1087TIP3    H1 3206   5.936   3.623   0.723
 1087TIP3    H2 3207   6.037   3.520   0.768
 1088TIP3   OH2 3208   4.623   4.061   0.772
 1088TIP3    H1 3209   4.675   4.048   0.852
 1088TIP3    H2 3210   4.552   3.997   0.779
 1089TIP3   OH2 3211   5.018   2.869   0.576
 1089TIP3    H1 3212   4.934   2.836   0.545
 1089TIP3    H2 3213   4.995   2.949   0.625
 1090TIP3   OH2 3214   5.560   2.984   0.777
 1090TIP3    H1 3215   5.630   2.960   0.838
 1090TIP3    H2 3216   5.479   2.968   0.826
 1091TIP3   OH2 3217   5.776   3.413   0.692
 1091TIP3    H1 3218   5.734   3.408   0.778
 1091TIP3    H2 3219   5.755   3.501   0.660
 1092TIP3   OH2 3220   4.954   3.401   0.584
 1092TIP3    H1 3221   4.907   3.408   0.668
 1092TIP3    H2 3222   4.932   3.482   0.538
 1093TIP3   OH2 3223   4.834   3.279   0.123
 1093TIP3    H1 3224   4.744   3.260   0.151
 1093TIP3    H2 3225   4.839   3.246   0.034
 1094TIP3   OH2 3226   5.503   3.622   0.910
 1094TIP3    H1 3227   5.476   3.555   0.973
 1094TIP3    H2 3228   5.595   3.639   0.930
 1095TIP3   OH2 3229   5.482   3.381   0.100
 1095TIP3    H1 3230   5.443   3.437   0.032
 1095TIP3    H2 3231   5.516   3.306   0.052
 1096TIP3   OH2 3232   4.790   3.413   0.805
 1096TIP3    H1 3233   4.803   3.476   0.875
 1096TIP3    H2 3234   4.772   3.330   0.850
 1097TIP3   OH2 3235   4.381   2.939   0.379
 1097TIP3    H1 3236   4.452   2.972   0.434
 1097TIP3    H2 3237   4.425   2.910   0.299
 1098TIP3   OH2 3238   7.138   6.934   6.846
 1098TIP3    H1 3239   7.185   6.966   6.769
 1098TIP3    H2 3240   7.073   7.002   6.864
 1099TIP3   OH2 3241   5.498   3.630   0.498
 1099TIP3    H1 3242   5.536   3.564   0.440
 1099TIP3    H2 3243   5.461   3.580   0.570
 1100TIP3   OH2 3244   5.200   3.073   0.173
 1100TIP3    H1 3245   5.120   3.072   0.226
 1100TIP3    H2 3246   5.271   3.068   0.236
 1101TIP3   OH2 3247   4.598   3.146   0.179
 1101TIP3    H1 3248   4.513   3.153   0.137
 1101TIP3    H2 3249   4.629   3.058   0.156
 1102TIP3   OH2 3250   7.691   7.163   6.816
 1102TIP3    H1 3251   7.787   7.156   6.823
 1102TIP3    H2 3252   7.677   7.217   6.738
 1103TIP3   OH2 3253   5.666   3.146   0.365
 1103TIP3    H1 3254   5.647   3.161   0.458
 1103TIP3    H2 3255   5.596   3.089   0.335
 1104TIP3   OH2 3256   5.931   4.833   0.522
 1104TIP3    H1 3257   5.854   4.880   0.490
 1104TIP3    H2 3258   5.929   4.846   0.617
 1105TIP3   OH2 3259   4.790   3.971   0.997
 1105TIP3    H1 3260   4.871   3.992   1.044
 1105TIP3    H2 3261   4.721   3.977   1.063
 1106TIP3   OH2 3262   5.249   3.424   0.270
 1106TIP3    H1 3263   5.326   3.384   0.230
 1106TIP3    H2 3264   5.246   3.388   0.359
 1107TIP3   OH2 3265   4.750   2.905   0.147
 1107TIP3    H1 3266   4.722   2.827   0.196
 1107TIP3    H2 3267   4.764   2.873   0.058
 1108TIP3   OH2 3268   5.222   3.343   0.536
 1108TIP3    H1 3269   5.135   3.376   0.557
 1108TIP3    H2 3270   5.281   3.394   0.591
 1109TIP3   OH2 3271   5.826   3.968   0.232
 1109TIP3    H1 3272   5.803   4.021   0.155
 1109TIP3    H2 3273   5.751   3.910   0.244
 1110TIP3   OH2 3274   5.376   4.013   0.705
 1110TIP3    H1 3275   5.427   3.997   0.785
 1110TIP3    H2 3276   5.331   4.096   0.722
 1111TIP3   OH2 3277   4.635   3.701   0.309
 1111TIP3    H1 3278   4.676   3.689   0.224
 1111TIP3    H2 3279   4.703   3.674   0.372
 1112TIP3   OH2 3280   4.532   3.640   0.925
 1112TIP3    H1 3281   4.536   3.617   1.018
 1112TIP3    H2 3282   4.458   3.590   0.892
 1113TIP3   OH2 3283   5.268   3.774   0.949
 1113TIP3    H1 3284   5.199   3.715   0.918
 1113TIP3    H2 3285   5.349   3.735   0.918
 1114TIP3   OH2 3286   5.493   4.287   0.563
 1114TIP3    H1 3287   5.410   4.252   0.596
 1114TIP3    H2 3288   5.532   4.331   0.639
 1115TIP3   OH2 3289   6.162   4.199   0.577
 1115TIP3    H1 3290   6.082   4.147   0.566
 1115TIP3    H2 3291   6.194   4.214   0.488
 1116TIP3   OH2 3292   5.614   3.796   0.238
 1116TIP3    H1 3293   5.520   3.783   0.230
 1116TIP3    H2 3294   5.652   3.722   0.191
 1117TIP3   OH2 3295   4.768   4.047   0.007
 1117TIP3    H1 3296   4.777   4.133  -0.034
 1117TIP3    H2 3297   4.686   4.052   0.057
 1118TIP3   OH2 3298   7.178   7.339   6.645
 1118TIP3    H1 3299   7.184   7.418   6.593
 1118TIP3    H2 3300   7.091   7.342   6.684
 1119TIP3   OH2 3301   7.722   7.821   6.858
 1119TIP3    H1 3302   7.679   7.902   6.883
 1119TIP3    H2 3303   7.681   7.754   6.913
 1120TIP3   OH2 3304   5.023   4.280   0.400
 1120TIP3    H1 3305   5.024   4.374   0.386
 1120TIP3    H2 3306   5.106   4.261   0.443
 1121TIP3   OH2 3307   5.401   3.960   0.438
 1121TIP3    H1 3308   5.393   3.977   0.532
 1121TIP3    H2 3309   5.488   3.920   0.429
 1122TIP3   OH2 3310   5.588   4.518   0.440
 1122TIP3    H1 3311   5.589   4.429   0.475
 1122TIP3    H2 3312   5.537   4.512   0.359
 1123TIP3   OH2 3313   4.739   3.161   0.928
 1123TIP3    H1 3314   4.644   3.170   0.933
 1123TIP3    H2 3315   4.763   3.111   1.006
 1124TIP3   OH2 3316   4.478   4.261   0.582
 1124TIP3    H1 3317   4.533   4.205   0.637
 1124TIP3    H2 3318   4.487   4.348   0.620
 1125TIP3   OH2 3319   5.601   3.207   0.621
 1125TIP3    H1 3320   5.670   3.260   0.661
 1125TIP3    H2 3321   5.588   3.135   0.682
 1126TIP3   OH2 3322   7.965   7.151   6.855
 1126TIP3    H1 3323   8.029   7.217   6.828
 1126TIP3    H2 3324   7.985   7.135   6.947
 1127TIP3   OH2 3325   5.425   3.454   0.695
 1127TIP3    H1 3326   5.449   3.504   0.773
 1127TIP3    H2 3327   5.477   3.374   0.701
 1128TIP3   OH2 3328   5.304   2.865   0.018
 1128TIP3    H1 3329   5.271   2.940   0.067
 1128TIP3    H2 3330   5.393   2.891  -0.007
 1129TIP3   OH2 3331   7.624   6.886   6.790
 1129TIP3    H1 3332   7.617   6.981   6.793
 1129TIP3    H2 3333   7.718   6.869   6.780
 1130TIP3   OH2 3334   6.034   3.339   0.669
 1130TIP3    H1 3335   5.941   3.359   0.681
 1130TIP3    H2 3336   6.036   3.274   0.599
 1131TIP3   OH2 3337   5.706   3.570   0.107
 1131TIP3    H1 3338   5.636   3.505   0.113
 1131TIP3    H2 3339   5.785   3.525   0.136
 1132TIP3   OH2 3340   7.215   7.067   6.622
 1132TIP3    H1 3341   7.212   7.162   6.632
 1132TIP3    H2 3342   7.203   7.052   6.528
 1133TIP3   OH2 3343   4.758   2.781   0.536
 1133TIP3    H1 3344   4.729   2.749   0.451
 1133TIP3    H2 3345   4.748   2.706   0.595
 1134TIP3   OH2 3346   1.433  -0.009   6.904
 1134TIP3    H1 3347   1.395   0.029   6.983
 1134TIP3    H2 3348   1.497   0.056   6.874
 1135TIP3   OH2 3349   4.477   4.569   0.998
 1135TIP3    H1 3350   4.559   4.570   1.048
 1135TIP3    H2 3351   4.458   4.476   0.984
 1136TIP3   OH2 3352   4.943   4.480   1.044
 1136TIP3    H1 3353   5.033   4.448   1.053
 1136TIP3    H2 3354   4.906   4.429   0.972
 1137TIP3   OH2 3355   5.585   4.416   0.781
 1137TIP3    H1 3356   5.576   4.348   0.847
 1137TIP3    H2 3357   5.657   4.471   0.812
 1138TIP3   OH2 3358   4.584   3.969   1.185
 1138TIP3    H1 3359   4.602   3.876   1.196
 1138TIP3    H2 3360   4.497   3.972   1.145
 1139TIP3   OH2 3361   5.203   4.051   0.966
 1139TIP3    H1 3362   5.146   4.066   0.890
 1139TIP3    H2 3363   5.236   3.962   0.953
 1140TIP3   OH2 3364   5.669   4.061   0.573
 1140TIP3    H1 3365   5.748   4.088   0.528
 1140TIP3    H2 3366   5.608   4.134   0.561
 1141TIP3   OH2 3367   4.701   3.714   1.192
 1141TIP3    H1 3368   4.779   3.691   1.141
 1141TIP3    H2 3369   4.734   3.734   1.279
 1142TIP3   OH2 3370   5.063   3.600   0.846
 1142TIP3    H1 3371   4.977   3.642   0.852
 1142TIP3    H2 3372   5.097   3.627   0.761
 1143TIP3   OH2 3373   5.550   3.970   0.931
 1143TIP3    H1 3374   5.625   3.937   0.881
 1143TIP3    H2 3375   5.550   3.917   1.011
 1144TIP3   OH2 3376   5.163   3.370   0.958
 1144TIP3    H1 3377   5.166   3.298   0.894
 1144TIP3    H2 3378   5.129   3.444   0.908
 1145TIP3   OH2 3379   5.172   3.166   0.758
 1145TIP3    H1 3380   5.198   3.206   0.675
 1145TIP3    H2 3381   5.081   3.140   0.745
 1146TIP3   OH2 3382   5.191   3.691   0.624
 1146TIP3    H1 3383   5.279   3.727   0.608
 1146TIP3    H2 3384   5.132   3.754   0.582
 1147TIP3   OH2 3385   5.770   3.652   1.011
 1147TIP3    H1 3386   5.815   3.569   1.022
 1147TIP3    H2 3387   5.840   3.715   0.995
 1148TIP3   OH2 3388   5.779   3.906   0.766
 1148TIP3    H1 3389   5.730   3.962   0.705
 1148TIP3    H2 3390   5.870   3.913   0.738
 1149TIP3   OH2 3391   5.048   3.455   1.200
 1149TIP3    H1 3392   4.978   3.392   1.221
 1149TIP3    H2 3393   5.076   3.430   1.112
 1150TIP3   OH2 3394   5.294   2.933   0.855
 1150TIP3    H1 3395   5.253   3.013   0.824
 1150TIP3    H2 3396   5.227   2.865   0.843
 1151TIP3   OH2 3397   5.419   3.410   1.060
 1151TIP3    H1 3398   5.408   3.397   1.155
 1151TIP3    H2 3399   5.333   3.390   1.024
 1152TIP3   OH2 3400   5.659   3.358   0.927
 1152TIP3    H1 3401   5.582   3.361   0.984
 1152TIP3    H2 3402   5.731   3.336   0.986
 1153TIP3   OH2 3403   5.901   3.329   1.074
 1153TIP3    H1 3404   5.913   3.235   1.083
 1153TIP3    H2 3405   5.896   3.361   1.164
 1154TIP3   OH2 3406   4.882   3.234   1.263
 1154TIP3    H1 3407   4.888   3.145   1.228
 1154TIP3    H2 3408   4.920   3.227   1.351
 1155TIP3   OH2 3409   5.364   2.915   1.121
 1155TIP3    H1 3410   5.433   2.849   1.115
 1155TIP3    H2 3411   5.332   2.925   1.031
 1156TIP3   OH2 3412   5.457   3.132   1.264
 1156TIP3    H1 3413   5.427   3.059   1.209
 1156TIP3    H2 3414   5.383   3.193   1.265
 1157TIP3   OH2 3415   4.067   4.328   0.011
 1157TIP3    H1 3416   4.004   4.274  -0.036
 1157TIP3    H2 3417   4.108   4.269   0.074
 1158TIP3   OH2 3418   4.225   4.180   0.191
 1158TIP3    H1 3419   4.212   4.111   0.256
 1158TIP3    H2 3420   4.270   4.250   0.239
 1159TIP3   OH2 3421   5.933   4.624   0.325
 1159TIP3    H1 3422   6.003   4.587   0.272
 1159TIP3    H2 3423   5.976   4.689   0.381
 1160TIP3   OH2 3424   5.972   4.227   0.919
 1160TIP3    H1 3425   5.918   4.264   0.988
 1160TIP3    H2 3426   5.993   4.302   0.862
 1161TIP3   OH2 3427   5.754   4.538   0.135
 1161TIP3    H1 3428   5.799   4.566   0.214
 1161TIP3    H2 3429   5.724   4.449   0.154
 1162TIP3   OH2 3430   4.397   3.615   0.559
 1162TIP3    H1 3431   4.389   3.581   0.470
 1162TIP3    H2 3432   4.491   3.613   0.577
 1163TIP3   OH2 3433   6.033   3.929   0.665
 1163TIP3    H1 3434   6.102   3.867   0.640
 1163TIP3    H2 3435   6.004   3.967   0.582
 1164TIP3   OH2 3436   6.225   3.733   0.637
 1164TIP3    H1 3437   6.156   3.691   0.688
 1164TIP3    H2 3438   6.304   3.686   0.660
 1165TIP3   OH2 3439   5.927   3.426   0.202
 1165TIP3    H1 3440   6.009   3.443   0.157
 1165TIP3    H2 3441   5.937   3.468   0.288
 1166TIP3   OH2 3442   5.990   3.581   0.424
 1166TIP3    H1 3443   5.917   3.605   0.481
 1166TIP3    H2 3444   6.018   3.664   0.385
 1167TIP3   OH2 3445   4.618   3.292   1.205
 1167TIP3    H1 3446   4.712   3.290   1.223
 1167TIP3    H2 3447   4.584   3.211   1.243
 1168TIP3   OH2 3448   6.452   3.192   0.970
 1168TIP3    H1 3449   6.518   3.132   0.933
 1168TIP3    H2 3450   6.416   3.238   0.894
 1169TIP3   OH2 3451   4.590   3.003   0.551
 1169TIP3    H1 3452   4.645   2.925   0.557
 1169TIP3    H2 3453   4.652   3.075   0.536
 1170TIP3   OH2 3454   4.373   3.267   0.618
 1170TIP3    H1 3455   4.425   3.263   0.538
 1170TIP3    H2 3456   4.399   3.349   0.659
 1171TIP3   OH2 3457   6.305   3.307   0.773
 1171TIP3    H1 3458   6.236   3.348   0.825
 1171TIP3    H2 3459   6.259   3.245   0.717
 1172TIP3   OH2 3460   4.364   2.775   0.125
 1172TIP3    H1 3461   4.277   2.770   0.164
 1172TIP3    H2 3462   4.355   2.835   0.051
 1173TIP3   OH2 3463   4.582   2.835   0.938
 1173TIP3    H1 3464   4.533   2.830   1.020
 1173TIP3    H2 3465   4.525   2.884   0.878
 1174TIP3   OH2 3466   4.614   4.288   1.018
 1174TIP3    H1 3467   4.521   4.270   1.005
 1174TIP3    H2 3468   4.628   4.276   1.111
 1175TIP3   OH2 3469   4.806   4.313   0.569
 1175TIP3    H1 3470   4.752   4.380   0.528
 1175TIP3    H2 3471   4.881   4.304   0.510
 1176TIP3   OH2 3472   5.232   4.556   0.735
 1176TIP3    H1 3473   5.274   4.545   0.820
 1176TIP3    H2 3474   5.285   4.622   0.690
 1177TIP3   OH2 3475   5.415   4.695   0.583
 1177TIP3    H1 3476   5.460   4.629   0.531
 1177TIP3    H2 3477   5.479   4.723   0.648
 1178TIP3   OH2 3478   6.202   3.049   0.674
 1178TIP3    H1 3479   6.112   3.036   0.643
 1178TIP3    H2 3480   6.244   2.964   0.663
 1179TIP3   OH2 3481   4.465   4.558   0.625
 1179TIP3    H1 3482   4.377   4.583   0.597
 1179TIP3    H2 3483   4.497   4.634   0.674
 1180TIP3   OH2 3484   4.671   4.516   0.448
 1180TIP3    H1 3485   4.591   4.540   0.494
 1180TIP3    H2 3486   4.654   4.537   0.356
 1181TIP3   OH2 3487   5.177   4.571   0.168
 1181TIP3    H1 3488   5.087   4.558   0.139
 1181TIP3    H2 3489   5.170   4.619   0.251
 1182TIP3   OH2 3490   5.421   4.450   0.222
 1182TIP3    H1 3491   5.328   4.466   0.236
 1182TIP3    H2 3492   5.442   4.496   0.141
 1183TIP3   OH2 3493   4.402   4.346   0.329
 1183TIP3    H1 3494   4.424   4.322   0.419
 1183TIP3    H2 3495   4.478   4.319   0.277
 1184TIP3   OH2 3496   4.607   4.228   0.190
 1184TIP3    H1 3497   4.618   4.152   0.246
 1184TIP3    H2 3498   4.694   4.268   0.186
 1185TIP3   OH2 3499   4.867   4.317   0.159
 1185TIP3    H1 3500   4.930   4.325   0.087
 1185TIP3    H2 3501   4.919   4.286   0.233
 1186TIP3   OH2 3502   5.445   2.971   0.291
 1186TIP3    H1 3503   5.404   2.902   0.344
 1186TIP3    H2 3504   5.508   2.924   0.236
 1187TIP3   OH2 3505   5.915   2.912   0.197
 1187TIP3    H1 3506   5.927   2.993   0.147
 1187TIP3    H2 3507   5.824   2.887   0.180
 1188TIP3   OH2 3508   4.671   2.680   0.293
 1188TIP3    H1 3509   4.582   2.648   0.306
 1188TIP3    H2 3510   4.725   2.601   0.288
 1189TIP3   OH2 3511   7.279   6.574   6.897
 1189TIP3    H1 3512   7.332   6.618   6.831
 1189TIP3    H2 3513   7.264   6.640   6.965
 1190TIP3   OH2 3514   5.147   2.717   0.197
 1190TIP3    H1 3515   5.199   2.768   0.135
 1190TIP3    H2 3516   5.181   2.742   0.283
 1191TIP3   OH2 3517   5.644   2.834   0.141
 1191TIP3    H1 3518   5.687   2.787   0.070
 1191TIP3    H2 3519   5.639   2.771   0.212
 1192TIP3   OH2 3520   7.415   6.714   6.710
 1192TIP3    H1 3521   7.455   6.654   6.648
 1192TIP3    H2 3522   7.484   6.778   6.730
 1193TIP3   OH2 3523   7.900   6.886   6.787
 1193TIP3    H1 3524   7.970   6.842   6.834
 1193TIP3    H2 3525   7.922   6.979   6.793
 1194TIP3   OH2 3526   4.893   2.962   1.177
 1194TIP3    H1 3527   4.857   2.895   1.236
 1194TIP3    H2 3528   4.985   2.969   1.202
 1195TIP3   OH2 3529   5.142   2.966   1.298
 1195TIP3    H1 3530   5.221   2.944   1.249
 1195TIP3    H2 3531   5.135   2.897   1.364
 1196TIP3   OH2 3532   5.961   3.057   1.091
 1196TIP3    H1 3533   5.978   3.027   1.180
 1196TIP3    H2 3534   6.047   3.056   1.049
 1197TIP3   OH2 3535   5.817   4.591   0.613
 1197TIP3    H1 3536   5.746   4.570   0.552
 1197TIP3    H2 3537   5.863   4.664   0.572
 1198TIP3   OH2 3538   6.674   3.333   0.204
 1198TIP3    H1 3539   6.636   3.410   0.161
 1198TIP3    H2 3540   6.631   3.329   0.289
 1199TIP3   OH2 3541   6.611   3.947   0.394
 1199TIP3    H1 3542   6.621   4.037   0.424
 1199TIP3    H2 3543   6.517   3.930   0.397
 1200TIP3   OH2 3544   6.244   4.006   0.218
 1200TIP3    H1 3545   6.311   4.034   0.155
 1200TIP3    H2 3546   6.293   3.980   0.296
 1201TIP3   OH2 3547   6.485   4.262   0.261
 1201TIP3    H1 3548   6.538   4.251   0.340
 1201TIP3    H2 3549   6.396   4.278   0.295
 1202TIP3   OH2 3550   7.265   3.201   0.227
 1202TIP3    H1 3551   7.343   3.236   0.270
 1202TIP3    H2 3552   7.202   3.189   0.299
 1203TIP3   OH2 3553   7.268   3.889   0.399
 1203TIP3    H1 3554   7.258   3.807   0.446
 1203TIP3    H2 3555   7.359   3.888   0.368
 1204TIP3   OH2 3556   6.598   3.634   0.280
 1204TIP3    H1 3557   6.594   3.716   0.330
 1204TIP3    H2 3558   6.576   3.566   0.344
 1205TIP3   OH2 3559   6.604   4.201   0.505
 1205TIP3    H1 3560   6.686   4.217   0.552
 1205TIP3    H2 3561   6.535   4.228   0.566
 1206TIP3   OH2 3562   6.347   3.910   0.457
 1206TIP3    H1 3563   6.388   3.929   0.541
 1206TIP3    H2 3564   6.283   3.841   0.476
 1207TIP3   OH2 3565   7.033   4.008   0.464
 1207TIP3    H1 3566   6.973   3.952   0.416
 1207TIP3    H2 3567   7.120   3.982   0.433
 1208TIP3   OH2 3568   6.533   3.410   0.433
 1208TIP3    H1 3569   6.438   3.417   0.444
 1208TIP3    H2 3570   6.562   3.363   0.511
 1209TIP3   OH2 3571   6.208   4.743   0.419
 1209TIP3    H1 3572   6.301   4.759   0.437
 1209TIP3    H2 3573   6.198   4.648   0.429
 1210TIP3   OH2 3574   6.707   4.670   0.551
 1210TIP3    H1 3575   6.783   4.614   0.564
 1210TIP3    H2 3576   6.691   4.668   0.457
 1211TIP3   OH2 3577   6.401   4.198   0.707
 1211TIP3    H1 3578   6.427   4.106   0.710
 1211TIP3    H2 3579   6.314   4.197   0.667
 1212TIP3   OH2 3580   6.985   4.289   0.411
 1212TIP3    H1 3581   6.940   4.246   0.339
 1212TIP3    H2 3582   7.063   4.235   0.426
 1213TIP3   OH2 3583   6.513   3.940   0.685
 1213TIP3    H1 3584   6.594   3.919   0.639
 1213TIP3    H2 3585   6.540   3.967   0.772
 1214TIP3   OH2 3586   6.855   3.857   0.317
 1214TIP3    H1 3587   6.771   3.887   0.351
 1214TIP3    H2 3588   6.844   3.857   0.222
 1215TIP3   OH2 3589   7.247   4.222   0.478
 1215TIP3    H1 3590   7.304   4.297   0.463
 1215TIP3    H2 3591   7.299   4.162   0.532
 1216TIP3   OH2 3592   6.955   3.640   0.453
 1216TIP3    H1 3593   6.946   3.565   0.394
 1216TIP3    H2 3594   6.926   3.715   0.401
 1217TIP3   OH2 3595   6.927   3.432   0.272
 1217TIP3    H1 3596   6.975   3.395   0.198
 1217TIP3    H2 3597   6.835   3.411   0.253
 1218TIP3   OH2 3598   7.573   3.908   0.532
 1218TIP3    H1 3599   7.540   3.824   0.502
 1218TIP3    H2 3600   7.658   3.917   0.490
 1219TIP3   OH2 3601   6.837   3.721   0.693
 1219TIP3    H1 3602   6.771   3.655   0.715
 1219TIP3    H2 3603   6.868   3.696   0.606
 1220TIP3   OH2 3604   7.051   3.219   0.399
 1220TIP3    H1 3605   7.016   3.304   0.374
 1220TIP3    H2 3606   6.984   3.156   0.370
 1221TIP3   OH2 3607   7.221   3.651   0.541
 1221TIP3    H1 3608   7.211   3.647   0.636
 1221TIP3    H2 3609   7.132   3.641   0.507
 1222TIP3   OH2 3610   7.478   3.671   0.438
 1222TIP3    H1 3611   7.394   3.649   0.477
 1222TIP3    H2 3612   7.541   3.613   0.480
 1223TIP3   OH2 3613   7.670   3.535   0.576
 1223TIP3    H1 3614   7.707   3.452   0.605
 1223TIP3    H2 3615   7.684   3.595   0.649
 1224TIP3   OH2 3616   6.678   3.503   0.764
 1224TIP3    H1 3617   6.683   3.413   0.732
 1224TIP3    H2 3618   6.715   3.500   0.852
 1225TIP3   OH2 3619   7.170   3.166   0.636
 1225TIP3    H1 3620   7.249   3.119   0.611
 1225TIP3    H2 3621   7.122   3.179   0.554
 1226TIP3   OH2 3622   7.255   3.396   0.757
 1226TIP3    H1 3623   7.223   3.318   0.711
 1226TIP3    H2 3624   7.181   3.456   0.756
 1227TIP3   OH2 3625   6.415   3.544   0.690
 1227TIP3    H1 3626   6.508   3.545   0.712
 1227TIP3    H2 3627   6.383   3.463   0.728
 1228TIP3   OH2 3628   6.369   3.110   0.457
 1228TIP3    H1 3629   6.319   3.088   0.536
 1228TIP3    H2 3630   6.302   3.138   0.394
 1229TIP3   OH2 3631   6.426   4.473   0.504
 1229TIP3    H1 3632   6.330   4.473   0.502
 1229TIP3    H2 3633   6.448   4.517   0.586
 1230TIP3   OH2 3634   6.692   3.238   0.692
 1230TIP3    H1 3635   6.657   3.168   0.748
 1230TIP3    H2 3636   6.785   3.241   0.714
 1231TIP3   OH2 3637   6.944   3.231   0.803
 1231TIP3    H1 3638   7.021   3.205   0.752
 1231TIP3    H2 3639   6.927   3.155   0.860
 1232TIP3   OH2 3640   0.443   4.298   1.466
 1232TIP3    H1 3641   0.465   4.378   1.514
 1232TIP3    H2 3642   0.472   4.314   1.377
 1233TIP3   OH2 3643   8.396   4.474   1.457
 1233TIP3    H1 3644   8.406   4.382   1.481
 1233TIP3    H2 3645   8.476   4.495   1.409
 1234TIP3   OH2 3646   0.513   4.509   1.635
 1234TIP3    H1 3647   0.426   4.548   1.623
 1234TIP3    H2 3648   0.533   4.522   1.728
 1235TIP3   OH2 3649   0.059   4.238   1.270
 1235TIP3    H1 3650   0.096   4.179   1.335
 1235TIP3    H2 3651   0.092   4.325   1.295
 1236TIP3   OH2 3652   0.233   4.212   1.636
 1236TIP3    H1 3653   0.146   4.228   1.599
 1236TIP3    H2 3654   0.294   4.233   1.566
 1237TIP3   OH2 3655   0.135   5.250   1.595
 1237TIP3    H1 3656   0.136   5.163   1.553
 1237TIP3    H2 3657   0.113   5.310   1.524
 1238TIP3   OH2 3658   0.347   4.865   1.475
 1238TIP3    H1 3659   0.265   4.914   1.483
 1238TIP3    H2 3660   0.371   4.874   1.383
 1239TIP3   OH2 3661   0.091   4.755   1.777
 1239TIP3    H1 3662   0.065   4.823   1.839
 1239TIP3    H2 3663   0.008   4.724   1.739
 1240TIP3   OH2 3664   0.416   5.535   1.708
 1240TIP3    H1 3665   0.412   5.439   1.708
 1240TIP3    H2 3666   0.327   5.563   1.730
 1241TIP3   OH2 3667   0.286   4.679   1.959
 1241TIP3    H1 3668   0.214   4.692   1.897
 1241TIP3    H2 3669   0.301   4.584   1.957
 1242TIP3   OH2 3670   8.375   4.027   1.938
 1242TIP3    H1 3671   8.438   4.006   2.006
 1242TIP3    H2 3672   8.294   4.047   1.985
 1243TIP3   OH2 3673   0.037   4.463   1.830
 1243TIP3    H1 3674   0.006   4.457   1.921
 1243TIP3    H2 3675  -0.018   4.530   1.790
 1244TIP3   OH2 3676   8.353   4.684   2.057
 1244TIP3    H1 3677   8.293   4.673   2.131
 1244TIP3    H2 3678   8.441   4.677   2.095
 1245TIP3   OH2 3679   8.370   4.636   1.678
 1245TIP3    H1 3680   8.367   4.585   1.597
 1245TIP3    H2 3681   8.279   4.655   1.698
 1246TIP3   OH2 3682   8.452   4.216   1.554
 1246TIP3    H1 3683   8.410   4.229   1.639
 1246TIP3    H2 3684   8.408   4.139   1.517
 1247TIP3   OH2 3685   8.082   4.289   1.719
 1247TIP3    H1 3686   8.068   4.383   1.709
 1247TIP3    H2 3687   8.176   4.280   1.733
 1248TIP3   OH2 3688   0.103   5.000   1.485
 1248TIP3    H1 3689   0.061   5.013   1.400
 1248TIP3    H2 3690   0.038   4.953   1.538
 1249TIP3   OH2 3691   8.047   4.876   2.132
 1249TIP3    H1 3692   7.955   4.859   2.113
 1249TIP3    H2 3693   8.093   4.850   2.051
 1250TIP3   OH2 3694   0.393   5.253   1.699
 1250TIP3    H1 3695   0.299   5.262   1.685
 1250TIP3    H2 3696   0.428   5.228   1.613
 1251TIP3   OH2 3697   8.346   4.263   1.800
 1251TIP3    H1 3698   8.426   4.312   1.821
 1251TIP3    H2 3699   8.353   4.183   1.851
 1252TIP3   OH2 3700   8.213   4.509   1.896
 1252TIP3    H1 3701   8.275   4.569   1.938
 1252TIP3    H2 3702   8.261   4.426   1.890
 1253TIP3   OH2 3703   0.300   4.406   1.845
 1253TIP3    H1 3704   0.206   4.427   1.843
 1253TIP3    H2 3705   0.310   4.337   1.779
 1254TIP3   OH2 3706   8.318   5.527   1.992
 1254TIP3    H1 3707   8.281   5.498   2.075
 1254TIP3    H2 3708   8.397   5.576   2.017
 1255TIP3   OH2 3709   8.445   5.118   1.767
 1255TIP3    H1 3710   8.498   5.172   1.708
 1255TIP3    H2 3711   8.356   5.127   1.735
 1256TIP3   OH2 3712   8.387   4.991   2.175
 1256TIP3    H1 3713   8.446   4.955   2.108
 1256TIP3    H2 3714   8.383   4.923   2.242
 1257TIP3   OH2 3715   7.863   4.121   1.850
 1257TIP3    H1 3716   7.902   4.140   1.764
 1257TIP3    H2 3717   7.878   4.200   1.901
 1258TIP3   OH2 3718   0.093   4.669   2.202
 1258TIP3    H1 3719   0.124   4.579   2.211
 1258TIP3    H2 3720   0.167   4.716   2.163
 1259TIP3   OH2 3721   0.076   4.972   1.953
 1259TIP3    H1 3722   0.019   5.019   1.893
 1259TIP3    H2 3723   0.164   4.983   1.916
 1260TIP3   OH2 3724   8.059   3.878   2.013
 1260TIP3    H1 3725   8.078   3.967   1.984
 1260TIP3    H2 3726   7.991   3.847   1.953
 1261TIP3   OH2 3727   8.213   4.410   2.215
 1261TIP3    H1 3728   8.267   4.402   2.294
 1261TIP3    H2 3729   8.183   4.500   2.215
 1262TIP3   OH2 3730   8.450   4.392   2.073
 1262TIP3    H1 3731   8.367   4.380   2.119
 1262TIP3    H2 3732   8.517   4.375   2.138
 1263TIP3   OH2 3733   0.163   4.373   2.253
 1263TIP3    H1 3734   0.179   4.279   2.259
 1263TIP3    H2 3735   0.160   4.403   2.344
 1264TIP3   OH2 3736   8.241   3.986   2.199
 1264TIP3    H1 3737   8.291   3.905   2.209
 1264TIP3    H2 3738   8.162   3.960   2.153
 1265TIP3   OH2 3739   8.274   4.170   2.396
 1265TIP3    H1 3740   8.271   4.111   2.321
 1265TIP3    H2 3741   8.184   4.172   2.428
 1266TIP3   OH2 3742   0.276   5.350   1.999
 1266TIP3    H1 3743   0.184   5.347   2.023
 1266TIP3    H2 3744   0.304   5.439   2.022
 1267TIP3   OH2 3745   0.322   5.013   1.834
 1267TIP3    H1 3746   0.382   4.941   1.812
 1267TIP3    H2 3747   0.349   5.085   1.777
 1268TIP3   OH2 3748   0.491   4.798   1.822
 1268TIP3    H1 3749   0.420   4.756   1.869
 1268TIP3    H2 3750   0.568   4.745   1.843
 1269TIP3   OH2 3751   0.169   4.476   1.380
 1269TIP3    H1 3752   0.245   4.494   1.326
 1269TIP3    H2 3753   0.191   4.514   1.465
 1270TIP3   OH2 3754   0.265   4.630   1.597
 1270TIP3    H1 3755   0.203   4.658   1.663
 1270TIP3    H2 3756   0.296   4.711   1.556
 1271TIP3   OH2 3757   0.691   4.230   2.132
 1271TIP3    H1 3758   0.762   4.174   2.102
 1271TIP3    H2 3759   0.667   4.282   2.055
 1272TIP3   OH2 3760   0.564   4.355   1.923
 1272TIP3    H1 3761   0.478   4.390   1.948
 1272TIP3    H2 3762   0.545   4.272   1.880
 1273TIP3   OH2 3763   0.472   4.102   1.837
 1273TIP3    H1 3764   0.382   4.083   1.812
 1273TIP3    H2 3765   0.518   4.018   1.830
 1274TIP3   OH2 3766   0.167   3.974   1.388
 1274TIP3    H1 3767   0.228   3.996   1.317
 1274TIP3    H2 3768   0.087   3.947   1.343
 1275TIP3   OH2 3769   0.306   4.020   1.159
 1275TIP3    H1 3770   0.287   3.973   1.078
 1275TIP3    H2 3771   0.351   4.100   1.130
 1276TIP3   OH2 3772   0.231   4.108   2.275
 1276TIP3    H1 3773   0.249   4.076   2.363
 1276TIP3    H2 3774   0.313   4.098   2.228
 1277TIP3   OH2 3775   0.150   5.586   1.766
 1277TIP3    H1 3776   0.095   5.508   1.773
 1277TIP3    H2 3777   0.088   5.659   1.758
 1278TIP3   OH2 3778   1.416   4.986   0.529
 1278TIP3    H1 3779   1.393   5.077   0.512
 1278TIP3    H2 3780   1.338   4.937   0.503
 1279TIP3   OH2 3781   1.413   5.004   0.931
 1279TIP3    H1 3782   1.462   4.990   1.012
 1279TIP3    H2 3783   1.370   4.920   0.915
 1280TIP3   OH2 3784   0.717   4.873   1.266
 1280TIP3    H1 3785   0.748   4.823   1.342
 1280TIP3    H2 3786   0.796   4.897   1.219
 1281TIP3   OH2 3787   1.678   5.318   0.625
 1281TIP3    H1 3788   1.666   5.248   0.689
 1281TIP3    H2 3789   1.702   5.395   0.678
 1282TIP3   OH2 3790   0.734   5.329   1.040
 1282TIP3    H1 3791   0.726   5.234   1.046
 1282TIP3    H2 3792   0.823   5.344   1.008
 1283TIP3   OH2 3793   0.521   4.809   0.967
 1283TIP3    H1 3794   0.543   4.727   1.010
 1283TIP3    H2 3795   0.569   4.806   0.884
 1284TIP3   OH2 3796   1.427   5.746   0.694
 1284TIP3    H1 3797   1.471   5.711   0.617
 1284TIP3    H2 3798   1.440   5.679   0.761
 1285TIP3   OH2 3799   1.234   5.223   0.934
 1285TIP3    H1 3800   1.278   5.139   0.920
 1285TIP3    H2 3801   1.304   5.280   0.966
 1286TIP3   OH2 3802   2.243   4.556   0.953
 1286TIP3    H1 3803   2.262   4.639   0.997
 1286TIP3    H2 3804   2.269   4.571   0.862
 1287TIP3   OH2 3805   1.634   4.726   0.980
 1287TIP3    H1 3806   1.666   4.640   1.005
 1287TIP3    H2 3807   1.585   4.711   0.899
 1288TIP3   OH2 3808   0.980   4.399   0.949
 1288TIP3    H1 3809   0.959   4.466   0.884
 1288TIP3    H2 3810   0.938   4.319   0.916
 1289TIP3   OH2 3811   1.689   4.512   0.577
 1289TIP3    H1 3812   1.752   4.496   0.647
 1289TIP3    H2 3813   1.743   4.540   0.503
 1290TIP3   OH2 3814   0.604   4.568   1.063
 1290TIP3    H1 3815   0.685   4.553   1.112
 1290TIP3    H2 3816   0.613   4.515   0.985
 1291TIP3   OH2 3817   1.027   4.801   0.867
 1291TIP3    H1 3818   1.120   4.784   0.881
 1291TIP3    H2 3819   0.993   4.717   0.836
 1292TIP3   OH2 3820   2.305   4.774   1.118
 1292TIP3    H1 3821   2.215   4.808   1.116
 1292TIP3    H2 3822   2.341   4.807   1.200
 1293TIP3   OH2 3823   0.963   4.382   1.399
 1293TIP3    H1 3824   0.909   4.416   1.328
 1293TIP3    H2 3825   0.911   4.395   1.478
 1294TIP3   OH2 3826   1.349   5.231   0.431
 1294TIP3    H1 3827   1.324   5.217   0.340
 1294TIP3    H2 3828   1.412   5.302   0.428
 1295TIP3   OH2 3829   1.066   5.154   1.158
 1295TIP3    H1 3830   1.012   5.220   1.201
 1295TIP3    H2 3831   1.102   5.198   1.081
 1296TIP3   OH2 3832   1.851   4.500   0.794
 1296TIP3    H1 3833   1.806   4.480   0.876
 1296TIP3    H2 3834   1.904   4.577   0.814
 1297TIP3   OH2 3835   0.847   4.489   1.171
 1297TIP3    H1 3836   0.902   4.563   1.199
 1297TIP3    H2 3837   0.896   4.448   1.100
 1298TIP3   OH2 3838   0.917   5.344   1.290
 1298TIP3    H1 3839   0.892   5.428   1.251
 1298TIP3    H2 3840   0.843   5.319   1.344
 1299TIP3   OH2 3841   1.717   5.563   0.758
 1299TIP3    H1 3842   1.633   5.559   0.803
 1299TIP3    H2 3843   1.718   5.649   0.715
 1300TIP3   OH2 3844   2.039   4.450   1.121
 1300TIP3    H1 3845   1.954   4.473   1.085
 1300TIP3    H2 3846   2.102   4.477   1.054
 1301TIP3   OH2 3847   1.306   4.112   1.112
 1301TIP3    H1 3848   1.298   4.020   1.135
 1301TIP3    H2 3849   1.230   4.154   1.152
 1302TIP3   OH2 3850   1.546   5.655   0.461
 1302TIP3    H1 3851   1.543   5.562   0.436
 1302TIP3    H2 3852   1.639   5.675   0.467
 1303TIP3   OH2 3853   1.570   5.394   0.390
 1303TIP3    H1 3854   1.606   5.339   0.320
 1303TIP3    H2 3855   1.611   5.362   0.470
 1304TIP3   OH2 3856   1.951   5.455   1.092
 1304TIP3    H1 3857   1.932   5.379   1.035
 1304TIP3    H2 3858   1.939   5.531   1.035
 1305TIP3   OH2 3859   1.233   4.845   0.325
 1305TIP3    H1 3860   1.164   4.912   0.322
 1305TIP3    H2 3861   1.298   4.875   0.260
 1306TIP3   OH2 3862   1.128   4.633   0.170
 1306TIP3    H1 3863   1.152   4.707   0.225
 1306TIP3    H2 3864   1.171   4.557   0.210
 1307TIP3   OH2 3865   2.132   5.116   0.957
 1307TIP3    H1 3866   2.047   5.160   0.956
 1307TIP3    H2 3867   2.167   5.129   0.869
 1308TIP3   OH2 3868   1.632   4.983   0.360
 1308TIP3    H1 3869   1.567   4.981   0.431
 1308TIP3    H2 3870   1.709   4.940   0.398
 1309TIP3   OH2 3871   1.825   4.978   1.265
 1309TIP3    H1 3872   1.823   5.061   1.314
 1309TIP3    H2 3873   1.742   4.976   1.218
 1310TIP3   OH2 3874   0.812   4.937   0.760
 1310TIP3    H1 3875   0.794   4.877   0.688
 1310TIP3    H2 3876   0.895   4.908   0.796
 1311TIP3   OH2 3877   0.982   5.338   0.924
 1311TIP3    H1 3878   0.960   5.381   0.841
 1311TIP3    H2 3879   1.070   5.302   0.910
 1312TIP3   OH2 3880   0.950   4.908   1.116
 1312TIP3    H1 3881   0.977   4.883   1.028
 1312TIP3    H2 3882   0.987   4.995   1.129
 1313TIP3   OH2 3883   1.485   5.566   0.899
 1313TIP3    H1 3884   1.476   5.634   0.965
 1313TIP3    H2 3885   1.471   5.484   0.946
 1314TIP3   OH2 3886   1.111   5.468   1.437
 1314TIP3    H1 3887   1.051   5.530   1.479
 1314TIP3    H2 3888   1.055   5.411   1.384
 1315TIP3   OH2 3889   1.443   4.943   0.169
 1315TIP3    H1 3890   1.515   4.955   0.231
 1315TIP3    H2 3891   1.481   4.964   0.084
 1316TIP3   OH2 3892   0.860   5.005   1.564
 1316TIP3    H1 3893   0.866   5.094   1.598
 1316TIP3    H2 3894   0.767   4.988   1.558
 1317TIP3   OH2 3895   0.898   5.627   1.515
 1317TIP3    H1 3896   0.874   5.625   1.423
 1317TIP3    H2 3897   0.820   5.595   1.562
 1318TIP3   OH2 3898   2.051   4.097   0.298
 1318TIP3    H1 3899   1.965   4.092   0.339
 1318TIP3    H2 3900   2.045   4.171   0.238
 1319TIP3   OH2 3901   0.480   5.170   1.457
 1319TIP3    H1 3902   0.429   5.184   1.377
 1319TIP3    H2 3903   0.501   5.076   1.455
 1320TIP3   OH2 3904   2.181   5.818   1.159
 1320TIP3    H1 3905   2.186   5.723   1.170
 1320TIP3    H2 3906   2.104   5.844   1.209
 1321TIP3   OH2 3907   1.281   5.606   1.272
 1321TIP3    H1 3908   1.276   5.697   1.300
 1321TIP3    H2 3909   1.220   5.560   1.330
 1322TIP3   OH2 3910   2.070   4.933   1.427
 1322TIP3    H1 3911   1.987   4.940   1.380
 1322TIP3    H2 3912   2.088   4.839   1.429
 1323TIP3   OH2 3913   0.706   5.323   1.465
 1323TIP3    H1 3914   0.754   5.307   1.546
 1323TIP3    H2 3915   0.631   5.264   1.469
 1324TIP3   OH2 3916   1.069   4.183   1.240
 1324TIP3    H1 3917   0.985   4.147   1.209
 1324TIP3    H2 3918   1.044   4.255   1.297
 1325TIP3   OH2 3919   1.610   4.289   1.441
 1325TIP3    H1 3920   1.679   4.264   1.503
 1325TIP3    H2 3921   1.528   4.272   1.488
 1326TIP3   OH2 3922   1.827   4.714   1.355
 1326TIP3    H1 3923   1.785   4.709   1.441
 1326TIP3    H2 3924   1.810   4.803   1.325
 1327TIP3   OH2 3925   1.122   4.237   0.217
 1327TIP3    H1 3926   1.109   4.239   0.312
 1327TIP3    H2 3927   1.098   4.148   0.191
 1328TIP3   OH2 3928   1.012   4.689   1.264
 1328TIP3    H1 3929   0.964   4.700   1.346
 1328TIP3    H2 3930   0.996   4.770   1.216
 1329TIP3   OH2 3931   0.878   4.579   0.762
 1329TIP3    H1 3932   0.791   4.545   0.783
 1329TIP3    H2 3933   0.896   4.548   0.674
 1330TIP3   OH2 3934   1.357   4.678   0.505
 1330TIP3    H1 3935   1.301   4.735   0.452
 1330TIP3    H2 3936   1.438   4.672   0.455
 1331TIP3   OH2 3937   1.548   4.925   1.571
 1331TIP3    H1 3938   1.519   4.858   1.632
 1331TIP3    H2 3939   1.640   4.939   1.592
 1332TIP3   OH2 3940   1.533   4.684   0.728
 1332TIP3    H1 3941   1.465   4.713   0.668
 1332TIP3    H2 3942   1.581   4.616   0.680
 1333TIP3   OH2 3943   0.837   4.712   1.473
 1333TIP3    H1 3944   0.847   4.778   1.542
 1333TIP3    H2 3945   0.818   4.631   1.520
 1334TIP3   OH2 3946   0.454   4.225   1.048
 1334TIP3    H1 3947   0.509   4.256   1.120
 1334TIP3    H2 3948   0.464   4.291   0.980
 1335TIP3   OH2 3949   1.570   4.926   1.150
 1335TIP3    H1 3950   1.599   4.860   1.088
 1335TIP3    H2 3951   1.528   4.877   1.221
 1336TIP3   OH2 3952   1.251   4.455   0.895
 1336TIP3    H1 3953   1.170   4.427   0.937
 1336TIP3    H2 3954   1.320   4.406   0.939
 1337TIP3   OH2 3955   0.647   4.427   0.827
 1337TIP3    H1 3956   0.585   4.408   0.757
 1337TIP3    H2 3957   0.703   4.350   0.831
 1338TIP3   OH2 3958   0.942   4.471   0.510
 1338TIP3    H1 3959   1.029   4.468   0.549
 1338TIP3    H2 3960   0.956   4.507   0.422
 1339TIP3   OH2 3961   1.707   4.461   1.029
 1339TIP3    H1 3962   1.684   4.477   1.121
 1339TIP3    H2 3963   1.641   4.398   0.999
 1340TIP3   OH2 3964   1.895   6.166   1.249
 1340TIP3    H1 3965   1.891   6.180   1.155
 1340TIP3    H2 3966   1.975   6.210   1.277
 1341TIP3   OH2 3967   0.850   5.257   1.695
 1341TIP3    H1 3968   0.923   5.290   1.748
 1341TIP3    H2 3969   0.775   5.259   1.754
 1342TIP3   OH2 3970   1.296   4.745   0.932
 1342TIP3    H1 3971   1.334   4.673   0.882
 1342TIP3    H2 3972   1.289   4.712   1.021
 1343TIP3   OH2 3973   0.815   4.212   0.826
 1343TIP3    H1 3974   0.779   4.138   0.875
 1343TIP3    H2 3975   0.866   4.172   0.756
 1344TIP3   OH2 3976   1.274   4.646   1.192
 1344TIP3    H1 3977   1.187   4.671   1.223
 1344TIP3    H2 3978   1.334   4.696   1.247
 1345TIP3   OH2 3979   1.893   5.251   0.915
 1345TIP3    H1 3980   1.928   5.298   0.839
 1345TIP3    H2 3981   1.814   5.208   0.882
 1346TIP3   OH2 3982   1.518   4.417   0.221
 1346TIP3    H1 3983   1.441   4.390   0.171
 1346TIP3    H2 3984   1.496   4.504   0.254
 1347TIP3   OH2 3985   1.410   5.334   1.312
 1347TIP3    H1 3986   1.451   5.318   1.398
 1347TIP3    H2 3987   1.361   5.416   1.324
 1348TIP3   OH2 3988   1.560   4.672   0.324
 1348TIP3    H1 3989   1.653   4.650   0.321
 1348TIP3    H2 3990   1.545   4.725   0.247
 1349TIP3   OH2 3991   0.700   5.056   0.989
 1349TIP3    H1 3992   0.744   5.028   0.909
 1349TIP3    H2 3993   0.680   4.975   1.035
 1350TIP3   OH2 3994   0.594   4.934   1.590
 1350TIP3    H1 3995   0.599   4.919   1.684
 1350TIP3    H2 3996   0.514   4.888   1.563
 1351TIP3   OH2 3997   1.312   5.080   1.607
 1351TIP3    H1 3998   1.245   5.020   1.577
 1351TIP3    H2 3999   1.395   5.041   1.578
 1352TIP3   OH2 4000   1.557   5.616   1.207
 1352TIP3    H1 4001   1.462   5.605   1.212
 1352TIP3    H2 4002   1.581   5.655   1.291
 1353TIP3   OH2 4003   1.973   4.666   0.107
 1353TIP3    H1 4004   1.899   4.633   0.056
 1353TIP3    H2 4005   1.988   4.754   0.073
 1354TIP3   OH2 4006   2.196   5.540   1.181
 1354TIP3    H1 4007   2.101   5.523   1.178
 1354TIP3    H2 4008   2.228   5.509   1.096
 1355TIP3   OH2 4009   1.661   5.114   0.817
 1355TIP3    H1 4010   1.573   5.090   0.844
 1355TIP3    H2 4011   1.699   5.033   0.783
 1356TIP3   OH2 4012   1.062   5.702   1.078
 1356TIP3    H1 4013   1.119   5.764   1.032
 1356TIP3    H2 4014   1.123   5.645   1.126
 1357TIP3   OH2 4015   1.468   5.329   1.044
 1357TIP3    H1 4016   1.448   5.330   1.138
 1357TIP3    H2 4017   1.547   5.276   1.037
 1358TIP3   OH2 4018   1.724   5.831   1.097
 1358TIP3    H1 4019   1.648   5.775   1.116
 1358TIP3    H2 4020   1.694   5.888   1.027
 1359TIP3   OH2 4021   0.789   4.460   1.600
 1359TIP3    H1 4022   0.694   4.468   1.604
 1359TIP3    H2 4023   0.811   4.403   1.674
 1360TIP3   OH2 4024   1.675   5.214   0.213
 1360TIP3    H1 4025   1.651   5.138   0.267
 1360TIP3    H2 4026   1.756   5.188   0.169
 1361TIP3   OH2 4027   0.587   5.539   1.329
 1361TIP3    H1 4028   0.494   5.546   1.352
 1361TIP3    H2 4029   0.619   5.464   1.379
 1362TIP3   OH2 4030   1.641   4.517   1.289
 1362TIP3    H1 4031   1.715   4.565   1.324
 1362TIP3    H2 4032   1.630   4.442   1.347
 1363TIP3   OH2 4033   1.526   4.319   0.480
 1363TIP3    H1 4034   1.517   4.339   0.387
 1363TIP3    H2 4035   1.576   4.392   0.516
 1364TIP3   OH2 4036   1.186   4.499   0.631
 1364TIP3    H1 4037   1.247   4.570   0.609
 1364TIP3    H2 4038   1.211   4.473   0.720
 1365TIP3   OH2 4039   1.479   4.758   1.347
 1365TIP3    H1 4040   1.499   4.801   1.430
 1365TIP3    H2 4041   1.527   4.675   1.350
 1366TIP3   OH2 4042   1.357   4.254   0.699
 1366TIP3    H1 4043   1.393   4.273   0.785
 1366TIP3    H2 4044   1.425   4.282   0.638
 1367TIP3   OH2 4045   0.796   4.237   0.438
 1367TIP3    H1 4046   0.820   4.327   0.459
 1367TIP3    H2 4047   0.838   4.184   0.507
 1368TIP3   OH2 4048   2.090   4.654   1.334
 1368TIP3    H1 4049   1.996   4.667   1.347
 1368TIP3    H2 4050   2.096   4.592   1.262
 1369TIP3   OH2 4051   1.758   4.862   0.733
 1369TIP3    H1 4052   1.680   4.809   0.747
 1369TIP3    H2 4053   1.825   4.821   0.788
 1370TIP3   OH2 4054   1.761   5.820   0.660
 1370TIP3    H1 4055   1.743   5.865   0.578
 1370TIP3    H2 4056   1.856   5.826   0.671
 1371TIP3   OH2 4057   0.809   4.092   1.202
 1371TIP3    H1 4058   0.772   4.056   1.122
 1371TIP3    H2 4059   0.804   4.021   1.266
 1372TIP3   OH2 4060   0.513   5.800   1.598
 1372TIP3    H1 4061   0.439   5.740   1.606
 1372TIP3    H2 4062   0.590   5.743   1.591
 1373TIP3   OH2 4063   0.974   5.813   1.702
 1373TIP3    H1 4064   1.065   5.794   1.723
 1373TIP3    H2 4065   0.952   5.753   1.631
 1374TIP3   OH2 4066   1.613   5.725   1.452
 1374TIP3    H1 4067   1.622   5.654   1.516
 1374TIP3    H2 4068   1.688   5.782   1.469
 1375TIP3   OH2 4069   0.625   5.256   1.858
 1375TIP3    H1 4070   0.644   5.163   1.865
 1375TIP3    H2 4071   0.538   5.260   1.818
 1376TIP3   OH2 4072   1.222   5.349   1.658
 1376TIP3    H1 4073   1.188   5.377   1.573
 1376TIP3    H2 4074   1.261   5.263   1.641
 1377TIP3   OH2 4075   1.726   5.390   1.240
 1377TIP3    H1 4076   1.803   5.422   1.194
 1377TIP3    H2 4077   1.660   5.458   1.226
 1378TIP3   OH2 4078   0.741   5.002   1.844
 1378TIP3    H1 4079   0.818   4.972   1.796
 1378TIP3    H2 4080   0.771   5.011   1.935
 1379TIP3   OH2 4081   1.111   4.896   1.511
 1379TIP3    H1 4082   1.026   4.938   1.519
 1379TIP3    H2 4083   1.144   4.924   1.426
 1380TIP3   OH2 4084   1.606   5.275   1.603
 1380TIP3    H1 4085   1.675   5.236   1.549
 1380TIP3    H2 4086   1.604   5.220   1.681
 1381TIP3   OH2 4087   1.212   4.668   1.624
 1381TIP3    H1 4088   1.214   4.596   1.562
 1381TIP3    H2 4089   1.177   4.742   1.574
 1382TIP3   OH2 4090   1.223   4.468   1.423
 1382TIP3    H1 4091   1.246   4.504   1.337
 1382TIP3    H2 4092   1.131   4.442   1.414
 1383TIP3   OH2 4093   1.239   4.992   1.292
 1383TIP3    H1 4094   1.327   5.026   1.277
 1383TIP3    H2 4095   1.181   5.052   1.245
 1384TIP3   OH2 4096   1.816   4.950   1.672
 1384TIP3    H1 4097   1.851   4.862   1.686
 1384TIP3    H2 4098   1.892   5.004   1.654
 1385TIP3   OH2 4099   1.850   5.219   1.411
 1385TIP3    H1 4100   1.796   5.279   1.359
 1385TIP3    H2 4101   1.939   5.234   1.380
 1386TIP3   OH2 4102   1.094   4.761   1.864
 1386TIP3    H1 4103   1.029   4.695   1.887
 1386TIP3    H2 4104   1.125   4.735   1.777
 1387TIP3   OH2 4105   1.346   4.233   1.516
 1387TIP3    H1 4106   1.302   4.314   1.488
 1387TIP3    H2 4107   1.279   4.165   1.507
 1388TIP3   OH2 4108   1.466   4.713   1.723
 1388TIP3    H1 4109   1.458   4.699   1.818
 1388TIP3    H2 4110   1.380   4.690   1.688
 1389TIP3   OH2 4111   1.709   4.664   1.592
 1389TIP3    H1 4112   1.630   4.665   1.647
 1389TIP3    H2 4113   1.779   4.637   1.651
 1390TIP3   OH2 4114   1.945   4.629   1.740
 1390TIP3    H1 4115   1.960   4.534   1.748
 1390TIP3    H2 4116   1.941   4.660   1.830
 1391TIP3   OH2 4117   0.937   4.538   1.926
 1391TIP3    H1 4118   0.939   4.450   1.889
 1391TIP3    H2 4119   0.974   4.528   2.014
 1392TIP3   OH2 4120   1.419   4.216   1.782
 1392TIP3    H1 4121   1.484   4.146   1.776
 1392TIP3    H2 4122   1.384   4.224   1.693
 1393TIP3   OH2 4123   1.503   4.435   1.925
 1393TIP3    H1 4124   1.475   4.361   1.872
 1393TIP3    H2 4125   1.428   4.494   1.926
 1394TIP3   OH2 4126   2.028   5.878   0.670
 1394TIP3    H1 4127   2.042   5.907   0.761
 1394TIP3    H2 4128   2.074   5.944   0.617
 1395TIP3   OH2 4129   2.023   5.922   0.945
 1395TIP3    H1 4130   1.976   5.838   0.939
 1395TIP3    H2 4131   2.093   5.905   1.008
 1396TIP3   OH2 4132   2.070   5.621   1.504
 1396TIP3    H1 4133   2.000   5.625   1.569
 1396TIP3    H2 4134   2.118   5.703   1.513
 1397TIP3   OH2 4135   1.917   5.113   0.118
 1397TIP3    H1 4136   1.977   5.183   0.091
 1397TIP3    H2 4137   1.958   5.074   0.194
 1398TIP3   OH2 4138   2.038   4.981   0.325
 1398TIP3    H1 4139   1.974   4.944   0.386
 1398TIP3    H2 4140   2.104   5.023   0.381
 1399TIP3   OH2 4141   2.067   5.388   0.748
 1399TIP3    H1 4142   2.123   5.320   0.710
 1399TIP3    H2 4143   2.078   5.463   0.689
 1400TIP3   OH2 4144   1.891   5.677   0.941
 1400TIP3    H1 4145   1.825   5.718   0.997
 1400TIP3    H2 4146   1.840   5.632   0.874
 1401TIP3   OH2 4147   7.597   0.886   6.896
 1401TIP3    H1 4148   7.515   0.841   6.878
 1401TIP3    H2 4149   7.574   0.953   6.961
 1402TIP3   OH2 4150   7.437   0.633   6.866
 1402TIP3    H1 4151   7.389   0.657   6.786
 1402TIP3    H2 4152   7.437   0.537   6.865
 1403TIP3   OH2 4153   1.846   4.848   0.472
 1403TIP3    H1 4154   1.849   4.754   0.454
 1403TIP3    H2 4155   1.822   4.854   0.565
 1404TIP3   OH2 4156   0.449   4.901   1.221
 1404TIP3    H1 4157   0.452   4.877   1.129
 1404TIP3    H2 4158   0.540   4.902   1.249
 1405TIP3   OH2 4159   2.106   5.267   1.314
 1405TIP3    H1 4160   2.172   5.199   1.301
 1405TIP3    H2 4161   2.121   5.329   1.243
 1406TIP3   OH2 4162   2.282   5.056   1.306
 1406TIP3    H1 4163   2.208   5.013   1.350
 1406TIP3    H2 4164   2.357   5.000   1.325
 1407TIP3   OH2 4165   7.474   0.363   6.915
 1407TIP3    H1 4166   7.539   0.320   6.970
 1407TIP3    H2 4167   7.391   0.320   6.937
 1408TIP3   OH2 4168   1.839   4.592   0.348
 1408TIP3    H1 4169   1.879   4.507   0.366
 1408TIP3    H2 4170   1.882   4.623   0.268
 1409TIP3   OH2 4171   1.974   4.739   0.862
 1409TIP3    H1 4172   2.055   4.758   0.814
 1409TIP3    H2 4173   1.988   4.778   0.949
 1410TIP3   OH2 4174   2.045   4.888   1.089
 1410TIP3    H1 4175   1.972   4.916   1.144
 1410TIP3    H2 4176   2.076   4.968   1.048
 1411TIP3   OH2 4177   0.675   4.607   1.891
 1411TIP3    H1 4178   0.770   4.595   1.897
 1411TIP3    H2 4179   0.639   4.523   1.920
 1412TIP3   OH2 4180   2.502   4.490   1.627
 1412TIP3    H1 4181   2.566   4.430   1.588
 1412TIP3    H2 4182   2.466   4.537   1.552
 1413TIP3   OH2 4183   1.953   4.352   0.406
 1413TIP3    H1 4184   2.004   4.337   0.486
 1413TIP3    H2 4185   1.881   4.288   0.411
 1414TIP3   OH2 4186   0.637   4.307   1.237
 1414TIP3    H1 4187   0.690   4.227   1.240
 1414TIP3    H2 4188   0.701   4.378   1.227
 1415TIP3   OH2 4189   0.412   4.562   1.274
 1415TIP3    H1 4190   0.472   4.555   1.199
 1415TIP3    H2 4191   0.439   4.642   1.319
 1416TIP3   OH2 4192   2.355   4.603   1.426
 1416TIP3    H1 4193   2.272   4.642   1.452
 1416TIP3    H2 4194   2.330   4.526   1.374
 1417TIP3   OH2 4195   2.038   4.264   0.074
 1417TIP3    H1 4196   2.072   4.197   0.015
 1417TIP3    H2 4197   2.103   4.335   0.069
 1418TIP3   OH2 4198   0.635   4.154   1.607
 1418TIP3    H1 4199   0.583   4.136   1.685
 1418TIP3    H2 4200   0.573   4.191   1.545
 1419TIP3   OH2 4201   0.683   5.586   1.684
 1419TIP3    H1 4202   0.591   5.561   1.690
 1419TIP3    H2 4203   0.694   5.651   1.754
 1420TIP3   OH2 4204   0.858   5.611   1.244
 1420TIP3    H1 4205   0.768   5.638   1.229
 1420TIP3    H2 4206   0.909   5.653   1.174
 1421TIP3   OH2 4207   1.273   5.868   1.364
 1421TIP3    H1 4208   1.308   5.856   1.452
 1421TIP3    H2 4209   1.339   5.919   1.318
 1422TIP3   OH2 4210   1.462   6.022   1.242
 1422TIP3    H1 4211   1.515   5.967   1.184
 1422TIP3    H2 4212   1.526   6.073   1.291
 1423TIP3   OH2 4213   2.269   4.353   1.324
 1423TIP3    H1 4214   2.180   4.340   1.292
 1423TIP3    H2 4215   2.309   4.266   1.320
 1424TIP3   OH2 4216   1.199   5.891   0.936
 1424TIP3    H1 4217   1.141   5.883   0.860
 1424TIP3    H2 4218   1.196   5.984   0.959
 1425TIP3   OH2 4219   1.458   5.831   0.998
 1425TIP3    H1 4220   1.365   5.843   0.977
 1425TIP3    H2 4221   1.504   5.881   0.931
 1426TIP3   OH2 4222   1.659   5.981   0.868
 1426TIP3    H1 4223   1.651   6.070   0.833
 1426TIP3    H2 4224   1.687   5.929   0.793
 1427TIP3   OH2 4225   1.470   4.279   0.955
 1427TIP3    H1 4226   1.426   4.216   1.012
 1427TIP3    H2 4227   1.546   4.232   0.920
 1428TIP3   OH2 4228   1.984   4.190   0.845
 1428TIP3    H1 4229   2.025   4.241   0.775
 1428TIP3    H2 4230   1.895   4.223   0.850
 1429TIP3   OH2 4231   2.109   4.290   0.625
 1429TIP3    H1 4232   2.179   4.230   0.601
 1429TIP3    H2 4233   2.145   4.377   0.611
 1430TIP3   OH2 4234   0.710   3.997   0.958
 1430TIP3    H1 4235   0.619   3.973   0.941
 1430TIP3    H2 4236   0.757   3.914   0.957
 1431TIP3   OH2 4237   1.195   4.068   0.855
 1431TIP3    H1 4238   1.250   4.112   0.790
 1431TIP3    H2 4239   1.240   4.085   0.939
 1432TIP3   OH2 4240   1.703   4.176   0.845
 1432TIP3    H1 4241   1.704   4.143   0.755
 1432TIP3    H2 4242   1.708   4.098   0.900
 1433TIP3   OH2 4243   1.764   4.168   0.483
 1433TIP3    H1 4244   1.680   4.214   0.478
 1433TIP3    H2 4245   1.742   4.082   0.519
 1434TIP3   OH2 4246   1.182   4.225   0.490
 1434TIP3    H1 4247   1.227   4.141   0.485
 1434TIP3    H2 4248   1.219   4.268   0.567
 1435TIP3   OH2 4249   0.940   4.269   1.840
 1435TIP3    H1 4250   0.901   4.203   1.898
 1435TIP3    H2 4251   1.032   4.273   1.866
 1436TIP3   OH2 4252   1.188   4.267   1.966
 1436TIP3    H1 4253   1.267   4.237   1.921
 1436TIP3    H2 4254   1.171   4.199   2.032
 1437TIP3   OH2 4255   2.011   4.358   1.751
 1437TIP3    H1 4256   2.026   4.328   1.841
 1437TIP3    H2 4257   2.097   4.352   1.709
 1438TIP3   OH2 4258   1.938   5.892   1.263
 1438TIP3    H1 4259   1.865   5.859   1.211
 1438TIP3    H2 4260   1.922   5.986   1.269
 1439TIP3   OH2 4261   3.212   5.291   0.074
 1439TIP3    H1 4262   3.183   5.372   0.032
 1439TIP3    H2 4263   3.137   5.233   0.067
 1440TIP3   OH2 4264   3.164   5.260   0.434
 1440TIP3    H1 4265   3.232   5.249   0.500
 1440TIP3    H2 4266   3.135   5.171   0.415
 1441TIP3   OH2 4267   2.501   5.132   0.765
 1441TIP3    H1 4268   2.537   5.080   0.837
 1441TIP3    H2 4269   2.578   5.158   0.714
 1442TIP3   OH2 4270   3.489   5.596   0.054
 1442TIP3    H1 4271   3.452   5.509   0.068
 1442TIP3    H2 4272   3.474   5.642   0.136
 1443TIP3   OH2 4273   2.493   5.556   0.448
 1443TIP3    H1 4274   2.475   5.463   0.460
 1443TIP3    H2 4275   2.588   5.563   0.452
 1444TIP3   OH2 4276   2.195   4.762   0.245
 1444TIP3    H1 4277   2.160   4.846   0.274
 1444TIP3    H2 4278   2.118   4.710   0.223
 1445TIP3   OH2 4279   2.265   5.076   0.456
 1445TIP3    H1 4280   2.315   4.999   0.484
 1445TIP3    H2 4281   2.332   5.142   0.437
 1446TIP3   OH2 4282   3.084   5.958   0.110
 1446TIP3    H1 4283   3.177   5.964   0.087
 1446TIP3    H2 4284   3.084   5.940   0.204
 1447TIP3   OH2 4285   3.005   5.489   0.427
 1447TIP3    H1 4286   3.045   5.404   0.409
 1447TIP3    H2 4287   3.079   5.546   0.451
 1448TIP3   OH2 4288   4.020   4.810   0.462
 1448TIP3    H1 4289   4.039   4.896   0.500
 1448TIP3    H2 4290   4.056   4.814   0.373
 1449TIP3   OH2 4291   3.414   4.976   0.470
 1449TIP3    H1 4292   3.456   4.894   0.495
 1449TIP3    H2 4293   3.385   4.962   0.380
 1450TIP3   OH2 4294   2.775   4.641   0.423
 1450TIP3    H1 4295   2.757   4.715   0.365
 1450TIP3    H2 4296   2.721   4.570   0.389
 1451TIP3   OH2 4297   3.467   4.738   0.063
 1451TIP3    H1 4298   3.530   4.725   0.133
 1451TIP3    H2 4299   3.518   4.772  -0.010
 1452TIP3   OH2 4300   2.400   4.853   0.548
 1452TIP3    H1 4301   2.481   4.836   0.596
 1452TIP3    H2 4302   2.407   4.801   0.468
 1453TIP3   OH2 4303   2.823   5.051   0.368
 1453TIP3    H1 4304   2.917   5.035   0.375
 1453TIP3    H2 4305   2.787   4.971   0.332
 1454TIP3   OH2 4306   4.088   5.026   0.629
 1454TIP3    H1 4307   4.001   5.064   0.619
 1454TIP3    H2 4308   4.125   5.071   0.705
 1455TIP3   OH2 4309   2.755   4.640   0.872
 1455TIP3    H1 4310   2.704   4.676   0.800
 1455TIP3    H2 4311   2.701   4.654   0.949
 1456TIP3   OH2 4312   0.256   1.478   6.864
 1456TIP3    H1 4313   0.189   1.448   6.803
 1456TIP3    H2 4314   0.232   1.569   6.885
 1457TIP3   OH2 4315   2.849   5.415   0.642
 1457TIP3    H1 4316   2.795   5.487   0.676
 1457TIP3    H2 4317   2.899   5.454   0.571
 1458TIP3   OH2 4318   3.630   4.746   0.280
 1458TIP3    H1 4319   3.591   4.728   0.365
 1458TIP3    H2 4320   3.686   4.822   0.295
 1459TIP3   OH2 4321   2.643   4.748   0.643
 1459TIP3    H1 4322   2.698   4.823   0.667
 1459TIP3    H2 4323   2.691   4.705   0.572
 1460TIP3   OH2 4324   2.688   5.617   0.743
 1460TIP3    H1 4325   2.675   5.706   0.713
 1460TIP3    H2 4326   2.611   5.597   0.796
 1461TIP3   OH2 4327   7.746   1.293   6.937
 1461TIP3    H1 4328   7.730   1.299   6.843
 1461TIP3    H2 4329   7.752   1.384   6.966
 1462TIP3   OH2 4330   3.498   5.793   0.249
 1462TIP3    H1 4331   3.405   5.802   0.267
 1462TIP3    H2 4332   3.518   5.866   0.191
 1463TIP3   OH2 4333   3.820   4.690   0.613
 1463TIP3    H1 4334   3.736   4.717   0.577
 1463TIP3    H2 4335   3.885   4.724   0.551
 1464TIP3   OH2 4336   3.095   4.332   0.599
 1464TIP3    H1 4337   3.089   4.240   0.626
 1464TIP3    H2 4338   3.019   4.374   0.640
 1465TIP3   OH2 4339   3.690   5.710   0.611
 1465TIP3    H1 4340   3.672   5.633   0.557
 1465TIP3    H2 4341   3.711   5.779   0.548
 1466TIP3   OH2 4342   0.204   1.127   6.837
 1466TIP3    H1 4343   0.135   1.180   6.797
 1466TIP3    H2 4344   0.283   1.151   6.788
 1467TIP3   OH2 4345   3.959   5.312   0.478
 1467TIP3    H1 4346   3.931   5.403   0.475
 1467TIP3    H2 4347   3.992   5.294   0.390
 1468TIP3   OH2 4348   0.487   1.132   6.808
 1468TIP3    H1 4349   0.470   1.194   6.879
 1468TIP3    H2 4350   0.581   1.116   6.812
 1469TIP3   OH2 4351   3.604   5.224   0.755
 1469TIP3    H1 4352   3.597   5.302   0.812
 1469TIP3    H2 4353   3.524   5.227   0.703
 1470TIP3   OH2 4354   2.623   5.182   0.224
 1470TIP3    H1 4355   2.588   5.120   0.160
 1470TIP3    H2 4356   2.697   5.137   0.264
 1471TIP3   OH2 4357   2.760   5.609   0.369
 1471TIP3    H1 4358   2.732   5.585   0.280
 1471TIP3    H2 4359   2.846   5.568   0.378
 1472TIP3   OH2 4360   2.717   5.182   0.589
 1472TIP3    H1 4361   2.758   5.145   0.511
 1472TIP3    H2 4362   2.767   5.261   0.608
 1473TIP3   OH2 4363   3.250   5.809   0.352
 1473TIP3    H1 4364   3.240   5.886   0.408
 1473TIP3    H2 4365   3.246   5.735   0.413
 1474TIP3   OH2 4366   2.885   5.711   0.915
 1474TIP3    H1 4367   2.825   5.770   0.961
 1474TIP3    H2 4368   2.830   5.660   0.857
 1475TIP3   OH2 4369   2.646   5.273   1.043
 1475TIP3    H1 4370   2.648   5.366   1.067
 1475TIP3    H2 4371   2.553   5.251   1.040
 1476TIP3   OH2 4372   0.151   1.730   6.910
 1476TIP3    H1 4373   0.186   1.807   6.955
 1476TIP3    H2 4374   0.056   1.743   6.912
 1477TIP3   OH2 4375   2.679   5.877   0.994
 1477TIP3    H1 4376   2.654   5.886   0.902
 1477TIP3    H2 4377   2.596   5.863   1.039
 1478TIP3   OH2 4378   2.501   5.017   0.033
 1478TIP3    H1 4379   2.422   5.057  -0.003
 1478TIP3    H2 4380   2.474   4.928   0.055
 1479TIP3   OH2 4381   2.272   5.431   0.943
 1479TIP3    H1 4382   2.202   5.409   0.881
 1479TIP3    H2 4383   2.308   5.347   0.970
 1480TIP3   OH2 4384   2.135   5.623   0.606
 1480TIP3    H1 4385   2.228   5.637   0.623
 1480TIP3    H2 4386   2.092   5.702   0.641
 1481TIP3   OH2 4387   3.935   6.095   0.662
 1481TIP3    H1 4388   3.973   6.025   0.716
 1481TIP3    H2 4389   3.849   6.110   0.699
 1482TIP3   OH2 4390   3.062   5.864   0.774
 1482TIP3    H1 4391   3.057   5.954   0.806
 1482TIP3    H2 4392   2.999   5.816   0.827
 1483TIP3   OH2 4393   2.262   5.797   0.141
 1483TIP3    H1 4394   2.340   5.798   0.195
 1483TIP3    H2 4395   2.193   5.763   0.198
 1484TIP3   OH2 4396   3.841   5.170   0.935
 1484TIP3    H1 4397   3.772   5.183   0.871
 1484TIP3    H2 4398   3.863   5.077   0.929
 1485TIP3   OH2 4399   2.471   5.620   0.913
 1485TIP3    H1 4400   2.522   5.608   0.993
 1485TIP3    H2 4401   2.400   5.555   0.921
 1486TIP3   OH2 4402   2.860   4.426   0.726
 1486TIP3    H1 4403   2.775   4.393   0.695
 1486TIP3    H2 4404   2.839   4.506   0.773
 1487TIP3   OH2 4405   3.402   4.543   0.924
 1487TIP3    H1 4406   3.472   4.520   0.985
 1487TIP3    H2 4407   3.322   4.526   0.974
 1488TIP3   OH2 4408   3.618   4.960   0.839
 1488TIP3    H1 4409   3.581   4.959   0.928
 1488TIP3    H2 4410   3.602   5.050   0.808
 1489TIP3   OH2 4411   0.105   0.459   6.620
 1489TIP3    H1 4412   0.110   0.461   6.716
 1489TIP3    H2 4413   0.194   0.437   6.592
 1490TIP3   OH2 4414   2.796   4.958   0.735
 1490TIP3    H1 4415   2.752   4.966   0.819
 1490TIP3    H2 4416   2.776   5.040   0.689
 1491TIP3   OH2 4417   2.687   4.839   0.256
 1491TIP3    H1 4418   2.599   4.813   0.282
 1491TIP3    H2 4419   2.698   4.803   0.168
 1492TIP3   OH2 4420   0.338   0.909   6.922
 1492TIP3    H1 4421   0.275   0.979   6.901
 1492TIP3    H2 4422   0.417   0.934   6.874
 1493TIP3   OH2 4423   3.344   5.180   1.056
 1493TIP3    H1 4424   3.318   5.111   1.118
 1493TIP3    H2 4425   3.437   5.196   1.076
 1494TIP3   OH2 4426   3.328   4.924   0.215
 1494TIP3    H1 4427   3.260   4.947   0.151
 1494TIP3    H2 4428   3.376   4.852   0.175
 1495TIP3   OH2 4429   2.630   4.969   0.955
 1495TIP3    H1 4430   2.665   5.027   1.023
 1495TIP3    H2 4431   2.612   4.887   1.001
 1496TIP3   OH2 4432   8.342   0.389   6.613
 1496TIP3    H1 4433   8.325   0.413   6.705
 1496TIP3    H2 4434   8.431   0.419   6.596
 1497TIP3   OH2 4435   2.230   4.512   0.531
 1497TIP3    H1 4436   2.302   4.540   0.587
 1497TIP3    H2 4437   2.273   4.475   0.454
 1498TIP3   OH2 4438   2.180   4.494   0.034
 1498TIP3    H1 4439   2.240   4.538  -0.026
 1498TIP3    H2 4440   2.117   4.561   0.058
 1499TIP3   OH2 4441   3.350   5.182   0.633
 1499TIP3    H1 4442   3.380   5.116   0.570
 1499TIP3    H2 4443   3.313   5.131   0.705
 1500TIP3   OH2 4444   3.039   4.632   0.304
 1500TIP3    H1 4445   2.963   4.633   0.362
 1500TIP3    H2 4446   3.114   4.623   0.363
 1501TIP3   OH2 4447   2.453   4.712   0.318
 1501TIP3    H1 4448   2.363   4.715   0.285
 1501TIP3    H2 4449   2.482   4.622   0.303
 1502TIP3   OH2 4450   8.368   0.703   6.954
 1502TIP3    H1 4451   8.462   0.717   6.939
 1502TIP3    H2 4452   8.327   0.724   6.870
 1503TIP3   OH2 4453   3.497   4.713   0.522
 1503TIP3    H1 4454   3.473   4.731   0.613
 1503TIP3    H2 4455   3.429   4.652   0.491
 1504TIP3   OH2 4456   8.204   0.726   6.732
 1504TIP3    H1 4457   8.118   0.685   6.741
 1504TIP3    H2 4458   8.210   0.749   6.639
 1505TIP3   OH2 4459   3.674   6.417   0.828
 1505TIP3    H1 4460   3.679   6.440   0.735
 1505TIP3    H2 4461   3.740   6.472   0.870
 1506TIP3   OH2 4462   2.628   5.536   1.145
 1506TIP3    H1 4463   2.709   5.554   1.193
 1506TIP3    H2 4464   2.560   5.540   1.213
 1507TIP3   OH2 4465   3.091   4.986   0.415
 1507TIP3    H1 4466   3.166   4.945   0.370
 1507TIP3    H2 4467   3.090   4.947   0.502
 1508TIP3   OH2 4468   2.591   4.469   0.294
 1508TIP3    H1 4469   2.564   4.395   0.347
 1508TIP3    H2 4470   2.626   4.430   0.214
 1509TIP3   OH2 4471   3.062   4.898   0.681
 1509TIP3    H1 4472   2.976   4.931   0.704
 1509TIP3    H2 4473   3.123   4.949   0.734
 1510TIP3   OH2 4474   8.494   1.273   6.739
 1510TIP3    H1 4475   8.423   1.216   6.712
 1510TIP3    H2 4476   8.465   1.311   6.823
 1511TIP3   OH2 4477   3.636   5.511   0.415
 1511TIP3    H1 4478   3.662   5.540   0.328
 1511TIP3    H2 4479   3.564   5.450   0.400
 1512TIP3   OH2 4480   3.183   5.576   0.796
 1512TIP3    H1 4481   3.244   5.561   0.868
 1512TIP3    H2 4482   3.140   5.658   0.817
 1513TIP3   OH2 4483   2.484   5.266   0.446
 1513TIP3    H1 4484   2.525   5.248   0.361
 1513TIP3    H2 4485   2.550   5.238   0.510
 1514TIP3   OH2 4486   2.373   5.208   1.079
 1514TIP3    H1 4487   2.385   5.188   1.171
 1514TIP3    H2 4488   2.301   5.151   1.051
 1515TIP3   OH2 4489   3.114   5.336   1.094
 1515TIP3    H1 4490   3.048   5.277   1.056
 1515TIP3    H2 4491   3.198   5.297   1.068
 1516TIP3   OH2 4492   3.330   5.849   0.725
 1516TIP3    H1 4493   3.234   5.848   0.724
 1516TIP3    H2 4494   3.353   5.885   0.811
 1517TIP3   OH2 4495   3.928   5.722   0.755
 1517TIP3    H1 4496   3.836   5.733   0.729
 1517TIP3    H2 4497   3.978   5.766   0.686
 1518TIP3   OH2 4498   3.430   5.354   0.316
 1518TIP3    H1 4499   3.337   5.335   0.303
 1518TIP3    H2 4500   3.475   5.279   0.277
 1519TIP3   OH2 4501   2.609   5.582   0.138
 1519TIP3    H1 4502   2.589   5.653   0.078
 1519TIP3    H2 4503   2.526   5.562   0.181
 1520TIP3   OH2 4504   7.838   0.888   6.762
 1520TIP3    H1 4505   7.881   0.970   6.784
 1520TIP3    H2 4506   7.752   0.893   6.802
 1521TIP3   OH2 4507   2.731   5.359   0.039
 1521TIP3    H1 4508   2.697   5.445   0.065
 1521TIP3    H2 4509   2.698   5.299   0.106
 1522TIP3   OH2 4510   2.892   5.935   0.565
 1522TIP3    H1 4511   2.931   6.008   0.517
 1522TIP3    H2 4512   2.962   5.903   0.621
 1523TIP3   OH2 4513   8.183   1.780   6.929
 1523TIP3    H1 4514   8.089   1.797   6.929
 1523TIP3    H2 4515   8.222   1.867   6.918
 1524TIP3   OH2 4516   3.246   5.589   0.524
 1524TIP3    H1 4517   3.230   5.581   0.618
 1524TIP3    H2 4518   3.316   5.526   0.506
 1525TIP3   OH2 4519   3.431   6.085   0.630
 1525TIP3    H1 4520   3.412   6.010   0.686
 1525TIP3    H2 4521   3.359   6.086   0.567
 1526TIP3   OH2 4522   2.582   4.717   1.078
 1526TIP3    H1 4523   2.487   4.725   1.084
 1526TIP3    H2 4524   2.607   4.666   1.155
 1527TIP3   OH2 4525   2.336   5.818   0.736
 1527TIP3    H1 4526   2.384   5.755   0.790
 1527TIP3    H2 4527   2.352   5.902   0.777
 1528TIP3   OH2 4528   7.951   1.127   6.849
 1528TIP3    H1 4529   7.886   1.180   6.894
 1528TIP3    H2 4530   7.989   1.186   6.783
 1529TIP3   OH2 4531   3.424   4.776   0.779
 1529TIP3    H1 4532   3.503   4.821   0.808
 1529TIP3    H2 4533   3.418   4.698   0.835
 1530TIP3   OH2 4534   0.470   0.533   6.906
 1530TIP3    H1 4535   0.443   0.575   6.824
 1530TIP3    H2 4536   0.526   0.597   6.949
 1531TIP3   OH2 4537   2.984   4.722   0.045
 1531TIP3    H1 4538   3.049   4.786   0.018
 1531TIP3    H2 4539   3.003   4.704   0.137
 1532TIP3   OH2 4540   3.267   5.012   0.833
 1532TIP3    H1 4541   3.295   5.056   0.914
 1532TIP3    H2 4542   3.317   4.931   0.830
 1533TIP3   OH2 4543   3.132   4.420   0.145
 1533TIP3    H1 4544   3.108   4.495   0.199
 1533TIP3    H2 4545   3.200   4.453   0.087
 1534TIP3   OH2 4546   8.322   0.429   6.892
 1534TIP3    H1 4547   8.310   0.520   6.919
 1534TIP3    H2 4548   8.417   0.415   6.897
 1535TIP3   OH2 4549   3.885   4.908   0.838
 1535TIP3    H1 4550   3.789   4.909   0.839
 1535TIP3    H2 4551   3.908   4.880   0.749
 1536TIP3   OH2 4552   3.549   5.117   0.221
 1536TIP3    H1 4553   3.477   5.054   0.221
 1536TIP3    H2 4554   3.618   5.075   0.272
 1537TIP3   OH2 4555   7.919   0.632   6.737
 1537TIP3    H1 4556   7.901   0.725   6.742
 1537TIP3    H2 4557   7.837   0.592   6.707
 1538TIP3   OH2 4558   3.583   5.999   0.091
 1538TIP3    H1 4559   3.521   6.059   0.050
 1538TIP3    H2 4560   3.669   6.029   0.062
 1539TIP3   OH2 4561   2.598   4.341   0.689
 1539TIP3    H1 4562   2.574   4.307   0.603
 1539TIP3    H2 4563   2.590   4.266   0.747
 1540TIP3   OH2 4564   2.090   5.570   0.044
 1540TIP3    H1 4565   2.016   5.626   0.065
 1540TIP3    H2 4566   2.162   5.631   0.026
 1541TIP3   OH2 4567   2.329   6.125   1.147
 1541TIP3    H1 4568   2.409   6.133   1.198
 1541TIP3    H2 4569   2.319   6.031   1.132
 1542TIP3   OH2 4570   2.785   6.044   1.186
 1542TIP3    H1 4571   2.876   6.016   1.197
 1542TIP3    H2 4572   2.752   5.990   1.114
 1543TIP3   OH2 4573   3.408   5.981   0.948
 1543TIP3    H1 4574   3.412   5.910   1.012
 1543TIP3    H2 4575   3.481   6.038   0.970
 1544TIP3   OH2 4576   2.425   5.530   1.337
 1544TIP3    H1 4577   2.445   5.437   1.347
 1544TIP3    H2 4578   2.338   5.531   1.296
 1545TIP3   OH2 4579   3.044   5.611   1.117
 1545TIP3    H1 4580   2.997   5.629   1.036
 1545TIP3    H2 4581   3.082   5.524   1.104
 1546TIP3   OH2 4582   3.482   5.622   0.760
 1546TIP3    H1 4583   3.559   5.657   0.715
 1546TIP3    H2 4584   3.414   5.687   0.742
 1547TIP3   OH2 4585   2.540   5.274   1.337
 1547TIP3    H1 4586   2.618   5.250   1.288
 1547TIP3    H2 4587   2.572   5.291   1.426
 1548TIP3   OH2 4588   8.300   1.069   6.731
 1548TIP3    H1 4589   8.259   1.055   6.817
 1548TIP3    H2 4590   8.351   0.990   6.716
 1549TIP3   OH2 4591   2.887   5.143   0.993
 1549TIP3    H1 4592   2.809   5.197   1.005
 1549TIP3    H2 4593   2.927   5.176   0.913
 1550TIP3   OH2 4594   3.395   5.523   1.098
 1550TIP3    H1 4595   3.464   5.488   1.042
 1550TIP3    H2 4596   3.398   5.468   1.177
 1551TIP3   OH2 4597   3.004   4.924   1.109
 1551TIP3    H1 4598   3.010   4.852   1.047
 1551TIP3    H2 4599   2.966   4.996   1.059
 1552TIP3   OH2 4600   3.015   4.724   0.908
 1552TIP3    H1 4601   3.042   4.761   0.824
 1552TIP3    H2 4602   2.924   4.697   0.894
 1553TIP3   OH2 4603   3.020   5.253   0.785
 1553TIP3    H1 4604   3.111   5.277   0.763
 1553TIP3    H2 4605   2.967   5.316   0.736
 1554TIP3   OH2 4606   3.611   5.206   1.157
 1554TIP3    H1 4607   3.648   5.118   1.166
 1554TIP3    H2 4608   3.683   5.258   1.120
 1555TIP3   OH2 4609   3.610   5.453   0.925
 1555TIP3    H1 4610   3.559   5.513   0.870
 1555TIP3    H2 4611   3.699   5.458   0.889
 1556TIP3   OH2 4612   2.888   5.013   1.350
 1556TIP3    H1 4613   2.819   4.950   1.371
 1556TIP3    H2 4614   2.918   4.987   1.263
 1557TIP3   OH2 4615   3.136   4.490   1.006
 1557TIP3    H1 4616   3.096   4.571   0.974
 1557TIP3    H2 4617   3.069   4.423   0.993
 1558TIP3   OH2 4618   3.261   4.968   1.209
 1558TIP3    H1 4619   3.253   4.955   1.304
 1558TIP3    H2 4620   3.175   4.946   1.174
 1559TIP3   OH2 4621   3.508   4.922   1.081
 1559TIP3    H1 4622   3.430   4.922   1.137
 1559TIP3    H2 4623   3.579   4.896   1.140
 1560TIP3   OH2 4624   3.742   4.883   1.230
 1560TIP3    H1 4625   3.757   4.789   1.237
 1560TIP3    H2 4626   3.738   4.914   1.320
 1561TIP3   OH2 4627   2.723   4.792   1.414
 1561TIP3    H1 4628   2.729   4.703   1.378
 1561TIP3    H2 4629   2.761   4.786   1.501
 1562TIP3   OH2 4630   3.205   4.473   1.271
 1562TIP3    H1 4631   3.274   4.407   1.266
 1562TIP3    H2 4632   3.174   4.482   1.181
 1563TIP3   OH2 4633   3.297   4.689   1.415
 1563TIP3    H1 4634   3.267   4.617   1.360
 1563TIP3    H2 4635   3.223   4.751   1.415
 1564TIP3   OH2 4636   7.715   1.271   6.663
 1564TIP3    H1 4637   7.778   1.325   6.615
 1564TIP3    H2 4638   7.686   1.206   6.599
 1565TIP3   OH2 4639   1.904   5.758   0.149
 1565TIP3    H1 4640   1.816   5.726   0.169
 1565TIP3    H2 4641   1.953   5.748   0.230
 1566TIP3   OH2 4642   2.086   5.745   0.355
 1566TIP3    H1 4643   2.089   5.672   0.418
 1566TIP3    H2 4644   2.127   5.818   0.401
 1567TIP3   OH2 4645   3.726   6.189   0.418
 1567TIP3    H1 4646   3.680   6.105   0.431
 1567TIP3    H2 4647   3.813   6.174   0.454
 1568TIP3   OH2 4648   3.857   5.872   1.012
 1568TIP3    H1 4649   3.787   5.879   1.077
 1568TIP3    H2 4650   3.898   5.958   1.011
 1569TIP3   OH2 4651   3.739   5.609   0.176
 1569TIP3    H1 4652   3.809   5.571   0.122
 1569TIP3    H2 4653   3.664   5.614   0.117
 1570TIP3   OH2 4654   3.592   5.954   0.450
 1570TIP3    H1 4655   3.532   5.988   0.517
 1570TIP3    H2 4656   3.537   5.898   0.395
 1571TIP3   OH2 4657   0.742   1.079   6.881
 1571TIP3    H1 4658   0.781   0.992   6.871
 1571TIP3    H2 4659   0.760   1.102   6.972
 1572TIP3   OH2 4660   2.239   5.176   0.710
 1572TIP3    H1 4661   2.231   5.141   0.622
 1572TIP3    H2 4662   2.333   5.170   0.730
 1573TIP3   OH2 4663   3.858   5.471   0.822
 1573TIP3    H1 4664   3.933   5.411   0.823
 1573TIP3    H2 4665   3.889   5.547   0.774
 1574TIP3   OH2 4666   4.065   5.299   0.851
 1574TIP3    H1 4667   3.996   5.242   0.886
 1574TIP3    H2 4668   4.145   5.247   0.859
 1575TIP3   OH2 4669   0.804   0.817   6.802
 1575TIP3    H1 4670   0.838   0.727   6.809
 1575TIP3    H2 4671   0.840   0.849   6.719
 1576TIP3   OH2 4672   3.752   4.981   0.360
 1576TIP3    H1 4673   3.836   4.999   0.318
 1576TIP3    H2 4674   3.762   5.015   0.449
 1577TIP3   OH2 4675   3.818   5.115   0.597
 1577TIP3    H1 4676   3.743   5.155   0.642
 1577TIP3    H2 4677   3.860   5.188   0.552
 1578TIP3   OH2 4678   2.459   4.849   1.353
 1578TIP3    H1 4679   2.553   4.846   1.371
 1578TIP3    H2 4680   2.425   4.768   1.392
 1579TIP3   OH2 4681   4.302   4.741   1.118
 1579TIP3    H1 4682   4.366   4.684   1.075
 1579TIP3    H2 4683   4.262   4.790   1.046
 1580TIP3   OH2 4684   0.875   0.558   6.830
 1580TIP3    H1 4685   0.936   0.540   6.902
 1580TIP3    H2 4686   0.814   0.485   6.832
 1581TIP3   OH2 4687   2.435   4.565   0.707
 1581TIP3    H1 4688   2.488   4.485   0.714
 1581TIP3    H2 4689   2.498   4.635   0.691
 1582TIP3   OH2 4690   2.216   4.827   0.763
 1582TIP3    H1 4691   2.267   4.821   0.682
 1582TIP3    H2 4692   2.254   4.901   0.810
 1583TIP3   OH2 4693   4.148   4.850   0.921
 1583TIP3    H1 4694   4.065   4.891   0.944
 1583TIP3    H2 4695   4.124   4.776   0.866
 1584TIP3   OH2 4696   2.231   4.366   0.284
 1584TIP3    H1 4697   2.142   4.359   0.319
 1584TIP3    H2 4698   2.221   4.422   0.207
 1585TIP3   OH2 4699   2.425   4.397   1.090
 1585TIP3    H1 4700   2.375   4.389   1.171
 1585TIP3    H2 4701   2.367   4.444   1.031
 1586TIP3   OH2 4702   2.455   5.850   1.157
 1586TIP3    H1 4703   2.362   5.827   1.152
 1586TIP3    H2 4704   2.479   5.833   1.248
 1587TIP3   OH2 4705   2.664   5.891   0.712
 1587TIP3    H1 4706   2.611   5.964   0.678
 1587TIP3    H2 4707   2.749   5.900   0.669
 1588TIP3   OH2 4708   3.062   6.127   0.858
 1588TIP3    H1 4709   3.103   6.118   0.944
 1588TIP3    H2 4710   3.122   6.183   0.808
 1589TIP3   OH2 4711   3.242   6.293   0.733
 1589TIP3    H1 4712   3.313   6.259   0.678
 1589TIP3    H2 4713   3.286   6.349   0.797
 1590TIP3   OH2 4714   4.057   4.609   0.811
 1590TIP3    H1 4715   3.969   4.606   0.773
 1590TIP3    H2 4716   4.090   4.520   0.804
 1591TIP3   OH2 4717   2.333   6.130   0.762
 1591TIP3    H1 4718   2.241   6.148   0.741
 1591TIP3    H2 4719   2.356   6.197   0.826
 1592TIP3   OH2 4720   2.554   6.117   0.603
 1592TIP3    H1 4721   2.472   6.124   0.651
 1592TIP3    H2 4722   2.533   6.148   0.515
 1593TIP3   OH2 4723   2.974   6.140   0.398
 1593TIP3    H1 4724   2.898   6.154   0.343
 1593TIP3    H2 4725   2.986   6.224   0.443
 1594TIP3   OH2 4726   3.231   6.065   0.448
 1594TIP3    H1 4727   3.141   6.093   0.431
 1594TIP3    H2 4728   3.285   6.119   0.389
 1595TIP3   OH2 4729   3.401   6.220   0.307
 1595TIP3    H1 4730   3.380   6.311   0.328
 1595TIP3    H2 4731   3.488   6.224   0.268
 1596TIP3   OH2 4732   2.258   5.924   0.488
 1596TIP3    H1 4733   2.279   5.896   0.577
 1596TIP3    H2 4734   2.329   5.889   0.434
 1597TIP3   OH2 4735   2.451   5.804   0.340
 1597TIP3    H1 4736   2.461   5.719   0.382
 1597TIP3    H2 4737   2.540   5.841   0.339
 1598TIP3   OH2 4738   2.718   5.884   0.357
 1598TIP3    H1 4739   2.736   5.791   0.347
 1598TIP3    H2 4740   2.769   5.911   0.433
 1599TIP3   OH2 4741   3.265   4.536   0.440
 1599TIP3    H1 4742   3.229   4.464   0.491
 1599TIP3    H2 4743   3.335   4.497   0.388
 1600TIP3   OH2 4744   3.771   4.456   0.342
 1600TIP3    H1 4745   3.809   4.504   0.268
 1600TIP3    H2 4746   3.679   4.483   0.342
 1601TIP3   OH2 4747   3.886   4.519   0.098
 1601TIP3    H1 4748   3.957   4.462   0.068
 1601TIP3    H2 4749   3.919   4.608   0.084
 1602TIP3   OH2 4750   2.525   4.246   0.438
 1602TIP3    H1 4751   2.437   4.213   0.457
 1602TIP3    H2 4752   2.580   4.168   0.434
 1603TIP3   OH2 4753   2.314   4.136   0.137
 1603TIP3    H1 4754   2.361   4.187   0.070
 1603TIP3    H2 4755   2.294   4.199   0.205
 1604TIP3   OH2 4756   2.981   4.284   0.342
 1604TIP3    H1 4757   3.034   4.328   0.275
 1604TIP3    H2 4758   3.023   4.308   0.425
 1605TIP3   OH2 4759   3.479   4.423   0.309
 1605TIP3    H1 4760   3.509   4.392   0.223
 1605TIP3    H2 4761   3.484   4.347   0.366
 1606TIP3   OH2 4762   0.691   0.361   6.862
 1606TIP3    H1 4763   0.605   0.402   6.872
 1606TIP3    H2 4764   0.679   0.272   6.895
 1607TIP3   OH2 4765   8.104   0.247   6.862
 1607TIP3    H1 4766   8.143   0.161   6.845
 1607TIP3    H2 4767   8.179   0.307   6.867
 1608TIP3   OH2 4768   0.099   0.461   6.895
 1608TIP3    H1 4769   0.156   0.411   6.953
 1608TIP3    H2 4770   0.114   0.552   6.920
 1609TIP3   OH2 4771   2.735   4.521   1.327
 1609TIP3    H1 4772   2.699   4.455   1.386
 1609TIP3    H2 4773   2.827   4.527   1.351
 1610TIP3   OH2 4774   2.983   4.524   1.448
 1610TIP3    H1 4775   3.062   4.502   1.398
 1610TIP3    H2 4776   2.977   4.456   1.515
 1611TIP3   OH2 4777   3.806   4.612   1.238
 1611TIP3    H1 4778   3.822   4.583   1.328
 1611TIP3    H2 4779   3.892   4.607   1.195
 1612TIP3   OH2 4780   3.689   6.147   0.762
 1612TIP3    H1 4781   3.600   6.124   0.733
 1612TIP3    H2 4782   3.682   6.237   0.793
 1613TIP3   OH2 4783   4.311   5.362   0.181
 1613TIP3    H1 4784   4.334   5.350   0.273
 1613TIP3    H2 4785   4.324   5.456   0.165
 1614TIP3   OH2 4786   1.252   1.018   6.945
 1614TIP3    H1 4787   1.346   1.020   6.962
 1614TIP3    H2 4788   1.234   1.101   6.900
 1615TIP3   OH2 4789   4.535   4.815   0.428
 1615TIP3    H1 4790   4.502   4.838   0.341
 1615TIP3    H2 4791   4.475   4.857   0.488
 1616TIP3   OH2 4792   4.457   4.878   0.176
 1616TIP3    H1 4793   4.444   4.968   0.148
 1616TIP3    H2 4794   4.458   4.827   0.095
 1617TIP3   OH2 4795   4.503   5.902   0.256
 1617TIP3    H1 4796   4.501   5.978   0.198
 1617TIP3    H2 4797   4.418   5.904   0.301
 1618TIP3   OH2 4798   4.903   4.615   0.117
 1618TIP3    H1 4799   4.862   4.529   0.120
 1618TIP3    H2 4800   4.851   4.669   0.178
 1619TIP3   OH2 4801   4.663   5.951   0.487
 1619TIP3    H1 4802   4.592   6.013   0.471
 1619TIP3    H2 4803   4.644   5.878   0.428
 1620TIP3   OH2 4804   4.476   5.519   0.637
 1620TIP3    H1 4805   4.462   5.605   0.596
 1620TIP3    H2 4806   4.438   5.457   0.575
 1621TIP3   OH2 4807   4.432   6.103   0.468
 1621TIP3    H1 4808   4.365   6.138   0.409
 1621TIP3    H2 4809   4.383   6.055   0.534
 1622TIP3   OH2 4810   4.165   5.658   0.428
 1622TIP3    H1 4811   4.122   5.649   0.343
 1622TIP3    H2 4812   4.120   5.597   0.485
 1623TIP3   OH2 4813   5.656   5.407   0.416
 1623TIP3    H1 4814   5.739   5.384   0.375
 1623TIP3    H2 4815   5.612   5.323   0.431
 1624TIP3   OH2 4816   4.238   5.913   0.332
 1624TIP3    H1 4817   4.182   5.968   0.388
 1624TIP3    H2 4818   4.204   5.825   0.343
 1625TIP3   OH2 4819   4.607   4.610   0.193
 1625TIP3    H1 4820   4.511   4.617   0.200
 1625TIP3    H2 4821   4.639   4.692   0.231
 1626TIP3   OH2 4822   5.219   4.763   0.402
 1626TIP3    H1 4823   5.280   4.743   0.473
 1626TIP3    H2 4824   5.138   4.789   0.447
 1627TIP3   OH2 4825   5.445   5.204   0.290
 1627TIP3    H1 4826   5.475   5.189   0.380
 1627TIP3    H2 4827   5.377   5.139   0.276
 1628TIP3   OH2 4828   4.617   5.149   0.180
 1628TIP3    H1 4829   4.577   5.139   0.267
 1628TIP3    H2 4830   4.590   5.236   0.151
 1629TIP3   OH2 4831   5.185   5.338   0.460
 1629TIP3    H1 4832   5.137   5.315   0.539
 1629TIP3    H2 4833   5.255   5.396   0.490
 1630TIP3   OH2 4834   4.360   5.144   0.387
 1630TIP3    H1 4835   4.334   5.228   0.424
 1630TIP3    H2 4836   4.331   5.080   0.452
 1631TIP3   OH2 4837   3.997   4.763   0.051
 1631TIP3    H1 4838   4.062   4.772   0.120
 1631TIP3    H2 4839   4.001   4.845   0.002
 1632TIP3   OH2 4840   4.433   5.769   0.855
 1632TIP3    H1 4841   4.479   5.777   0.771
 1632TIP3    H2 4842   4.345   5.803   0.838
 1633TIP3   OH2 4843   4.844   5.032   0.105
 1633TIP3    H1 4844   4.766   5.082   0.129
 1633TIP3    H2 4845   4.911   5.098   0.090
 1634TIP3   OH2 4846   4.913   5.757   0.266
 1634TIP3    H1 4847   4.968   5.830   0.295
 1634TIP3    H2 4848   4.864   5.792   0.191
 1635TIP3   OH2 4849   4.125   5.475   0.640
 1635TIP3    H1 4850   4.151   5.452   0.729
 1635TIP3    H2 4851   4.058   5.410   0.618
 1636TIP3   OH2 4852   4.903   5.600   0.644
 1636TIP3    H1 4853   4.839   5.528   0.648
 1636TIP3    H2 4854   4.988   5.556   0.642
 1637TIP3   OH2 4855   4.354   4.950   0.590
 1637TIP3    H1 4856   4.260   4.961   0.607
 1637TIP3    H2 4857   4.389   4.916   0.673
 1638TIP3   OH2 4858   4.162   6.174   0.200
 1638TIP3    H1 4859   4.124   6.097   0.157
 1638TIP3    H2 4860   4.149   6.158   0.294
 1639TIP3   OH2 4861   5.270   5.003   0.257
 1639TIP3    H1 4862   5.279   4.970   0.167
 1639TIP3    H2 4863   5.257   4.925   0.310
 1640TIP3   OH2 4864   5.068   5.237   0.237
 1640TIP3    H1 4865   5.111   5.275   0.313
 1640TIP3    H2 4866   5.126   5.166   0.209
 1641TIP3   OH2 4867   4.334   4.581   0.203
 1641TIP3    H1 4868   4.318   4.553   0.113
 1641TIP3    H2 4869   4.349   4.500   0.251
 1642TIP3   OH2 4870   4.224   6.215   0.760
 1642TIP3    H1 4871   4.297   6.273   0.737
 1642TIP3    H2 4872   4.196   6.244   0.847
 1643TIP3   OH2 4873   4.464   6.296   0.651
 1643TIP3    H1 4874   4.551   6.308   0.689
 1643TIP3    H2 4875   4.474   6.223   0.590
 1644TIP3   OH2 4876   4.161   5.789   0.888
 1644TIP3    H1 4877   4.191   5.702   0.914
 1644TIP3    H2 4878   4.071   5.775   0.859
 1645TIP3   OH2 4879   4.926   5.847   0.551
 1645TIP3    H1 4880   4.836   5.881   0.542
 1645TIP3    H2 4881   4.915   5.762   0.592
 1646TIP3   OH2 4882   4.329   5.480   0.865
 1646TIP3    H1 4883   4.385   5.491   0.788
 1646TIP3    H2 4884   4.369   5.537   0.931
 1647TIP3   OH2 4885   4.610   5.378   0.404
 1647TIP3    H1 4886   4.623   5.408   0.494
 1647TIP3    H2 4887   4.690   5.403   0.359
 1648TIP3   OH2 4888   5.229   5.796   0.681
 1648TIP3    H1 4889   5.276   5.816   0.599
 1648TIP3    H2 4890   5.256   5.707   0.703
 1649TIP3   OH2 4891   4.745   5.113   0.714
 1649TIP3    H1 4892   4.785   5.027   0.705
 1649TIP3    H2 4893   4.692   5.123   0.635
 1650TIP3   OH2 4894   4.791   4.911   0.538
 1650TIP3    H1 4895   4.863   4.946   0.484
 1650TIP3    H2 4896   4.715   4.962   0.511
 1651TIP3   OH2 4897   4.842   5.474   0.294
 1651TIP3    H1 4898   4.933   5.496   0.275
 1651TIP3    H2 4899   4.791   5.536   0.240
 1652TIP3   OH2 4900   5.364   5.350   0.721
 1652TIP3    H1 4901   5.424   5.278   0.737
 1652TIP3    H2 4902   5.420   5.426   0.706
 1653TIP3   OH2 4903   4.667   5.300   0.900
 1653TIP3    H1 4904   4.598   5.306   0.965
 1653TIP3    H2 4905   4.652   5.216   0.856
 1654TIP3   OH2 4906   4.857   4.659   0.589
 1654TIP3    H1 4907   4.831   4.750   0.574
 1654TIP3    H2 4908   4.788   4.607   0.548
 1655TIP3   OH2 4909   5.067   5.226   0.693
 1655TIP3    H1 4910   5.061   5.225   0.788
 1655TIP3    H2 4911   4.978   5.208   0.663
 1656TIP3   OH2 4912   5.284   5.090   0.590
 1656TIP3    H1 4913   5.218   5.151   0.623
 1656TIP3    H2 4914   5.356   5.146   0.562
 1657TIP3   OH2 4915   5.661   5.119   0.860
 1657TIP3    H1 4916   5.587   5.063   0.838
 1657TIP3    H2 4917   5.627   5.176   0.930
 1658TIP3   OH2 4918   4.509   5.038   0.913
 1658TIP3    H1 4919   4.522   4.954   0.871
 1658TIP3    H2 4920   4.555   5.031   0.996
 1659TIP3   OH2 4921   5.002   4.711   0.811
 1659TIP3    H1 4922   5.072   4.646   0.811
 1659TIP3    H2 4923   4.950   4.690   0.733
 1660TIP3   OH2 4924   5.082   4.954   0.912
 1660TIP3    H1 4925   5.037   4.872   0.890
 1660TIP3    H2 4926   5.012   5.019   0.917
 1661TIP3   OH2 4927   4.038   5.324   0.214
 1661TIP3    H1 4928   3.989   5.371   0.147
 1661TIP3    H2 4929   4.130   5.330   0.187
 1662TIP3   OH2 4930   4.249   5.098   0.854
 1662TIP3    H1 4931   4.344   5.099   0.870
 1662TIP3    H2 4932   4.220   5.015   0.890
 1663TIP3   OH2 4933   5.991   5.087   0.685
 1663TIP3    H1 4934   6.047   5.011   0.698
 1663TIP3    H2 4935   6.032   5.135   0.613
 1664TIP3   OH2 4936   4.189   4.805   0.244
 1664TIP3    H1 4937   4.236   4.722   0.238
 1664TIP3    H2 4938   4.257   4.872   0.236
 1665TIP3   OH2 4939   3.995   5.058   0.265
 1665TIP3    H1 4940   4.024   5.021   0.182
 1665TIP3    H2 4941   4.008   5.153   0.255
 1666TIP3   OH2 4942   5.780   5.134   0.365
 1666TIP3    H1 4943   5.753   5.089   0.445
 1666TIP3    H2 4944   5.798   5.063   0.303
 1667TIP3   OH2 4945   4.210   4.640   0.576
 1667TIP3    H1 4946   4.164   4.639   0.660
 1667TIP3    H2 4947   4.155   4.695   0.520
 1668TIP3   OH2 4948   4.301   5.969   0.667
 1668TIP3    H1 4949   4.215   5.928   0.657
 1668TIP3    H2 4950   4.284   6.048   0.718
 1669TIP3   OH2 4951   5.811   4.884   0.223
 1669TIP3    H1 4952   5.779   4.877   0.133
 1669TIP3    H2 4953   5.901   4.851   0.220
 1670TIP3   OH2 4954   4.239   6.425   0.257
 1670TIP3    H1 4955   4.183   6.479   0.201
 1670TIP3    H2 4956   4.227   6.336   0.223
 1671TIP3   OH2 4957   1.459   0.475   6.895
 1671TIP3    H1 4958   1.370   0.439   6.894
 1671TIP3    H2 4959   1.515   0.401   6.874
 1672TIP3   OH2 4960   4.526   4.773   0.814
 1672TIP3    H1 4961   4.492   4.705   0.872
 1672TIP3    H2 4962   4.619   4.779   0.836
 1673TIP3   OH2 4963   4.770   4.776   0.949
 1673TIP3    H1 4964   4.851   4.747   0.907
 1673TIP3    H2 4965   4.753   4.709   1.015
 1674TIP3   OH2 4966   5.607   4.755   0.760
 1674TIP3    H1 4967   5.614   4.764   0.855
 1674TIP3    H2 4968   5.689   4.713   0.734
 1675TIP3   OH2 4969   0.552   5.965   1.817
 1675TIP3    H1 4970   0.528   5.919   1.737
 1675TIP3    H2 4971   0.525   6.056   1.802
 1676TIP3   OH2 4972   1.872   6.335   0.599
 1676TIP3    H1 4973   1.865   6.427   0.573
 1676TIP3    H2 4974   1.881   6.287   0.517
 1677TIP3   OH2 4975   1.961   6.600   0.749
 1677TIP3    H1 4976   1.914   6.608   0.666
 1677TIP3    H2 4977   1.893   6.582   0.813
 1678TIP3   OH2 4978   1.688   6.250   0.781
 1678TIP3    H1 4979   1.611   6.303   0.761
 1678TIP3    H2 4980   1.751   6.271   0.712
 1679TIP3   OH2 4981   1.697   6.748   1.087
 1679TIP3    H1 4982   1.607   6.763   1.058
 1679TIP3    H2 4983   1.714   6.656   1.067
 1680TIP3   OH2 4984   1.233   6.124   1.117
 1680TIP3    H1 4985   1.303   6.088   1.172
 1680TIP3    H2 4986   1.154   6.078   1.146
 1681TIP3   OH2 4987   1.503   6.498   0.991
 1681TIP3    H1 4988   1.460   6.484   1.075
 1681TIP3    H2 4989   1.462   6.578   0.957
 1682TIP3   OH2 4990   1.250   6.749   1.254
 1682TIP3    H1 4991   1.331   6.710   1.287
 1682TIP3    H2 4992   1.269   6.842   1.246
 1683TIP3   OH2 4993   1.357   6.253   0.913
 1683TIP3    H1 4994   1.428   6.307   0.947
 1683TIP3    H2 4995   1.322   6.208   0.990
 1684TIP3   OH2 4996   1.764   6.492   0.922
 1684TIP3    H1 4997   1.671   6.497   0.946
 1684TIP3    H2 4998   1.773   6.409   0.876
 1685TIP3   OH2 4999   1.193   7.137   1.419
 1685TIP3    H1 5000   1.124   7.096   1.366
 1685TIP3    H2 5001   1.240   7.064   1.458
 1686TIP3   OH2 5002   1.508   6.750   1.357
 1686TIP3    H1 5003   1.562   6.671   1.358
 1686TIP3    H2 5004   1.565   6.817   1.320
 1687TIP3   OH2 5005   1.583   7.048   1.021
 1687TIP3    H1 5006   1.512   7.036   0.959
 1687TIP3    H2 5007   1.656   7.081   0.969
 1688TIP3   OH2 5008   0.981   6.004   1.147
 1688TIP3    H1 5009   0.920   6.049   1.089
 1688TIP3    H2 5010   0.964   5.911   1.132
 1689TIP3   OH2 5011   1.152   6.477   1.382
 1689TIP3    H1 5012   1.198   6.493   1.464
 1689TIP3    H2 5013   1.060   6.467   1.409
 1690TIP3   OH2 5014   1.375   6.476   1.224
 1690TIP3    H1 5015   1.292   6.471   1.272
 1690TIP3    H2 5016   1.442   6.457   1.290
 1691TIP3   OH2 5017   1.600   6.441   1.387
 1691TIP3    H1 5018   1.608   6.346   1.390
 1691TIP3    H2 5019   1.590   6.468   1.478
 1692TIP3   OH2 5020   1.057   6.038   1.412
 1692TIP3    H1 5021   1.124   5.970   1.407
 1692TIP3    H2 5022   1.012   6.034   1.328
 1693TIP3   OH2 5023   1.147   6.237   1.576
 1693TIP3    H1 5024   1.127   6.171   1.509
 1693TIP3    H2 5025   1.071   6.295   1.576
 1694TIP3   OH2 5026   1.694   7.410   1.122
 1694TIP3    H1 5027   1.603   7.383   1.132
 1694TIP3    H2 5028   1.692   7.505   1.136
 1695TIP3   OH2 5029   1.818   7.108   0.887
 1695TIP3    H1 5030   1.850   7.025   0.922
 1695TIP3    H2 5031   1.889   7.139   0.831
 1696TIP3   OH2 5032   1.916   6.876   0.981
 1696TIP3    H1 5033   1.843   6.828   1.019
 1696TIP3    H2 5034   1.993   6.821   0.997
 1697TIP3   OH2 5035   2.149   6.290   1.268
 1697TIP3    H1 5036   2.214   6.235   1.225
 1697TIP3    H2 5037   2.116   6.347   1.198
 1698TIP3   OH2 5038   2.012   6.429   1.076
 1698TIP3    H1 5039   1.937   6.468   1.121
 1698TIP3    H2 5040   1.974   6.363   1.018
 1699TIP3   OH2 5041   1.907   6.177   0.965
 1699TIP3    H1 5042   1.822   6.175   0.920
 1699TIP3    H2 5043   1.938   6.087   0.961
 1700TIP3   OH2 5044   1.735   5.962   0.431
 1700TIP3    H1 5045   1.782   6.042   0.409
 1700TIP3    H2 5046   1.643   5.985   0.422
 1701TIP3   OH2 5047   1.022   6.648   1.149
 1701TIP3    H1 5048   1.107   6.669   1.188
 1701TIP3    H2 5049   1.003   6.722   1.092
 1702TIP3   OH2 5050   0.865   6.067   1.645
 1702TIP3    H1 5051   0.939   6.085   1.587
 1702TIP3    H2 5052   0.884   5.981   1.683
 1703TIP3   OH2 5053   1.653   6.168   1.388
 1703TIP3    H1 5054   1.669   6.138   1.477
 1703TIP3    H2 5055   1.739   6.163   1.345
 1704TIP3   OH2 5056   2.216   6.978   0.432
 1704TIP3    H1 5057   2.228   6.904   0.491
 1704TIP3    H2 5058   2.282   6.964   0.364
 1705TIP3   OH2 5059   2.418   6.464   0.085
 1705TIP3    H1 5060   2.375   6.530   0.031
 1705TIP3    H2 5061   2.412   6.383   0.034
 1706TIP3   OH2 5062   3.693   6.799   0.147
 1706TIP3    H1 5063   3.645   6.882   0.147
 1706TIP3    H2 5064   3.699   6.775   0.240
 1707TIP3   OH2 5065   2.390   6.443   0.527
 1707TIP3    H1 5066   2.336   6.475   0.455
 1707TIP3    H2 5067   2.337   6.459   0.605
 1708TIP3   OH2 5068   2.521   7.247   0.324
 1708TIP3    H1 5069   2.428   7.247   0.305
 1708TIP3    H2 5070   2.557   7.315   0.267
 1709TIP3   OH2 5071   2.270   6.545   0.302
 1709TIP3    H1 5072   2.321   6.622   0.324
 1709TIP3    H2 5073   2.318   6.504   0.230
 1710TIP3   OH2 5074   3.323   6.485   0.344
 1710TIP3    H1 5075   3.246   6.467   0.289
 1710TIP3    H2 5076   3.359   6.566   0.309
 1711TIP3   OH2 5077   2.737   6.149   0.249
 1711TIP3    H1 5078   2.726   6.056   0.269
 1711TIP3    H2 5079   2.659   6.191   0.284
 1712TIP3   OH2 5080   3.247   7.095   0.401
 1712TIP3    H1 5081   3.211   7.170   0.448
 1712TIP3    H2 5082   3.172   7.057   0.355
 1713TIP3   OH2 5083   2.412   6.990   0.213
 1713TIP3    H1 5084   2.419   6.958   0.123
 1713TIP3    H2 5085   2.487   7.048   0.225
 1714TIP3   OH2 5086   2.557   7.448   0.523
 1714TIP3    H1 5087   2.494   7.516   0.501
 1714TIP3    H2 5088   2.541   7.379   0.458
 1715TIP3   OH2 5089   2.318   7.120   0.693
 1715TIP3    H1 5090   2.317   7.209   0.728
 1715TIP3    H2 5091   2.226   7.098   0.681
 1716TIP3   OH2 5092   3.460   6.928   0.386
 1716TIP3    H1 5093   3.386   6.987   0.399
 1716TIP3    H2 5094   3.516   6.941   0.463
 1717TIP3   OH2 5095   2.030   7.475   0.721
 1717TIP3    H1 5096   2.088   7.419   0.773
 1717TIP3    H2 5097   1.977   7.413   0.670
 1718TIP3   OH2 5098   2.501   6.245   0.364
 1718TIP3    H1 5099   2.416   6.214   0.333
 1718TIP3    H2 5100   2.482   6.324   0.414
 1719TIP3   OH2 5101   3.024   6.349   0.567
 1719TIP3    H1 5102   3.099   6.337   0.627
 1719TIP3    H2 5103   2.948   6.327   0.620
 1720TIP3   OH2 5104   3.225   6.778   0.465
 1720TIP3    H1 5105   3.179   6.750   0.544
 1720TIP3    H2 5106   3.158   6.821   0.412
 1721TIP3   OH2 5107   2.433   6.758   0.367
 1721TIP3    H1 5108   2.407   6.786   0.455
 1721TIP3    H2 5109   2.426   6.837   0.313
 1722TIP3   OH2 5110   2.988   6.989   0.696
 1722TIP3    H1 5111   2.973   6.923   0.764
 1722TIP3    H2 5112   3.083   6.994   0.688
 1723TIP3   OH2 5113   2.269   6.767   0.604
 1723TIP3    H1 5114   2.342   6.807   0.652
 1723TIP3    H2 5115   2.249   6.687   0.652
 1724TIP3   OH2 5116   3.028   6.941   0.291
 1724TIP3    H1 5117   2.991   6.893   0.217
 1724TIP3    H2 5118   2.971   6.920   0.364
 1725TIP3   OH2 5119   2.688   6.495  -0.028
 1725TIP3    H1 5120   2.612   6.491   0.029
 1725TIP3    H2 5121   2.756   6.446   0.018
 1726TIP3   OH2 5122   3.093   6.485   0.189
 1726TIP3    H1 5123   3.054   6.538   0.258
 1726TIP3    H2 5124   3.019   6.439   0.149
 1727TIP3   OH2 5125   2.278   7.361   0.831
 1727TIP3    H1 5126   2.360   7.371   0.879
 1727TIP3    H2 5127   2.212   7.344   0.898
 1728TIP3   OH2 5128   2.853   6.777   0.139
 1728TIP3    H1 5129   2.823   6.737   0.057
 1728TIP3    H2 5130   2.803   6.732   0.207
 1729TIP3   OH2 5131   8.064   2.206   6.898
 1729TIP3    H1 5132   8.009   2.136   6.934
 1729TIP3    H2 5133   8.035   2.215   6.807
 1730TIP3   OH2 5134   2.695   6.680   0.349
 1730TIP3    H1 5135   2.605   6.711   0.350
 1730TIP3    H2 5136   2.743   6.745   0.400
 1731TIP3   OH2 5137   2.837   7.395   0.501
 1731TIP3    H1 5138   2.865   7.404   0.592
 1731TIP3    H2 5139   2.752   7.439   0.497
 1732TIP3   OH2 5140   2.052   7.043   0.745
 1732TIP3    H1 5141   2.096   7.032   0.829
 1732TIP3    H2 5142   2.026   6.954   0.720
 1733TIP3   OH2 5143   2.759   7.136   0.732
 1733TIP3    H1 5144   2.715   7.118   0.649
 1733TIP3    H2 5145   2.846   7.100   0.721
 1734TIP3   OH2 5146   2.225   6.522   0.737
 1734TIP3    H1 5147   2.132   6.546   0.744
 1734TIP3    H2 5148   2.242   6.467   0.812
 1735TIP3   OH2 5149   3.019   6.588   0.437
 1735TIP3    H1 5150   3.112   6.609   0.445
 1735TIP3    H2 5151   3.008   6.505   0.484
 1736TIP3   OH2 5152   2.879   6.827   0.494
 1736TIP3    H1 5153   2.908   6.871   0.574
 1736TIP3    H2 5154   2.923   6.742   0.496
 1737TIP3   OH2 5155   3.508   6.663   0.496
 1737TIP3    H1 5156   3.440   6.604   0.528
 1737TIP3    H2 5157   3.460   6.733   0.452
 1738TIP3   OH2 5158   2.244   6.152   0.327
 1738TIP3    H1 5159   2.226   6.112   0.242
 1738TIP3    H2 5160   2.241   6.079   0.389
 1739TIP3   OH2 5161   2.072   7.294   0.997
 1739TIP3    H1 5162   2.113   7.208   0.985
 1739TIP3    H2 5163   2.001   7.279   1.059
 1740TIP3   OH2 5164   2.654   7.392   0.772
 1740TIP3    H1 5165   2.624   7.412   0.683
 1740TIP3    H2 5166   2.708   7.313   0.762
 1741TIP3   OH2 5167   3.060   7.333   0.353
 1741TIP3    H1 5168   3.096   7.410   0.308
 1741TIP3    H2 5169   2.974   7.361   0.384
 1742TIP3   OH2 5170   2.215   7.058   0.972
 1742TIP3    H1 5171   2.297   7.034   0.930
 1742TIP3    H2 5172   2.239   7.078   1.062
 1743TIP3   OH2 5173   2.497   6.928   0.616
 1743TIP3    H1 5174   2.439   6.998   0.646
 1743TIP3    H2 5175   2.564   6.973   0.564
 1744TIP3   OH2 5176   2.985   7.350   0.771
 1744TIP3    H1 5177   3.058   7.337   0.711
 1744TIP3    H2 5178   3.002   7.289   0.843
 1745TIP3   OH2 5179   2.642   6.740   0.758
 1745TIP3    H1 5180   2.649   6.661   0.705
 1745TIP3    H2 5181   2.601   6.804   0.700
 1746TIP3   OH2 5182   2.647   6.525   0.574
 1746TIP3    H1 5183   2.676   6.561   0.491
 1746TIP3    H2 5184   2.556   6.499   0.558
 1747TIP3   OH2 5185   2.676   7.075   0.473
 1747TIP3    H1 5186   2.762   7.067   0.432
 1747TIP3    H2 5187   2.632   7.142   0.421
 1748TIP3   OH2 5188   3.296   7.035   0.932
 1748TIP3    H1 5189   3.287   6.983   0.852
 1748TIP3    H2 5190   3.324   7.121   0.902
 1749TIP3   OH2 5191   3.192   7.321   0.593
 1749TIP3    H1 5192   3.135   7.341   0.519
 1749TIP3    H2 5193   3.280   7.340   0.562
 1750TIP3   OH2 5194   2.516   6.833   0.990
 1750TIP3    H1 5195   2.455   6.763   1.010
 1750TIP3    H2 5196   2.554   6.810   0.905
 1751TIP3   OH2 5197   2.768   6.290   0.654
 1751TIP3    H1 5198   2.727   6.372   0.627
 1751TIP3    H2 5199   2.702   6.223   0.636
 1752TIP3   OH2 5200   2.905   6.779   0.851
 1752TIP3    H1 5201   2.907   6.768   0.946
 1752TIP3    H2 5202   2.815   6.762   0.826
 1753TIP3   OH2 5203   3.128   6.701   0.704
 1753TIP3    H1 5204   3.054   6.713   0.764
 1753TIP3    H2 5205   3.204   6.695   0.762
 1754TIP3   OH2 5206   3.350   6.685   0.872
 1754TIP3    H1 5207   3.370   6.592   0.880
 1754TIP3    H2 5208   3.348   6.716   0.963
 1755TIP3   OH2 5209   2.375   6.601   1.052
 1755TIP3    H1 5210   2.375   6.514   1.012
 1755TIP3    H2 5211   2.415   6.588   1.138
 1756TIP3   OH2 5212   2.837   6.282   0.916
 1756TIP3    H1 5213   2.908   6.218   0.913
 1756TIP3    H2 5214   2.807   6.288   0.826
 1757TIP3   OH2 5215   2.924   6.499   1.060
 1757TIP3    H1 5216   2.899   6.427   1.003
 1757TIP3    H2 5217   2.851   6.561   1.055
 1758TIP3   OH2 5218   3.416   7.774   0.660
 1758TIP3    H1 5219   3.348   7.743   0.719
 1758TIP3    H2 5220   3.441   7.860   0.694
 1759TIP3   OH2 5221   3.442   7.334   0.499
 1759TIP3    H1 5222   3.477   7.258   0.545
 1759TIP3    H2 5223   3.453   7.313   0.406
 1760TIP3   OH2 5224   3.690   7.187   0.402
 1760TIP3    H1 5225   3.683   7.110   0.459
 1760TIP3    H2 5226   3.768   7.233   0.433
 1761TIP3   OH2 5227   2.117   6.695   1.048
 1761TIP3    H1 5228   2.210   6.675   1.043
 1761TIP3    H2 5229   2.074   6.610   1.051
 1762TIP3   OH2 5230   3.905   6.576   0.851
 1762TIP3    H1 5231   3.948   6.490   0.845
 1762TIP3    H2 5232   3.930   6.620   0.769
 1763TIP3   OH2 5233   2.056   6.352   0.354
 1763TIP3    H1 5234   2.121   6.282   0.353
 1763TIP3    H2 5235   2.107   6.432   0.348
 1764TIP3   OH2 5236   3.758   6.688   0.389
 1764TIP3    H1 5237   3.674   6.684   0.435
 1764TIP3    H2 5238   3.787   6.596   0.383
 1765TIP3   OH2 5239   2.071   6.201   0.735
 1765TIP3    H1 5240   2.026   6.198   0.819
 1765TIP3    H2 5241   2.016   6.256   0.679
 1766TIP3   OH2 5242   3.623   6.423   0.314
 1766TIP3    H1 5243   3.554   6.456   0.372
 1766TIP3    H2 5244   3.660   6.349   0.361
 1767TIP3   OH2 5245   2.882   6.327   0.092
 1767TIP3    H1 5246   2.834   6.271   0.153
 1767TIP3    H2 5247   2.938   6.267   0.043
 1768TIP3   OH2 5248   2.185   6.052   0.073
 1768TIP3    H1 5249   2.090   6.046   0.083
 1768TIP3    H2 5250   2.216   5.962   0.080
 1769TIP3   OH2 5251   8.284   2.036   6.924
 1769TIP3    H1 5252   8.367   2.068   6.960
 1769TIP3    H2 5253   8.226   2.112   6.924
 1770TIP3   OH2 5254   2.375   6.329   0.964
 1770TIP3    H1 5255   2.340   6.263   1.023
 1770TIP3    H2 5256   2.467   6.337   0.988
 1771TIP3   OH2 5257   2.622   6.333   1.088
 1771TIP3    H1 5258   2.700   6.313   1.036
 1771TIP3    H2 5259   2.619   6.264   1.155
 1772TIP3   OH2 5260   3.413   6.421   0.907
 1772TIP3    H1 5261   3.427   6.394   0.998
 1772TIP3    H2 5262   3.500   6.417   0.867
 1773TIP3   OH2 5263   3.920   7.554   0.384
 1773TIP3    H1 5264   3.870   7.489   0.434
 1773TIP3    H2 5265   3.862   7.582   0.314
 1774TIP3   OH2 5266   3.919   7.287   0.495
 1774TIP3    H1 5267   3.971   7.221   0.449
 1774TIP3    H2 5268   3.983   7.337   0.546
 1775TIP3   OH2 5269   4.365   7.017   0.323
 1775TIP3    H1 5270   4.319   6.975   0.395
 1775TIP3    H2 5271   4.457   7.013   0.347
 1776TIP3   OH2 5272   4.182   6.881   0.502
 1776TIP3    H1 5273   4.191   6.793   0.465
 1776TIP3    H2 5274   4.250   6.887   0.568
 1777TIP3   OH2 5275   4.682   6.792   0.504
 1777TIP3    H1 5276   4.701   6.718   0.446
 1777TIP3    H2 5277   4.593   6.818   0.481
 1778TIP3   OH2 5278   3.921   6.908   0.413
 1778TIP3    H1 5279   4.005   6.886   0.454
 1778TIP3    H2 5280   3.884   6.823   0.387
 1779TIP3   OH2 5281   3.777   6.540   0.118
 1779TIP3    H1 5282   3.720   6.494   0.180
 1779TIP3    H2 5283   3.739   6.628   0.112
 1780TIP3   OH2 5284   4.203   6.623   0.435
 1780TIP3    H1 5285   4.230   6.559   0.370
 1780TIP3    H2 5286   4.230   6.586   0.519
 1781TIP3   OH2 5287   4.515   6.593   0.657
 1781TIP3    H1 5288   4.512   6.555   0.569
 1781TIP3    H2 5289   4.426   6.582   0.691
 1782TIP3   OH2 5290   1.288   0.040   3.988
 1782TIP3    H1 5291   1.321  -0.025   4.051
 1782TIP3    H2 5292   1.365   0.073   3.943
 1783TIP3   OH2 5293   1.083   0.456   3.949
 1783TIP3    H1 5294   1.128   0.383   3.906
 1783TIP3    H2 5295   1.140   0.481   4.021
 1784TIP3   OH2 5296   7.832   7.592   4.476
 1784TIP3    H1 5297   7.753   7.539   4.465
 1784TIP3    H2 5298   7.838   7.607   4.570
 1785TIP3   OH2 5299   1.351   0.326   4.017
 1785TIP3    H1 5300   1.291   0.270   4.067
 1785TIP3    H2 5301   1.431   0.274   4.009
 1786TIP3   OH2 5302   1.792   0.155   4.521
 1786TIP3    H1 5303   1.826   0.107   4.445
 1786TIP3    H2 5304   1.708   0.190   4.492
 1787TIP3   OH2 5305   7.673   7.819   4.343
 1787TIP3    H1 5306   7.607   7.755   4.371
 1787TIP3    H2 5307   7.702   7.789   4.257
 1788TIP3   OH2 5308   1.187   0.214   4.213
 1788TIP3    H1 5309   1.112   0.262   4.248
 1788TIP3    H2 5310   1.225   0.171   4.290
 1789TIP3   OH2 5311   1.938   0.618   4.557
 1789TIP3    H1 5312   1.947   0.523   4.557
 1789TIP3    H2 5313   1.852   0.634   4.598
 1790TIP3   OH2 5314   1.066   0.291   4.638
 1790TIP3    H1 5315   1.062   0.281   4.733
 1790TIP3    H2 5316   0.995   0.351   4.617
 1791TIP3   OH2 5317   7.465   7.716   4.888
 1791TIP3    H1 5318   7.413   7.796   4.876
 1791TIP3    H2 5319   7.407   7.656   4.934
 1792TIP3   OH2 5320   1.637   0.928   4.629
 1792TIP3    H1 5321   1.631   0.945   4.535
 1792TIP3    H2 5322   1.717   0.972   4.657
 1793TIP3   OH2 5323   7.305   7.912   4.386
 1793TIP3    H1 5324   7.361   7.977   4.345
 1793TIP3    H2 5325   7.216   7.946   4.375
 1794TIP3   OH2 5326   1.387   0.369   4.616
 1794TIP3    H1 5327   1.319   0.301   4.610
 1794TIP3    H2 5328   1.387   0.396   4.707
 1795TIP3   OH2 5329   1.982   0.348   4.571
 1795TIP3    H1 5330   1.898   0.304   4.584
 1795TIP3    H2 5331   2.015   0.313   4.489
 1796TIP3   OH2 5332   7.119   7.863   4.127
 1796TIP3    H1 5333   7.081   7.856   4.214
 1796TIP3    H2 5334   7.088   7.785   4.081
 1797TIP3   OH2 5335   0.907   0.475   4.518
 1797TIP3    H1 5336   0.874   0.562   4.498
 1797TIP3    H2 5337   0.945   0.445   4.435
 1798TIP3   OH2 5338   1.298   0.137   4.457
 1798TIP3    H1 5339   1.294   0.069   4.524
 1798TIP3    H2 5340   1.390   0.162   4.454
 1799TIP3   OH2 5341   1.498   0.620   4.434
 1799TIP3    H1 5342   1.446   0.546   4.404
 1799TIP3    H2 5343   1.460   0.696   4.390
 1800TIP3   OH2 5344   1.523   0.681   4.055
 1800TIP3    H1 5345   1.479   0.672   3.970
 1800TIP3    H2 5346   1.616   0.690   4.033
 1801TIP3   OH2 5347   1.433   0.394   4.887
 1801TIP3    H1 5348   1.474   0.347   4.959
 1801TIP3    H2 5349   1.468   0.483   4.893
 1802TIP3   OH2 5350   1.563   0.169   4.710
 1802TIP3    H1 5351   1.649   0.162   4.669
 1802TIP3    H2 5352   1.526   0.250   4.675
 1803TIP3   OH2 5353   7.312   7.940   4.811
 1803TIP3    H1 5354   7.254   8.011   4.783
 1803TIP3    H2 5355   7.397   7.962   4.773
 1804TIP3   OH2 5356   1.788   0.654   4.035
 1804TIP3    H1 5357   1.812   0.689   4.121
 1804TIP3    H2 5358   1.853   0.692   3.975
 1805TIP3   OH2 5359   1.806   0.712   4.312
 1805TIP3    H1 5360   1.782   0.622   4.335
 1805TIP3    H2 5361   1.882   0.731   4.367
 1806TIP3   OH2 5362   1.800   0.366   4.873
 1806TIP3    H1 5363   1.733   0.375   4.941
 1806TIP3    H2 5364   1.851   0.448   4.879
 1807TIP3   OH2 5365   1.743   0.167   4.061
 1807TIP3    H1 5366   1.827   0.126   4.040
 1807TIP3    H2 5367   1.758   0.260   4.044
 1808TIP3   OH2 5368   1.712   0.458   4.383
 1808TIP3    H1 5369   1.639   0.514   4.409
 1808TIP3    H2 5370   1.695   0.438   4.290
 1809TIP3   OH2 5371   1.886   0.000   4.721
 1809TIP3    H1 5372   1.967  -0.050   4.710
 1809TIP3    H2 5373   1.877   0.050   4.639
 1810TIP3   OH2 5374   7.764   7.857   4.774
 1810TIP3    H1 5375   7.739   7.848   4.866
 1810TIP3    H2 5376   7.807   7.775   4.752
 1811TIP3   OH2 5377   7.327   7.451   4.270
 1811TIP3    H1 5378   7.358   7.406   4.192
 1811TIP3    H2 5379   7.382   7.528   4.278
 1812TIP3   OH2 5380   7.447   7.680   4.402
 1812TIP3    H1 5381   7.377   7.743   4.419
 1812TIP3    H2 5382   7.487   7.665   4.488
 1813TIP3   OH2 5383   1.254   0.559   3.603
 1813TIP3    H1 5384   1.295   0.486   3.556
 1813TIP3    H2 5385   1.314   0.578   3.675
 1814TIP3   OH2 5386   0.973   0.679   4.798
 1814TIP3    H1 5387   1.017   0.647   4.876
 1814TIP3    H2 5388   1.042   0.721   4.747
 1815TIP3   OH2 5389   1.214   0.773   4.680
 1815TIP3    H1 5390   1.209   0.802   4.588
 1815TIP3    H2 5391   1.277   0.833   4.720
 1816TIP3   OH2 5392   0.977   0.652   4.184
 1816TIP3    H1 5393   0.883   0.643   4.174
 1816TIP3    H2 5394   0.988   0.717   4.253
 1817TIP3   OH2 5395   1.234   0.586   4.139
 1817TIP3    H1 5396   1.145   0.619   4.153
 1817TIP3    H2 5397   1.291   0.658   4.163
 1818TIP3   OH2 5398   1.385   0.801   4.249
 1818TIP3    H1 5399   1.379   0.892   4.219
 1818TIP3    H2 5400   1.441   0.759   4.184
 1819TIP3   OH2 5401   1.679   0.658   4.648
 1819TIP3    H1 5402   1.611   0.626   4.589
 1819TIP3    H2 5403   1.664   0.752   4.653
 1820TIP3   OH2 5404   2.935   0.005   3.379
 1820TIP3    H1 5405   2.910   0.095   3.359
 1820TIP3    H2 5406   2.867  -0.049   3.338
 1821TIP3   OH2 5407   0.101   8.039   3.802
 1821TIP3    H1 5408   0.153   8.013   3.879
 1821TIP3    H2 5409   0.054   7.960   3.777
 1822TIP3   OH2 5410   7.920   7.958   4.172
 1822TIP3    H1 5411   7.950   7.900   4.241
 1822TIP3    H2 5412   7.977   8.035   4.178
 1823TIP3   OH2 5413   3.213   0.322   3.476
 1823TIP3    H1 5414   3.189   0.264   3.548
 1823TIP3    H2 5415   3.233   0.406   3.517
 1824TIP3   OH2 5416   2.236   0.300   3.839
 1824TIP3    H1 5417   2.224   0.206   3.851
 1824TIP3    H2 5418   2.330   0.310   3.825
 1825TIP3   OH2 5419   7.669   7.900   3.807
 1825TIP3    H1 5420   7.693   7.809   3.826
 1825TIP3    H2 5421   7.751   7.948   3.812
 1826TIP3   OH2 5422   2.861   0.759   3.470
 1826TIP3    H1 5423   2.892   0.696   3.405
 1826TIP3    H2 5424   2.852   0.709   3.550
 1827TIP3   OH2 5425   2.749   0.244   3.797
 1827TIP3    H1 5426   2.793   0.162   3.773
 1827TIP3    H2 5427   2.819   0.301   3.828
 1828TIP3   OH2 5428   0.353   7.731   3.859
 1828TIP3    H1 5429   0.426   7.670   3.854
 1828TIP3    H2 5430   0.310   7.724   3.774
 1829TIP3   OH2 5431   8.130   7.366   3.809
 1829TIP3    H1 5432   8.108   7.446   3.762
 1829TIP3    H2 5433   8.050   7.344   3.857
 1830TIP3   OH2 5434   0.304   7.533   3.481
 1830TIP3    H1 5435   0.298   7.438   3.493
 1830TIP3    H2 5436   0.275   7.547   3.391
 1831TIP3   OH2 5437   7.863   7.660   3.861
 1831TIP3    H1 5438   7.954   7.644   3.886
 1831TIP3    H2 5439   7.865   7.664   3.765
 1832TIP3   OH2 5440   8.223   7.809   3.732
 1832TIP3    H1 5441   8.317   7.795   3.745
 1832TIP3    H2 5442   8.187   7.721   3.722
 1833TIP3   OH2 5443   0.976   7.792   3.993
 1833TIP3    H1 5444   0.886   7.820   3.980
 1833TIP3    H2 5445   1.002   7.830   4.077
 1834TIP3   OH2 5446   2.849   0.234   3.250
 1834TIP3    H1 5447   2.811   0.208   3.166
 1834TIP3    H2 5448   2.797   0.309   3.278
 1835TIP3   OH2 5449   2.604   0.166   4.017
 1835TIP3    H1 5450   2.545   0.234   4.051
 1835TIP3    H2 5451   2.647   0.207   3.942
 1836TIP3   OH2 5452   8.115   7.609   3.954
 1836TIP3    H1 5453   8.163   7.649   4.027
 1836TIP3    H2 5454   8.153   7.521   3.947
 1837TIP3   OH2 5455   2.437   0.363   4.115
 1837TIP3    H1 5456   2.424   0.450   4.079
 1837TIP3    H2 5457   2.365   0.351   4.177
 1838TIP3   OH2 5458   3.249   0.568   3.610
 1838TIP3    H1 5459   3.163   0.559   3.651
 1838TIP3    H2 5460   3.246   0.651   3.563
 1839TIP3   OH2 5461   2.956   0.598   3.263
 1839TIP3    H1 5462   3.007   0.518   3.253
 1839TIP3    H2 5463   3.016   0.668   3.236
 1840TIP3   OH2 5464   3.095   0.364   3.230
 1840TIP3    H1 5465   3.020   0.304   3.231
 1840TIP3    H2 5466   3.144   0.343   3.309
 1841TIP3   OH2 5467   3.481   0.461   3.957
 1841TIP3    H1 5468   3.463   0.386   3.901
 1841TIP3    H2 5469   3.463   0.537   3.902
 1842TIP3   OH2 5470   8.433   7.874   3.214
 1842TIP3    H1 5471   8.352   7.916   3.187
 1842TIP3    H2 5472   8.481   7.859   3.132
 1843TIP3   OH2 5473   3.669   0.125   3.795
 1843TIP3    H1 5474   3.583   0.166   3.806
 1843TIP3    H2 5475   3.693   0.144   3.704
 1844TIP3   OH2 5476   0.298   7.977   3.192
 1844TIP3    H1 5477   0.236   7.992   3.264
 1844TIP3    H2 5478   0.384   7.976   3.235
 1845TIP3   OH2 5479   3.337  -0.002   4.091
 1845TIP3    H1 5480   3.327   0.074   4.149
 1845TIP3    H2 5481   3.250  -0.015   4.054
 1846TIP3   OH2 5482   8.030   7.952   3.606
 1846TIP3    H1 5483   7.991   7.883   3.552
 1846TIP3    H2 5484   8.105   7.910   3.648
 1847TIP3   OH2 5485   2.491   0.351   3.730
 1847TIP3    H1 5486   2.469   0.337   3.638
 1847TIP3    H2 5487   2.579   0.315   3.739
 1848TIP3   OH2 5488   8.144   7.944   3.960
 1848TIP3    H1 5489   8.181   7.901   3.884
 1848TIP3    H2 5490   8.197   8.023   3.972
 1849TIP3   OH2 5491   3.016   0.561   3.746
 1849TIP3    H1 5492   2.998   0.641   3.795
 1849TIP3    H2 5493   2.998   0.490   3.808
 1850TIP3   OH2 5494   2.628   0.464   4.289
 1850TIP3    H1 5495   2.568   0.523   4.335
 1850TIP3    H2 5496   2.572   0.413   4.231
 1851TIP3   OH2 5497   0.144   7.814   3.024
 1851TIP3    H1 5498   0.200   7.876   3.072
 1851TIP3    H2 5499   0.160   7.835   2.932
 1852TIP3   OH2 5500   2.398   0.072   4.389
 1852TIP3    H1 5501   2.408   0.157   4.432
 1852TIP3    H2 5502   2.318   0.035   4.427
 1853TIP3   OH2 5503   2.711   0.469   3.291
 1853TIP3    H1 5504   2.788   0.525   3.287
 1853TIP3    H2 5505   2.646   0.513   3.236
 1854TIP3   OH2 5506   2.425   0.631   4.374
 1854TIP3    H1 5507   2.392   0.632   4.285
 1854TIP3    H2 5508   2.348   0.613   4.429
 1855TIP3   OH2 5509   3.291   0.414   2.630
 1855TIP3    H1 5510   3.287   0.506   2.608
 1855TIP3    H2 5511   3.382   0.389   2.615
 1856TIP3   OH2 5512   2.066   0.205   4.353
 1856TIP3    H1 5513   1.988   0.167   4.312
 1856TIP3    H2 5514   2.106   0.133   4.401
 1857TIP3   OH2 5515   1.876   0.388   3.954
 1857TIP3    H1 5516   1.969   0.396   3.975
 1857TIP3    H2 5517   1.835   0.463   3.996
 1858TIP3   OH2 5518   3.712   0.824   4.022
 1858TIP3    H1 5519   3.718   0.729   4.035
 1858TIP3    H2 5520   3.631   0.849   4.068
 1859TIP3   OH2 5521   2.816   0.605   4.149
 1859TIP3    H1 5522   2.810   0.696   4.178
 1859TIP3    H2 5523   2.748   0.559   4.199
 1860TIP3   OH2 5524   2.595   0.732   3.102
 1860TIP3    H1 5525   2.552   0.681   3.033
 1860TIP3    H2 5526   2.599   0.821   3.066
 1861TIP3   OH2 5527   2.036   0.579   3.487
 1861TIP3    H1 5528   2.084   0.566   3.569
 1861TIP3    H2 5529   1.991   0.496   3.473
 1862TIP3   OH2 5530   2.792   0.632   2.734
 1862TIP3    H1 5531   2.847   0.562   2.699
 1862TIP3    H2 5532   2.821   0.642   2.825
 1863TIP3   OH2 5533   2.850   0.675   3.006
 1863TIP3    H1 5534   2.763   0.694   3.040
 1863TIP3    H2 5535   2.898   0.640   3.081
 1864TIP3   OH2 5536   0.757   7.979   4.257
 1864TIP3    H1 5537   0.696   8.052   4.246
 1864TIP3    H2 5538   0.707   7.901   4.231
 1865TIP3   OH2 5539   2.239   0.404   4.300
 1865TIP3    H1 5540   2.287   0.402   4.382
 1865TIP3    H2 5541   2.172   0.336   4.310
 1866TIP3   OH2 5542   0.578   7.773   4.230
 1866TIP3    H1 5543   0.511   7.713   4.264
 1866TIP3    H2 5544   0.533   7.825   4.164
 1867TIP3   OH2 5545   0.208   7.874   2.762
 1867TIP3    H1 5546   0.180   7.873   2.670
 1867TIP3    H2 5547   0.302   7.896   2.758
 1868TIP3   OH2 5548   8.225   7.769   4.155
 1868TIP3    H1 5549   8.166   7.772   4.230
 1868TIP3    H2 5550   8.193   7.837   4.096
 1869TIP3   OH2 5551   8.083   7.580   3.626
 1869TIP3    H1 5552   8.006   7.558   3.574
 1869TIP3    H2 5553   8.157   7.561   3.569
 1870TIP3   OH2 5554   0.017   7.683   3.392
 1870TIP3    H1 5555  -0.025   7.752   3.339
 1870TIP3    H2 5556   0.096   7.660   3.343
 1871TIP3   OH2 5557   0.246   7.965   4.432
 1871TIP3    H1 5558   0.214   7.893   4.487
 1871TIP3    H2 5559   0.338   7.974   4.455
 1872TIP3   OH2 5560   0.204   7.746   3.616
 1872TIP3    H1 5561   0.136   7.775   3.556
 1872TIP3    H2 5562   0.241   7.668   3.575
 1873TIP3   OH2 5563   8.025   7.767   4.360
 1873TIP3    H1 5564   8.065   7.803   4.439
 1873TIP3    H2 5565   7.960   7.705   4.393
 1874TIP3   OH2 5566   0.248   7.928   4.012
 1874TIP3    H1 5567   0.286   7.862   3.955
 1874TIP3    H2 5568   0.214   7.879   4.087
 1875TIP3   OH2 5569   3.424   1.164   4.113
 1875TIP3    H1 5570   3.419   1.180   4.019
 1875TIP3    H2 5571   3.502   1.212   4.142
 1876TIP3   OH2 5572   2.381   0.307   4.535
 1876TIP3    H1 5573   2.462   0.319   4.584
 1876TIP3    H2 5574   2.314   0.296   4.602
 1877TIP3   OH2 5575  -0.012   7.778   3.798
 1877TIP3    H1 5576   0.065   7.741   3.753
 1877TIP3    H2 5577  -0.011   7.736   3.884
 1878TIP3   OH2 5578   8.474   7.687   4.060
 1878TIP3    H1 5579   8.391   7.716   4.097
 1878TIP3    H2 5580   8.541   7.722   4.118
 1879TIP3   OH2 5581   2.526   0.001   3.169
 1879TIP3    H1 5582   2.439  -0.002   3.128
 1879TIP3    H2 5583   2.510   0.036   3.257
 1880TIP3   OH2 5584   3.426   0.256   3.782
 1880TIP3    H1 5585   3.454   0.307   3.706
 1880TIP3    H2 5586   3.340   0.221   3.756
 1881TIP3   OH2 5587   2.942   0.342   4.186
 1881TIP3    H1 5588   2.977   0.330   4.274
 1881TIP3    H2 5589   2.896   0.426   4.190
 1882TIP3   OH2 5590   0.240   7.643   3.234
 1882TIP3    H1 5591   0.328   7.682   3.234
 1882TIP3    H2 5592   0.201   7.671   3.151
 1883TIP3   OH2 5593   7.908   8.028   3.844
 1883TIP3    H1 5594   7.947   8.015   3.757
 1883TIP3    H2 5595   7.975   7.997   3.905
 1884TIP3   OH2 5596   2.691   0.167   3.028
 1884TIP3    H1 5597   2.645   0.251   3.029
 1884TIP3    H2 5598   2.634   0.108   3.078
 1885TIP3   OH2 5599   7.815   8.003   4.495
 1885TIP3    H1 5600   7.855   7.980   4.579
 1885TIP3    H2 5601   7.773   7.922   4.466
 1886TIP3   OH2 5602   2.846   0.098   4.486
 1886TIP3    H1 5603   2.776   0.043   4.453
 1886TIP3    H2 5604   2.926   0.059   4.450
 1887TIP3   OH2 5605   3.088   0.623   4.072
 1887TIP3    H1 5606   2.993   0.609   4.077
 1887TIP3    H2 5607   3.112   0.660   4.157
 1888TIP3   OH2 5608   0.620   7.712   2.968
 1888TIP3    H1 5609   0.661   7.634   2.931
 1888TIP3    H2 5610   0.541   7.725   2.914
 1889TIP3   OH2 5611   3.727   0.544   4.044
 1889TIP3    H1 5612   3.632   0.532   4.037
 1889TIP3    H2 5613   3.762   0.512   3.961
 1890TIP3   OH2 5614   3.224   0.481   2.898
 1890TIP3    H1 5615   3.178   0.416   2.950
 1890TIP3    H2 5616   3.234   0.440   2.812
 1891TIP3   OH2 5617   3.175   0.147   3.696
 1891TIP3    H1 5618   3.086   0.122   3.722
 1891TIP3    H2 5619   3.207   0.071   3.646
 1892TIP3   OH2 5620   2.339   0.357   3.482
 1892TIP3    H1 5621   2.337   0.434   3.425
 1892TIP3    H2 5622   2.249   0.348   3.512
 1893TIP3   OH2 5623   2.438   0.114   3.400
 1893TIP3    H1 5624   2.417   0.203   3.427
 1893TIP3    H2 5625   2.419   0.061   3.477
 1894TIP3   OH2 5626   2.635   0.680   3.941
 1894TIP3    H1 5627   2.671   0.754   3.891
 1894TIP3    H2 5628   2.709   0.648   3.993
 1895TIP3   OH2 5629   2.262   0.581   3.328
 1895TIP3    H1 5630   2.177   0.589   3.371
 1895TIP3    H2 5631   2.299   0.670   3.331
 1896TIP3   OH2 5632   2.984   0.340   3.914
 1896TIP3    H1 5633   2.973   0.335   4.009
 1896TIP3    H2 5634   3.062   0.286   3.896
 1897TIP3   OH2 5635   2.994   0.207   2.758
 1897TIP3    H1 5636   3.042   0.182   2.837
 1897TIP3    H2 5637   2.908   0.166   2.767
 1898TIP3   OH2 5638   3.238   0.842   3.955
 1898TIP3    H1 5639   3.167   0.780   3.968
 1898TIP3    H2 5640   3.209   0.897   3.882
 1899TIP3   OH2 5641   3.287   0.684   2.582
 1899TIP3    H1 5642   3.288   0.732   2.499
 1899TIP3    H2 5643   3.223   0.730   2.635
 1900TIP3   OH2 5644   3.145   0.132   2.971
 1900TIP3    H1 5645   3.126   0.082   3.051
 1900TIP3    H2 5646   3.239   0.150   2.976
 1901TIP3   OH2 5647   2.084   0.576   4.107
 1901TIP3    H1 5648   2.139   0.520   4.161
 1901TIP3    H2 5649   2.088   0.662   4.149
 1902TIP3   OH2 5650   2.275   0.198   3.120
 1902TIP3    H1 5651   2.332   0.200   3.197
 1902TIP3    H2 5652   2.280   0.286   3.084
 1903TIP3   OH2 5653   2.541   0.392   3.019
 1903TIP3    H1 5654   2.456   0.427   3.045
 1903TIP3    H2 5655   2.547   0.412   2.926
 1904TIP3   OH2 5656   8.305   7.521   3.473
 1904TIP3    H1 5657   8.373   7.583   3.446
 1904TIP3    H2 5658   8.352   7.437   3.482
 1905TIP3   OH2 5659   0.172   7.784   4.236
 1905TIP3    H1 5660   0.188   7.859   4.294
 1905TIP3    H2 5661   0.177   7.708   4.294
 1906TIP3   OH2 5662   2.282   0.473   3.074
 1906TIP3    H1 5663   2.259   0.544   3.014
 1906TIP3    H2 5664   2.273   0.512   3.161
 1907TIP3   OH2 5665   0.414   7.928   3.570
 1907TIP3    H1 5666   0.341   7.868   3.586
 1907TIP3    H2 5667   0.486   7.893   3.622
 1908TIP3   OH2 5668   3.265   0.834   3.529
 1908TIP3    H1 5669   3.220   0.883   3.459
 1908TIP3    H2 5670   3.358   0.847   3.511
 1909TIP3   OH2 5671   1.922   0.339   3.431
 1909TIP3    H1 5672   1.836   0.371   3.402
 1909TIP3    H2 5673   1.953   0.285   3.357
 1910TIP3   OH2 5674   2.052   0.871   4.526
 1910TIP3    H1 5675   2.136   0.873   4.572
 1910TIP3    H2 5676   2.018   0.783   4.541
 1911TIP3   OH2 5677   2.527   0.799   4.566
 1911TIP3    H1 5678   2.616   0.768   4.581
 1911TIP3    H2 5679   2.493   0.745   4.495
 1912TIP3   OH2 5680   2.517   0.394   2.737
 1912TIP3    H1 5681   2.443   0.337   2.718
 1912TIP3    H2 5682   2.582   0.373   2.671
 1913TIP3   OH2 5683   3.145   0.722   4.321
 1913TIP3    H1 5684   3.158   0.653   4.386
 1913TIP3    H2 5685   3.219   0.782   4.336
 1914TIP3   OH2 5686   2.937   0.430   2.607
 1914TIP3    H1 5687   2.972   0.362   2.664
 1914TIP3    H2 5688   2.994   0.430   2.530
 1915TIP3   OH2 5689   2.189   0.276   4.736
 1915TIP3    H1 5690   2.190   0.180   4.744
 1915TIP3    H2 5691   2.108   0.295   4.689
 1916TIP3   OH2 5692   2.788   0.369   4.492
 1916TIP3    H1 5693   2.737   0.385   4.413
 1916TIP3    H2 5694   2.816   0.278   4.485
 1917TIP3   OH2 5695   2.739   0.102   2.767
 1917TIP3    H1 5696   2.723   0.130   2.857
 1917TIP3    H2 5697   2.702   0.014   2.762
 1918TIP3   OH2 5698   3.253   0.395   4.105
 1918TIP3    H1 5699   3.330   0.426   4.058
 1918TIP3    H2 5700   3.187   0.462   4.090
 1919TIP3   OH2 5701   8.010   8.019   4.692
 1919TIP3    H1 5702   8.077   7.951   4.684
 1919TIP3    H2 5703   8.014   8.046   4.784
 1920TIP3   OH2 5704   8.308   7.953   4.383
 1920TIP3    H1 5705   8.225   8.001   4.382
 1920TIP3    H2 5706   8.347   7.969   4.297
 1921TIP3   OH2 5707   3.141   0.274   4.482
 1921TIP3    H1 5708   3.190   0.221   4.420
 1921TIP3    H2 5709   3.129   0.217   4.558
 1922TIP3   OH2 5710   0.466   7.965   2.663
 1922TIP3    H1 5711   0.437   7.905   2.593
 1922TIP3    H2 5712   0.435   8.051   2.634
 1923TIP3   OH2 5713   8.374   7.711   4.488
 1923TIP3    H1 5714   8.342   7.644   4.428
 1923TIP3    H2 5715   8.351   7.794   4.447
 1924TIP3   OH2 5716   2.781   0.014   4.162
 1924TIP3    H1 5717   2.867   0.031   4.123
 1924TIP3    H2 5718   2.721   0.071   4.113
 1925TIP3   OH2 5719   0.504   7.971   4.525
 1925TIP3    H1 5720   0.509   7.938   4.615
 1925TIP3    H2 5721   0.573   8.037   4.520
 1926TIP3   OH2 5722   3.377   0.219   4.270
 1926TIP3    H1 5723   3.316   0.279   4.226
 1926TIP3    H2 5724   3.463   0.244   4.238
 1927TIP3   OH2 5725   8.193   7.810   4.686
 1927TIP3    H1 5726   8.212   7.785   4.776
 1927TIP3    H2 5727   8.267   7.777   4.636
 1928TIP3   OH2 5728   0.141   7.743   4.552
 1928TIP3    H1 5729   0.150   7.703   4.638
 1928TIP3    H2 5730   0.048   7.731   4.529
 1929TIP3   OH2 5731   2.256   0.689   2.898
 1929TIP3    H1 5732   2.351   0.679   2.891
 1929TIP3    H2 5733   2.230   0.729   2.815
 1930TIP3   OH2 5734   1.651   0.642   3.520
 1930TIP3    H1 5735   1.658   0.580   3.448
 1930TIP3    H2 5736   1.694   0.599   3.594
 1931TIP3   OH2 5737   1.789   0.533   3.725
 1931TIP3    H1 5738   1.793   0.450   3.774
 1931TIP3    H2 5739   1.855   0.588   3.767
 1932TIP3   OH2 5740   3.536   0.886   3.517
 1932TIP3    H1 5741   3.556   0.916   3.606
 1932TIP3    H2 5742   3.588   0.943   3.460
 1933TIP3   OH2 5743   3.555   0.918   3.798
 1933TIP3    H1 5744   3.506   0.836   3.793
 1933TIP3    H2 5745   3.625   0.901   3.861
 1934TIP3   OH2 5746   3.612   0.615   4.376
 1934TIP3    H1 5747   3.536   0.626   4.433
 1934TIP3    H2 5748   3.655   0.700   4.378
 1935TIP3   OH2 5749   3.418   0.170   3.003
 1935TIP3    H1 5750   3.474   0.235   2.962
 1935TIP3    H2 5751   3.430   0.183   3.097
 1936TIP3   OH2 5752   0.753   7.960   3.150
 1936TIP3    H1 5753   0.682   7.961   3.214
 1936TIP3    H2 5754   0.820   8.017   3.188
 1937TIP3   OH2 5755   3.605   0.401   3.618
 1937TIP3    H1 5756   3.648   0.332   3.567
 1937TIP3    H2 5757   3.603   0.476   3.559
 1938TIP3   OH2 5758   3.412   0.680   3.806
 1938TIP3    H1 5759   3.343   0.725   3.856
 1938TIP3    H2 5760   3.365   0.640   3.733
 1939TIP3   OH2 5761   0.663   7.973   2.850
 1939TIP3    H1 5762   0.596   7.958   2.784
 1939TIP3    H2 5763   0.634   8.051   2.898
 1940TIP3   OH2 5764   0.453   7.657   2.759
 1940TIP3    H1 5765   0.529   7.673   2.703
 1940TIP3    H2 5766   0.415   7.575   2.725
 1941TIP3   OH2 5767   0.543   7.945   3.327
 1941TIP3    H1 5768   0.535   7.851   3.311
 1941TIP3    H2 5769   0.507   7.958   3.415
 1942TIP3   OH2 5770   1.982   0.036   4.043
 1942TIP3    H1 5771   1.971  -0.032   3.977
 1942TIP3    H2 5772   2.076   0.039   4.060
 1943TIP3   OH2 5773   3.625   0.280   4.174
 1943TIP3    H1 5774   3.697   0.220   4.154
 1943TIP3    H2 5775   3.632   0.350   4.108
 1944TIP3   OH2 5776   3.824   0.096   4.164
 1944TIP3    H1 5777   3.765   0.027   4.192
 1944TIP3    H2 5778   3.893   0.097   4.230
 1945TIP3   OH2 5779   0.513   7.696   3.222
 1945TIP3    H1 5780   0.526   7.603   3.238
 1945TIP3    H2 5781   0.547   7.711   3.134
 1946TIP3   OH2 5782   0.632   7.857   3.707
 1946TIP3    H1 5783   0.717   7.863   3.663
 1946TIP3    H2 5784   0.653   7.862   3.800
 1947TIP3   OH2 5785   0.733   7.927   3.954
 1947TIP3    H1 5786   0.655   7.956   4.001
 1947TIP3    H2 5787   0.769   8.007   3.915
 1948TIP3   OH2 5788   7.893   7.619   4.745
 1948TIP3    H1 5789   7.973   7.651   4.786
 1948TIP3    H2 5790   7.889   7.526   4.770
 1949TIP3   OH2 5791   7.638   7.523   4.223
 1949TIP3    H1 5792   7.620   7.588   4.155
 1949TIP3    H2 5793   7.733   7.516   4.226
 1950TIP3   OH2 5794   3.115   0.791   3.167
 1950TIP3    H1 5795   3.165   0.783   3.086
 1950TIP3    H2 5796   3.146   0.872   3.207
 1951TIP3   OH2 5797   2.219   0.591   4.556
 1951TIP3    H1 5798   2.123   0.592   4.551
 1951TIP3    H2 5799   2.237   0.573   4.648
 1952TIP3   OH2 5800   2.406   0.637   4.087
 1952TIP3    H1 5801   2.352   0.709   4.055
 1952TIP3    H2 5802   2.491   0.651   4.045
 1953TIP3   OH2 5803   2.807   0.870   4.227
 1953TIP3    H1 5804   2.845   0.863   4.315
 1953TIP3    H2 5805   2.869   0.924   4.178
 1954TIP3   OH2 5806   2.996   1.026   4.098
 1954TIP3    H1 5807   3.056   0.972   4.047
 1954TIP3    H2 5808   3.052   1.080   4.153
 1955TIP3   OH2 5809   2.062   0.876   4.141
 1955TIP3    H1 5810   1.974   0.901   4.114
 1955TIP3    H2 5811   2.087   0.942   4.207
 1956TIP3   OH2 5812   2.292   0.866   3.986
 1956TIP3    H1 5813   2.209   0.872   4.033
 1956TIP3    H2 5814   2.270   0.894   3.897
 1957TIP3   OH2 5815   2.712   0.889   3.775
 1957TIP3    H1 5816   2.640   0.898   3.712
 1957TIP3    H2 5817   2.720   0.976   3.814
 1958TIP3   OH2 5818   2.975   0.825   3.828
 1958TIP3    H1 5819   2.884   0.843   3.807
 1958TIP3    H2 5820   3.024   0.890   3.778
 1959TIP3   OH2 5821   3.179   1.000   3.730
 1959TIP3    H1 5822   3.172   1.087   3.689
 1959TIP3    H2 5823   3.207   0.942   3.659
 1960TIP3   OH2 5824   2.003   0.672   3.859
 1960TIP3    H1 5825   2.034   0.643   3.945
 1960TIP3    H2 5826   2.065   0.632   3.797
 1961TIP3   OH2 5827   2.187   0.538   3.712
 1961TIP3    H1 5828   2.196   0.455   3.758
 1961TIP3    H2 5829   2.274   0.578   3.717
 1962TIP3   OH2 5830   2.451   0.629   3.737
 1962TIP3    H1 5831   2.471   0.536   3.723
 1962TIP3    H2 5832   2.504   0.654   3.813
 1963TIP3   OH2 5833   1.706   0.473   3.304
 1963TIP3    H1 5834   1.641   0.430   3.248
 1963TIP3    H2 5835   1.725   0.555   3.258
 1964TIP3   OH2 5836   2.519   0.646   2.848
 1964TIP3    H1 5837   2.587   0.707   2.818
 1964TIP3    H2 5838   2.530   0.568   2.793
 1965TIP3   OH2 5839   3.254   0.752   2.930
 1965TIP3    H1 5840   3.247   0.657   2.922
 1965TIP3    H2 5841   3.208   0.786   2.853
 1966TIP3   OH2 5842   3.461   0.890   4.118
 1966TIP3    H1 5843   3.386   0.861   4.067
 1966TIP3    H2 5844   3.449   0.985   4.126
 1967TIP3   OH2 5845   4.725   0.264   2.888
 1967TIP3    H1 5846   4.710   0.357   2.871
 1967TIP3    H2 5847   4.655   0.219   2.842
 1968TIP3   OH2 5848   4.747   0.302   3.266
 1968TIP3    H1 5849   4.786   0.291   3.353
 1968TIP3    H2 5850   4.701   0.219   3.250
 1969TIP3   OH2 5851   4.010   0.159   3.617
 1969TIP3    H1 5852   4.039   0.099   3.686
 1969TIP3    H2 5853   4.083   0.219   3.605
 1970TIP3   OH2 5854   5.002   0.584   2.955
 1970TIP3    H1 5855   4.991   0.523   3.028
 1970TIP3    H2 5856   5.025   0.667   2.996
 1971TIP3   OH2 5857   4.024   0.563   3.321
 1971TIP3    H1 5858   4.003   0.470   3.325
 1971TIP3    H2 5859   4.119   0.565   3.309
 1972TIP3   OH2 5860   3.781   0.105   3.272
 1972TIP3    H1 5861   3.843   0.041   3.308
 1972TIP3    H2 5862   3.834   0.184   3.261
 1973TIP3   OH2 5863   4.656   1.013   2.964
 1973TIP3    H1 5864   4.686   0.947   2.902
 1973TIP3    H2 5865   4.649   0.967   3.047
 1974TIP3   OH2 5866   4.543   0.504   3.291
 1974TIP3    H1 5867   4.587   0.428   3.253
 1974TIP3    H2 5868   4.614   0.558   3.326
 1975TIP3   OH2 5869   2.086   8.024   3.317
 1975TIP3    H1 5870   2.103   7.930   3.309
 1975TIP3    H2 5871   2.036   8.046   3.239
 1976TIP3   OH2 5872   2.540   7.811   1.648
 1976TIP3    H1 5873   2.631   7.837   1.633
 1976TIP3    H2 5874   2.536   7.719   1.619
 1977TIP3   OH2 5875   2.061   7.719   3.005
 1977TIP3    H1 5876   2.146   7.714   3.048
 1977TIP3    H2 5877   2.071   7.787   2.939
 1978TIP3   OH2 5878   1.120   7.941   3.385
 1978TIP3    H1 5879   1.163   7.922   3.468
 1978TIP3    H2 5880   1.180   7.909   3.319
 1979TIP3   OH2 5881   4.364   0.131   3.205
 1979TIP3    H1 5882   4.459   0.121   3.215
 1979TIP3    H2 5883   4.339   0.059   3.147
 1980TIP3   OH2 5884   5.599   0.048   3.460
 1980TIP3    H1 5885   5.510   0.081   3.461
 1980TIP3    H2 5886   5.630   0.059   3.550
 1981TIP3   OH2 5887   4.645   0.485   2.732
 1981TIP3    H1 5888   4.605   0.459   2.649
 1981TIP3    H2 5889   4.594   0.561   2.761
 1982TIP3   OH2 5890   4.395   0.429   3.514
 1982TIP3    H1 5891   4.336   0.497   3.546
 1982TIP3    H2 5892   4.438   0.469   3.438
 1983TIP3   OH2 5893   1.285   7.809   3.556
 1983TIP3    H1 5894   1.368   7.856   3.551
 1983TIP3    H2 5895   1.304   7.722   3.523
 1984TIP3   OH2 5896   4.222   0.621   3.609
 1984TIP3    H1 5897   4.209   0.710   3.577
 1984TIP3    H2 5898   4.143   0.602   3.660
 1985TIP3   OH2 5899   3.596   0.329   2.867
 1985TIP3    H1 5900   3.564   0.339   2.778
 1985TIP3    H2 5901   3.617   0.418   2.895
 1986TIP3   OH2 5902   5.043   0.825   3.095
 1986TIP3    H1 5903   4.958   0.816   3.137
 1986TIP3    H2 5904   5.040   0.910   3.051
 1987TIP3   OH2 5905   4.751   0.854   2.756
 1987TIP3    H1 5906   4.803   0.775   2.742
 1987TIP3    H2 5907   4.808   0.926   2.727
 1988TIP3   OH2 5908   4.892   0.626   2.706
 1988TIP3    H1 5909   4.822   0.561   2.703
 1988TIP3    H2 5910   4.940   0.606   2.786
 1989TIP3   OH2 5911   5.275   0.722   3.447
 1989TIP3    H1 5912   5.258   0.647   3.390
 1989TIP3    H2 5913   5.258   0.798   3.393
 1990TIP3   OH2 5914   4.556   0.136   2.711
 1990TIP3    H1 5915   4.474   0.180   2.692
 1990TIP3    H2 5916   4.603   0.135   2.627
 1991TIP3   OH2 5917   1.683   7.974   2.401
 1991TIP3    H1 5918   1.749   8.033   2.438
 1991TIP3    H2 5919   1.719   7.886   2.411
 1992TIP3   OH2 5920   5.458   0.390   3.303
 1992TIP3    H1 5921   5.372   0.433   3.307
 1992TIP3    H2 5922   5.486   0.403   3.212
 1993TIP3   OH2 5923   4.908   0.218   2.684
 1993TIP3    H1 5924   4.852   0.239   2.759
 1993TIP3    H2 5925   4.997   0.218   2.720
 1994TIP3   OH2 5926   5.147   0.287   3.590
 1994TIP3    H1 5927   5.128   0.360   3.649
 1994TIP3    H2 5928   5.063   0.266   3.550
 1995TIP3   OH2 5929   4.126   0.208   3.074
 1995TIP3    H1 5930   4.101   0.141   3.011
 1995TIP3    H2 5931   4.209   0.179   3.110
 1996TIP3   OH2 5932   4.285   0.606   3.222
 1996TIP3    H1 5933   4.263   0.595   3.130
 1996TIP3    H2 5934   4.374   0.572   3.230
 1997TIP3   OH2 5935   4.245   0.216   3.436
 1997TIP3    H1 5936   4.285   0.189   3.354
 1997TIP3    H2 5937   4.296   0.292   3.463
 1998TIP3   OH2 5938   4.811   0.814   3.233
 1998TIP3    H1 5939   4.793   0.896   3.279
 1998TIP3    H2 5940   4.792   0.746   3.299
 1999TIP3   OH2 5941   4.420   0.721   3.776
 1999TIP3    H1 5942   4.360   0.780   3.822
 1999TIP3    H2 5943   4.363   0.669   3.719
 2000TIP3   OH2 5944   4.742   0.090   2.505
 2000TIP3    H1 5945   4.802   0.148   2.552
 2000TIP3    H2 5946   4.775   0.091   2.415
 2001TIP3   OH2 5947   4.168   0.297   3.870
 2001TIP3    H1 5948   4.181   0.385   3.905
 2001TIP3    H2 5949   4.077   0.276   3.891
 2002TIP3   OH2 5950   4.508   0.725   2.769
 2002TIP3    H1 5951   4.587   0.779   2.771
 2002TIP3    H2 5952   4.444   0.777   2.722
 2003TIP3   OH2 5953   4.213   0.882   3.860
 2003TIP3    H1 5954   4.188   0.891   3.769
 2003TIP3    H2 5955   4.130   0.866   3.906
 2004TIP3   OH2 5956   4.015   0.037   2.866
 2004TIP3    H1 5957   3.943   0.094   2.837
 2004TIP3    H2 5958   3.973  -0.047   2.885
 2005TIP3   OH2 5959   5.081   0.671   2.118
 2005TIP3    H1 5960   5.075   0.764   2.097
 2005TIP3    H2 5961   5.173   0.649   2.103
 2006TIP3   OH2 5962   3.807   0.433   3.810
 2006TIP3    H1 5963   3.736   0.420   3.747
 2006TIP3    H2 5964   3.840   0.345   3.828
 2007TIP3   OH2 5965   3.646   0.634   3.465
 2007TIP3    H1 5966   3.736   0.659   3.484
 2007TIP3    H2 5967   3.593   0.710   3.490
 2008TIP3   OH2 5968   5.507   1.076   3.511
 2008TIP3    H1 5969   5.512   0.982   3.527
 2008TIP3    H2 5970   5.427   1.103   3.556
 2009TIP3   OH2 5971   4.611   0.859   3.635
 2009TIP3    H1 5972   4.606   0.950   3.664
 2009TIP3    H2 5973   4.543   0.814   3.685
 2010TIP3   OH2 5974   4.394   0.965   2.591
 2010TIP3    H1 5975   4.348   0.946   2.509
 2010TIP3    H2 5976   4.356   1.048   2.621
 2011TIP3   OH2 5977   3.826   0.817   2.966
 2011TIP3    H1 5978   3.868   0.808   3.051
 2011TIP3    H2 5979   3.773   0.737   2.957
 2012TIP3   OH2 5980   4.594   0.898   2.220
 2012TIP3    H1 5981   4.646   0.826   2.185
 2012TIP3    H2 5982   4.627   0.910   2.309
 2013TIP3   OH2 5983   4.647   0.938   2.489
 2013TIP3    H1 5984   4.561   0.942   2.531
 2013TIP3    H2 5985   4.705   0.904   2.558
 2014TIP3   OH2 5986   5.385   0.221   3.744
 2014TIP3    H1 5987   5.319   0.279   3.706
 2014TIP3    H2 5988   5.367   0.136   3.704
 2015TIP3   OH2 5989   4.002   0.625   3.774
 2015TIP3    H1 5990   4.053   0.618   3.854
 2015TIP3    H2 5991   3.932   0.561   3.784
 2016TIP3   OH2 5992   2.462   7.978   3.709
 2016TIP3    H1 5993   2.382   7.969   3.759
 2016TIP3    H2 5994   2.436   7.960   3.618
 2017TIP3   OH2 5995   4.832   0.068   2.252
 2017TIP3    H1 5996   4.786   0.069   2.168
 2017TIP3    H2 5997   4.919   0.102   2.232
 2018TIP3   OH2 5998   4.298   0.008   3.604
 2018TIP3    H1 5999   4.244   0.020   3.683
 2018TIP3    H2 6000   4.270   0.079   3.546
 2019TIP3   OH2 6001   1.421   7.961   3.045
 2019TIP3    H1 6002   1.362   7.913   3.103
 2019TIP3    H2 6003   1.431   7.903   2.969
 2020TIP3   OH2 6004   1.842   7.954   2.854
 2020TIP3    H1 6005   1.789   8.024   2.816
 2020TIP3    H2 6006   1.899   7.926   2.782
 2021TIP3   OH2 6007   4.865   0.253   3.899
 2021TIP3    H1 6008   4.838   0.169   3.937
 2021TIP3    H2 6009   4.960   0.254   3.909
 2022TIP3   OH2 6010   4.828   0.062   3.051
 2022TIP3    H1 6011   4.795   0.144   3.014
 2022TIP3    H2 6012   4.763  -0.004   3.026
 2023TIP3   OH2 6013   4.128   0.007   3.819
 2023TIP3    H1 6014   4.123   0.089   3.868
 2023TIP3    H2 6015   4.114  -0.061   3.885
 2024TIP3   OH2 6016   0.918   7.758   2.987
 2024TIP3    H1 6017   1.006   7.754   2.948
 2024TIP3    H2 6018   0.910   7.676   3.034
 2025TIP3   OH2 6019   4.893   0.219   3.491
 2025TIP3    H1 6020   4.910   0.149   3.427
 2025TIP3    H2 6021   4.853   0.174   3.565
 2026TIP3   OH2 6022   1.431   7.771   2.846
 2026TIP3    H1 6023   1.526   7.765   2.831
 2026TIP3    H2 6024   1.394   7.787   2.759
 2027TIP3   OH2 6025   1.281   7.773   2.628
 2027TIP3    H1 6026   1.205   7.735   2.583
 2027TIP3    H2 6027   1.331   7.816   2.558
 2028TIP3   OH2 6028   5.221   1.422   3.602
 2028TIP3    H1 6029   5.216   1.443   3.509
 2028TIP3    H2 6030   5.299   1.467   3.633
 2029TIP3   OH2 6031   4.168   0.552   4.000
 2029TIP3    H1 6032   4.248   0.567   4.049
 2029TIP3    H2 6033   4.099   0.552   4.066
 2030TIP3   OH2 6034   4.619   0.059   3.267
 2030TIP3    H1 6035   4.653  -0.026   3.238
 2030TIP3    H2 6036   4.604   0.047   3.361
 2031TIP3   OH2 6037   4.555   0.009   3.522
 2031TIP3    H1 6038   4.470   0.003   3.565
 2031TIP3    H2 6039   4.605   0.069   3.577
 2032TIP3   OH2 6040   4.322   0.268   2.654
 2032TIP3    H1 6041   4.249   0.210   2.634
 2032TIP3    H2 6042   4.298   0.308   2.739
 2033TIP3   OH2 6043   5.221   0.523   3.268
 2033TIP3    H1 6044   5.254   0.573   3.194
 2033TIP3    H2 6045   5.138   0.487   3.237
 2034TIP3   OH2 6046   1.833   7.752   2.444
 2034TIP3    H1 6047   1.801   7.673   2.487
 2034TIP3    H2 6048   1.905   7.782   2.500
 2035TIP3   OH2 6049   4.731   0.577   3.683
 2035TIP3    H1 6050   4.787   0.576   3.761
 2035TIP3    H2 6051   4.692   0.664   3.683
 2036TIP3   OH2 6052   1.999   7.877   2.644
 2036TIP3    H1 6053   2.074   7.897   2.700
 2036TIP3    H2 6054   1.986   7.955   2.591
 2037TIP3   OH2 6055   4.000   0.282   3.307
 2037TIP3    H1 6056   4.038   0.265   3.221
 2037TIP3    H2 6057   4.065   0.248   3.369
 2038TIP3   OH2 6058   4.486   0.422   2.505
 2038TIP3    H1 6059   4.443   0.508   2.501
 2038TIP3    H2 6060   4.426   0.367   2.555
 2039TIP3   OH2 6061   3.909   0.192   3.920
 2039TIP3    H1 6062   3.901   0.169   4.012
 2039TIP3    H2 6063   3.835   0.150   3.878
 2040TIP3   OH2 6064   4.620   0.357   3.966
 2040TIP3    H1 6065   4.558   0.290   3.938
 2040TIP3    H2 6066   4.705   0.328   3.931
 2041TIP3   OH2 6067   4.881   0.878   3.560
 2041TIP3    H1 6068   4.786   0.867   3.566
 2041TIP3    H2 6069   4.906   0.919   3.642
 2042TIP3   OH2 6070   2.388   7.982   2.421
 2042TIP3    H1 6071   2.324   7.945   2.360
 2042TIP3    H2 6072   2.406   8.070   2.386
 2043TIP3   OH2 6073   5.523   0.795   3.535
 2043TIP3    H1 6074   5.428   0.785   3.526
 2043TIP3    H2 6075   5.558   0.767   3.450
 2044TIP3   OH2 6076   5.015   0.743   2.386
 2044TIP3    H1 6077   4.981   0.675   2.445
 2044TIP3    H2 6078   5.026   0.698   2.302
 2045TIP3   OH2 6079   4.988   0.406   3.168
 2045TIP3    H1 6080   4.899   0.381   3.194
 2045TIP3    H2 6081   5.025   0.326   3.129
 2046TIP3   OH2 6082   4.144   0.618   2.977
 2046TIP3    H1 6083   4.139   0.693   2.918
 2046TIP3    H2 6084   4.054   0.606   3.008
 2047TIP3   OH2 6085   0.871   7.944   2.672
 2047TIP3    H1 6086   0.930   8.018   2.681
 2047TIP3    H2 6087   0.795   7.967   2.726
 2048TIP3   OH2 6088   4.235   0.377   2.883
 2048TIP3    H1 6089   4.217   0.467   2.909
 2048TIP3    H2 6090   4.195   0.324   2.952
 2049TIP3   OH2 6091   4.427   0.934   3.429
 2049TIP3    H1 6092   4.462   1.008   3.379
 2049TIP3    H2 6093   4.502   0.902   3.479
 2050TIP3   OH2 6094   4.060   0.836   2.823
 2050TIP3    H1 6095   3.973   0.842   2.861
 2050TIP3    H2 6096   4.095   0.925   2.827
 2051TIP3   OH2 6097   4.780   0.595   3.409
 2051TIP3    H1 6098   4.768   0.586   3.503
 2051TIP3    H2 6099   4.864   0.552   3.391
 2052TIP3   OH2 6100   4.768   0.477   2.268
 2052TIP3    H1 6101   4.815   0.451   2.347
 2052TIP3    H2 6102   4.682   0.436   2.276
 2053TIP3   OH2 6103   5.032   1.098   3.441
 2053TIP3    H1 6104   4.959   1.038   3.453
 2053TIP3    H2 6105   5.005   1.155   3.369
 2054TIP3   OH2 6106   5.084   0.943   2.076
 2054TIP3    H1 6107   5.093   0.998   1.998
 2054TIP3    H2 6108   5.016   0.987   2.128
 2055TIP3   OH2 6109   4.929   0.395   2.471
 2055TIP3    H1 6110   4.919   0.344   2.552
 2055TIP3    H2 6111   5.023   0.412   2.465
 2056TIP3   OH2 6112   3.855   0.823   3.589
 2056TIP3    H1 6113   3.908   0.762   3.642
 2056TIP3    H2 6114   3.871   0.908   3.629
 2057TIP3   OH2 6115   4.129   0.448   2.282
 2057TIP3    H1 6116   4.137   0.356   2.256
 2057TIP3    H2 6117   4.109   0.445   2.376
 2058TIP3   OH2 6118   4.069   0.459   2.551
 2058TIP3    H1 6119   4.135   0.429   2.614
 2058TIP3    H2 6120   4.068   0.554   2.561
 2059TIP3   OH2 6121   3.803   0.175   2.763
 2059TIP3    H1 6122   3.736   0.218   2.817
 2059TIP3    H2 6123   3.816   0.235   2.689
 2060TIP3   OH2 6124   4.341   0.652   2.498
 2060TIP3    H1 6125   4.254   0.673   2.533
 2060TIP3    H2 6126   4.362   0.725   2.441
 2061TIP3   OH2 6127   1.699   7.729   2.843
 2061TIP3    H1 6128   1.749   7.811   2.847
 2061TIP3    H2 6129   1.682   7.707   2.935
 2062TIP3   OH2 6130   4.794   0.059   3.693
 2062TIP3    H1 6131   4.741   0.123   3.741
 2062TIP3    H2 6132   4.859   0.029   3.755
 2063TIP3   OH2 6133   4.087   0.729   2.572
 2063TIP3    H1 6134   4.065   0.799   2.510
 2063TIP3    H2 6135   4.074   0.768   2.658
 2064TIP3   OH2 6136   5.081   0.163   3.067
 2064TIP3    H1 6137   4.998   0.118   3.084
 2064TIP3    H2 6138   5.143   0.121   3.127
 2065TIP3   OH2 6139   3.814   0.344   2.543
 2065TIP3    H1 6140   3.883   0.409   2.551
 2065TIP3    H2 6141   3.850   0.279   2.481
 2066TIP3   OH2 6142   0.706   7.710   2.650
 2066TIP3    H1 6143   0.761   7.788   2.661
 2066TIP3    H2 6144   0.762   7.649   2.602
 2067TIP3   OH2 6145   5.060   1.090   3.013
 2067TIP3    H1 6146   5.017   1.140   2.944
 2067TIP3    H2 6147   5.153   1.106   3.000
 2068TIP3   OH2 6148   3.648   0.596   2.942
 2068TIP3    H1 6149   3.604   0.633   3.019
 2068TIP3    H2 6150   3.603   0.636   2.868
 2069TIP3   OH2 6151   3.848   1.134   4.013
 2069TIP3    H1 6152   3.931   1.138   4.061
 2069TIP3    H2 6153   3.831   1.041   4.002
 2070TIP3   OH2 6154   4.316   1.045   4.057
 2070TIP3    H1 6155   4.409   1.024   4.063
 2070TIP3    H2 6156   4.284   0.991   3.985
 2071TIP3   OH2 6157   4.286   0.649   2.183
 2071TIP3    H1 6158   4.239   0.577   2.225
 2071TIP3    H2 6159   4.362   0.607   2.142
 2072TIP3   OH2 6160   4.941   0.986   3.804
 2072TIP3    H1 6161   4.953   0.919   3.871
 2072TIP3    H2 6162   5.014   1.046   3.818
 2073TIP3   OH2 6163   4.728   0.692   2.104
 2073TIP3    H1 6164   4.760   0.623   2.164
 2073TIP3    H2 6165   4.785   0.685   2.028
 2074TIP3   OH2 6166   3.962   0.545   4.196
 2074TIP3    H1 6167   3.994   0.455   4.195
 2074TIP3    H2 6168   3.874   0.539   4.158
 2075TIP3   OH2 6169   3.951   0.150   2.408
 2075TIP3    H1 6170   4.003   0.128   2.485
 2075TIP3    H2 6171   4.015   0.163   2.338
 2076TIP3   OH2 6172   4.575   0.628   3.981
 2076TIP3    H1 6173   4.528   0.649   3.900
 2076TIP3    H2 6174   4.602   0.537   3.970
 2077TIP3   OH2 6175   4.513   0.367   2.237
 2077TIP3    H1 6176   4.491   0.376   2.329
 2077TIP3    H2 6177   4.490   0.276   2.215
 2078TIP3   OH2 6178   5.044   0.654   3.586
 2078TIP3    H1 6179   5.124   0.683   3.542
 2078TIP3    H2 6180   4.982   0.726   3.573
 2079TIP3   OH2 6181   4.092   0.305   4.159
 2079TIP3    H1 6182   4.183   0.284   4.137
 2079TIP3    H2 6183   4.067   0.238   4.222
 2080TIP3   OH2 6184   4.123   0.086   2.613
 2080TIP3    H1 6185   4.099   0.054   2.700
 2080TIP3    H2 6186   4.165   0.010   2.571
 2081TIP3   OH2 6187   4.430   0.183   3.840
 2081TIP3    H1 6188   4.344   0.223   3.851
 2081TIP3    H2 6189   4.467   0.226   3.762
 2082TIP3   OH2 6190   1.417   7.916   2.446
 2082TIP3    H1 6191   1.381   7.916   2.357
 2082TIP3    H2 6192   1.509   7.939   2.434
 2083TIP3   OH2 6193   4.925   0.550   3.942
 2083TIP3    H1 6194   4.996   0.513   3.890
 2083TIP3    H2 6195   4.918   0.492   4.018
 2084TIP3   OH2 6196   5.051   0.186   2.122
 2084TIP3    H1 6197   5.037   0.142   2.038
 2084TIP3    H2 6198   5.021   0.275   2.107
 2085TIP3   OH2 6199   1.694   7.945   3.896
 2085TIP3    H1 6200   1.643   7.885   3.841
 2085TIP3    H2 6201   1.656   8.031   3.879
 2086TIP3   OH2 6202   4.596   0.291   3.642
 2086TIP3    H1 6203   4.662   0.358   3.656
 2086TIP3    H2 6204   4.527   0.334   3.592
 2087TIP3   OH2 6205   5.133   0.205   3.959
 2087TIP3    H1 6206   5.124   0.194   4.054
 2087TIP3    H2 6207   5.198   0.274   3.948
 2088TIP3   OH2 6208   5.164   0.501   3.772
 2088TIP3    H1 6209   5.110   0.558   3.717
 2088TIP3    H2 6210   5.253   0.511   3.737
 2089TIP3   OH2 6211   4.395   0.124   4.152
 2089TIP3    H1 6212   4.362   0.125   4.242
 2089TIP3    H2 6213   4.471   0.067   4.155
 2090TIP3   OH2 6214   1.945   8.028   3.984
 2090TIP3    H1 6215   1.964   8.003   4.074
 2090TIP3    H2 6216   1.861   7.986   3.964
 2091TIP3   OH2 6217   4.077   0.931   2.385
 2091TIP3    H1 6218   4.168   0.920   2.359
 2091TIP3    H2 6219   4.037   0.982   2.315
 2092TIP3   OH2 6220   3.544   0.309   2.590
 2092TIP3    H1 6221   3.633   0.334   2.567
 2092TIP3    H2 6222   3.525   0.234   2.534
 2093TIP3   OH2 6223   3.458   0.907   3.023
 2093TIP3    H1 6224   3.393   0.854   2.976
 2093TIP3    H2 6225   3.501   0.845   3.082
 2094TIP3   OH2 6226   3.598   0.738   3.193
 2094TIP3    H1 6227   3.586   0.671   3.261
 2094TIP3    H2 6228   3.649   0.806   3.236
 2095TIP3   OH2 6229   5.329   1.152   3.010
 2095TIP3    H1 6230   5.345   1.171   3.102
 2095TIP3    H2 6231   5.364   1.227   2.963
 2096TIP3   OH2 6232   5.346   1.177   3.288
 2096TIP3    H1 6233   5.299   1.093   3.287
 2096TIP3    H2 6234   5.417   1.163   3.351
 2097TIP3   OH2 6235   5.405   0.872   3.860
 2097TIP3    H1 6236   5.330   0.884   3.919
 2097TIP3    H2 6237   5.450   0.956   3.862
 2098TIP3   OH2 6238   5.205   0.421   2.457
 2098TIP3    H1 6239   5.260   0.493   2.426
 2098TIP3    H2 6240   5.254   0.384   2.531
 2099TIP3   OH2 6241   5.355   0.304   2.652
 2099TIP3    H1 6242   5.286   0.285   2.715
 2099TIP3    H2 6243   5.424   0.346   2.703
 2100TIP3   OH2 6244   5.396   0.663   3.105
 2100TIP3    H1 6245   5.445   0.595   3.058
 2100TIP3    H2 6246   5.397   0.738   3.046
 2101TIP3   OH2 6247   5.206   0.937   3.293
 2101TIP3    H1 6248   5.137   0.982   3.342
 2101TIP3    H2 6249   5.160   0.896   3.220
 2102TIP3   OH2 6250   5.257   0.205   2.296
 2102TIP3    H1 6251   5.185   0.201   2.233
 2102TIP3    H2 6252   5.238   0.282   2.349
 2103TIP3   OH2 6253   2.240   7.873   2.218
 2103TIP3    H1 6254   2.282   7.913   2.142
 2103TIP3    H2 6255   2.225   7.782   2.193
 2104TIP3   OH2 6256   5.155   0.203   2.807
 2104TIP3    H1 6257   5.188   0.116   2.783
 2104TIP3    H2 6258   5.138   0.197   2.901
 2105TIP3   OH2 6259   3.751   0.179   3.540
 2105TIP3    H1 6260   3.743   0.155   3.447
 2105TIP3    H2 6261   3.846   0.179   3.556
 2106TIP3   OH2 6262   5.415   0.533   3.661
 2106TIP3    H1 6263   5.487   0.472   3.644
 2106TIP3    H2 6264   5.427   0.604   3.599
 2107TIP3   OH2 6265   5.624   0.359   3.655
 2107TIP3    H1 6266   5.577   0.279   3.677
 2107TIP3    H2 6267   5.690   0.368   3.724
 2108TIP3   OH2 6268   2.403   7.980   2.690
 2108TIP3    H1 6269   2.356   7.898   2.709
 2108TIP3    H2 6270   2.395   7.989   2.595
 2109TIP3   OH2 6271   5.274   0.061   3.227
 2109TIP3    H1 6272   5.350   0.088   3.175
 2109TIP3    H2 6273   5.291   0.097   3.314
 2110TIP3   OH2 6274   5.359   0.180   3.454
 2110TIP3    H1 6275   5.282   0.214   3.500
 2110TIP3    H2 6276   5.398   0.257   3.412
 2111TIP3   OH2 6277   1.078   7.836   4.256
 2111TIP3    H1 6278   1.129   7.766   4.214
 2111TIP3    H2 6279   1.030   7.792   4.326
 2112TIP3   OH2 6280   0.905   7.890   3.648
 2112TIP3    H1 6281   0.960   7.918   3.574
 2112TIP3    H2 6282   0.912   7.962   3.711
 2113TIP3   OH2 6283   4.897   1.051   2.648
 2113TIP3    H1 6284   4.953   1.044   2.571
 2113TIP3    H2 6285   4.934   1.124   2.698
 2114TIP3   OH2 6286   3.987   0.851   4.022
 2114TIP3    H1 6287   3.894   0.832   4.015
 2114TIP3    H2 6288   4.008   0.836   4.114
 2115TIP3   OH2 6289   4.199   0.897   3.578
 2115TIP3    H1 6290   4.147   0.970   3.546
 2115TIP3    H2 6291   4.283   0.906   3.534
 2116TIP3   OH2 6292   4.601   1.126   3.713
 2116TIP3    H1 6293   4.638   1.121   3.801
 2116TIP3    H2 6294   4.663   1.180   3.664
 2117TIP3   OH2 6295   4.792   1.283   3.589
 2117TIP3    H1 6296   4.857   1.232   3.540
 2117TIP3    H2 6297   4.843   1.342   3.644
 2118TIP3   OH2 6298   3.859   1.135   3.626
 2118TIP3    H1 6299   3.768   1.152   3.601
 2118TIP3    H2 6300   3.879   1.202   3.691
 2119TIP3   OH2 6301   4.089   1.126   3.474
 2119TIP3    H1 6302   4.005   1.131   3.521
 2119TIP3    H2 6303   4.067   1.152   3.384
 2120TIP3   OH2 6304   4.506   1.144   3.265
 2120TIP3    H1 6305   4.434   1.156   3.203
 2120TIP3    H2 6306   4.517   1.229   3.305
 2121TIP3   OH2 6307   4.769   1.076   3.313
 2121TIP3    H1 6308   4.678   1.098   3.295
 2121TIP3    H2 6309   4.819   1.144   3.268
 2122TIP3   OH2 6310   4.969   1.252   3.217
 2122TIP3    H1 6311   4.968   1.340   3.179
 2122TIP3    H2 6312   4.998   1.195   3.145
 2123TIP3   OH2 6313   3.769   0.916   3.340
 2123TIP3    H1 6314   3.794   0.891   3.429
 2123TIP3    H2 6315   3.841   0.883   3.285
 2124TIP3   OH2 6316   3.971   0.800   3.200
 2124TIP3    H1 6317   3.982   0.717   3.247
 2124TIP3    H2 6318   4.058   0.841   3.204
 2125TIP3   OH2 6319   4.240   0.885   3.226
 2125TIP3    H1 6320   4.258   0.792   3.212
 2125TIP3    H2 6321   4.294   0.909   3.300
 2126TIP3   OH2 6322   3.528   0.711   2.725
 2126TIP3    H1 6323   3.445   0.684   2.685
 2126TIP3    H2 6324   3.537   0.803   2.701
 2127TIP3   OH2 6325   4.339   0.875   2.323
 2127TIP3    H1 6326   4.422   0.904   2.284
 2127TIP3    H2 6327   4.310   0.803   2.267
 2128TIP3   OH2 6328   5.049   1.012   2.418
 2128TIP3    H1 6329   5.042   0.917   2.411
 2128TIP3    H2 6330   5.003   1.046   2.342
 2129TIP3   OH2 6331   3.617   0.637   2.401
 2129TIP3    H1 6332   3.613   0.699   2.474
 2129TIP3    H2 6333   3.710   0.637   2.376
 2130TIP3   OH2 6334   5.256   1.148   3.604
 2130TIP3    H1 6335   5.180   1.119   3.553
 2130TIP3    H2 6336   5.245   1.242   3.612
 2131TIP3   OH2 6337   6.517   0.497   2.372
 2131TIP3    H1 6338   6.495   0.590   2.374
 2131TIP3    H2 6339   6.450   0.458   2.316
 2132TIP3   OH2 6340   6.542   0.552   2.748
 2132TIP3    H1 6341   6.585   0.533   2.832
 2132TIP3    H2 6342   6.506   0.468   2.720
 2133TIP3   OH2 6343   5.824   0.406   3.087
 2133TIP3    H1 6344   5.848   0.360   3.168
 2133TIP3    H2 6345   5.889   0.476   3.079
 2134TIP3   OH2 6346   6.791   0.838   2.445
 2134TIP3    H1 6347   6.786   0.782   2.522
 2134TIP3    H2 6348   6.822   0.922   2.478
 2135TIP3   OH2 6349   5.827   0.817   2.846
 2135TIP3    H1 6350   5.813   0.723   2.829
 2135TIP3    H2 6351   5.887   0.819   2.920
 2136TIP3   OH2 6352   5.486   0.070   2.593
 2136TIP3    H1 6353   5.447   0.157   2.595
 2136TIP3    H2 6354   5.424   0.014   2.640
 2137TIP3   OH2 6355   5.577   0.392   2.785
 2137TIP3    H1 6356   5.635   0.318   2.804
 2137TIP3    H2 6357   5.636   0.465   2.768
 2138TIP3   OH2 6358   6.455   1.270   2.479
 2138TIP3    H1 6359   6.476   1.198   2.419
 2138TIP3    H2 6360   6.493   1.242   2.563
 2139TIP3   OH2 6361   6.353   0.747   2.801
 2139TIP3    H1 6362   6.402   0.674   2.762
 2139TIP3    H2 6363   6.421   0.810   2.825
 2140TIP3   OH2 6364   6.704   0.275   2.789
 2140TIP3    H1 6365   6.741   0.187   2.798
 2140TIP3    H2 6366   6.708   0.293   2.695
 2141TIP3   OH2 6367   3.303   7.809   2.778
 2141TIP3    H1 6368   3.294   7.902   2.800
 2141TIP3    H2 6369   3.249   7.797   2.700
 2142TIP3   OH2 6370   0.640   2.524   1.995
 2142TIP3    H1 6371   0.731   2.532   2.021
 2142TIP3    H2 6372   0.614   2.613   1.972
 2143TIP3   OH2 6373   5.755   0.208   2.876
 2143TIP3    H1 6374   5.792   0.252   2.953
 2143TIP3    H2 6375   5.830   0.166   2.834
 2144TIP3   OH2 6376   6.162   0.344   2.681
 2144TIP3    H1 6377   6.257   0.334   2.684
 2144TIP3    H2 6378   6.131   0.268   2.632
 2145TIP3   OH2 6379   7.370   0.261   2.946
 2145TIP3    H1 6380   7.292   0.317   2.953
 2145TIP3    H2 6381   7.419   0.279   3.026
 2146TIP3   OH2 6382   6.401   0.727   2.242
 2146TIP3    H1 6383   6.382   0.716   2.149
 2146TIP3    H2 6384   6.479   0.784   2.243
 2147TIP3   OH2 6385   6.182   0.682   3.000
 2147TIP3    H1 6386   6.125   0.754   3.024
 2147TIP3    H2 6387   6.237   0.717   2.929
 2148TIP3   OH2 6388   5.932   0.041   3.052
 2148TIP3    H1 6389   5.989   0.117   3.067
 2148TIP3    H2 6390   5.930   0.030   2.957
 2149TIP3   OH2 6391   5.998   0.877   3.073
 2149TIP3    H1 6392   5.999   0.971   3.054
 2149TIP3    H2 6393   5.930   0.867   3.139
 2150TIP3   OH2 6394   5.392   0.598   2.355
 2150TIP3    H1 6395   5.361   0.613   2.266
 2150TIP3    H2 6396   5.417   0.684   2.388
 2151TIP3   OH2 6397   6.831   1.083   2.568
 2151TIP3    H1 6398   6.746   1.072   2.610
 2151TIP3    H2 6399   6.830   1.173   2.534
 2152TIP3   OH2 6400   6.514   1.100   2.266
 2152TIP3    H1 6401   6.559   1.016   2.253
 2152TIP3    H2 6402   6.576   1.165   2.235
 2153TIP3   OH2 6403   6.640   0.861   2.221
 2153TIP3    H1 6404   6.676   0.804   2.153
 2153TIP3    H2 6405   6.699   0.852   2.295
 2154TIP3   OH2 6406   7.052   1.001   2.935
 2154TIP3    H1 6407   7.067   0.923   2.881
 2154TIP3    H2 6408   7.140   1.028   2.963
 2155TIP3   OH2 6409   6.352   0.378   2.189
 2155TIP3    H1 6410   6.274   0.428   2.165
 2155TIP3    H2 6411   6.397   0.362   2.106
 2156TIP3   OH2 6412   7.244   0.617   2.775
 2156TIP3    H1 6413   7.167   0.673   2.783
 2156TIP3    H2 6414   7.295   0.656   2.703
 2157TIP3   OH2 6415   6.719   0.449   2.183
 2157TIP3    H1 6416   6.667   0.467   2.261
 2157TIP3    H2 6417   6.803   0.418   2.217
 2158TIP3   OH2 6418   6.935   0.546   3.074
 2158TIP3    H1 6419   6.917   0.630   3.117
 2158TIP3    H2 6420   6.852   0.521   3.034
 2159TIP3   OH2 6421   5.943   0.465   2.556
 2159TIP3    H1 6422   5.901   0.399   2.500
 2159TIP3    H2 6423   6.019   0.420   2.593
 2160TIP3   OH2 6424   6.055   0.460   2.907
 2160TIP3    H1 6425   6.098   0.429   2.828
 2160TIP3    H2 6426   6.105   0.538   2.933
 2161TIP3   OH2 6427   6.593   1.060   2.698
 2161TIP3    H1 6428   6.584   1.144   2.743
 2161TIP3    H2 6429   6.587   0.995   2.768
 2162TIP3   OH2 6430   6.210   0.971   3.255
 2162TIP3    H1 6431   6.150   1.030   3.300
 2162TIP3    H2 6432   6.153   0.920   3.196
 2163TIP3   OH2 6433   6.562   0.313   2.005
 2163TIP3    H1 6434   6.623   0.361   2.061
 2163TIP3    H2 6435   6.580   0.345   1.917
 2164TIP3   OH2 6436   5.966   0.553   3.355
 2164TIP3    H1 6437   5.979   0.640   3.394
 2164TIP3    H2 6438   5.876   0.530   3.376
 2165TIP3   OH2 6439   6.236   1.058   2.279
 2165TIP3    H1 6440   6.331   1.056   2.292
 2165TIP3    H2 6441   6.222   1.124   2.212
 2166TIP3   OH2 6442   6.006   1.134   3.342
 2166TIP3    H1 6443   5.980   1.151   3.251
 2166TIP3    H2 6444   5.924   1.122   3.389
 2167TIP3   OH2 6445   5.791   0.300   2.376
 2167TIP3    H1 6446   5.718   0.351   2.340
 2167TIP3    H2 6447   5.756   0.212   2.387
 2168TIP3   OH2 6448   6.813   0.931   1.647
 2168TIP3    H1 6449   6.845   1.018   1.620
 2168TIP3    H2 6450   6.885   0.872   1.627
 2169TIP3   OH2 6451   5.602   0.695   3.294
 2169TIP3    H1 6452   5.530   0.680   3.234
 2169TIP3    H2 6453   5.635   0.608   3.316
 2170TIP3   OH2 6454   5.441   0.900   2.958
 2170TIP3    H1 6455   5.529   0.928   2.983
 2170TIP3    H2 6456   5.385   0.975   2.977
 2171TIP3   OH2 6457   6.409   1.115   3.127
 2171TIP3    H1 6458   6.403   1.206   3.156
 2171TIP3    H2 6459   6.339   1.070   3.174
 2172TIP3   OH2 6460   6.184   1.233   2.080
 2172TIP3    H1 6461   6.154   1.214   1.991
 2172TIP3    H2 6462   6.153   1.322   2.097
 2173TIP3   OH2 6463   5.660   1.054   2.454
 2173TIP3    H1 6464   5.688   1.049   2.545
 2173TIP3    H2 6465   5.598   0.983   2.443
 2174TIP3   OH2 6466   6.380   1.144   1.718
 2174TIP3    H1 6467   6.432   1.075   1.676
 2174TIP3    H2 6468   6.421   1.155   1.804
 2175TIP3   OH2 6469   6.443   1.199   1.980
 2175TIP3    H1 6470   6.362   1.199   2.030
 2175TIP3    H2 6471   6.511   1.182   2.045
 2176TIP3   OH2 6472   7.155   0.480   3.232
 2176TIP3    H1 6473   7.083   0.529   3.193
 2176TIP3    H2 6474   7.151   0.394   3.191
 2177TIP3   OH2 6475   5.800   0.882   3.260
 2177TIP3    H1 6476   5.851   0.877   3.342
 2177TIP3    H2 6477   5.729   0.820   3.272
 2178TIP3   OH2 6478   7.089   0.220   3.183
 2178TIP3    H1 6479   7.008   0.205   3.230
 2178TIP3    H2 6480   7.066   0.207   3.091
 2179TIP3   OH2 6481   6.102   0.259   3.082
 2179TIP3    H1 6482   6.065   0.285   3.166
 2179TIP3    H2 6483   6.077   0.329   3.022
 2180TIP3   OH2 6484   6.018   0.160   2.543
 2180TIP3    H1 6485   5.925   0.139   2.548
 2180TIP3    H2 6486   6.044   0.136   2.454
 2181TIP3   OH2 6487   6.542   0.181   2.264
 2181TIP3    H1 6488   6.471   0.246   2.269
 2181TIP3    H2 6489   6.571   0.185   2.173
 2182TIP3   OH2 6490   6.658   0.507   3.387
 2182TIP3    H1 6491   6.639   0.424   3.429
 2182TIP3    H2 6492   6.753   0.514   3.388
 2183TIP3   OH2 6493   6.661   0.320   2.524
 2183TIP3    H1 6494   6.600   0.375   2.475
 2183TIP3    H2 6495   6.625   0.231   2.517
 2184TIP3   OH2 6496   5.928   0.268   3.298
 2184TIP3    H1 6497   5.948   0.343   3.354
 2184TIP3    H2 6498   5.895   0.201   3.359
 2185TIP3   OH2 6499   2.789   7.976   2.372
 2185TIP3    H1 6500   2.731   7.920   2.321
 2185TIP3    H2 6501   2.735   8.010   2.442
 2186TIP3   OH2 6502   6.685   0.468   2.976
 2186TIP3    H1 6503   6.708   0.399   2.914
 2186TIP3    H2 6504   6.653   0.421   3.053
 2187TIP3   OH2 6505   5.763   0.048   2.591
 2187TIP3    H1 6506   5.673   0.075   2.612
 2187TIP3    H2 6507   5.753  -0.013   2.518
 2188TIP3   OH2 6508   6.058   0.072   2.289
 2188TIP3    H1 6509   6.135   0.017   2.276
 2188TIP3    H2 6510   5.995   0.041   2.223
 2189TIP3   OH2 6511   5.880   0.027   2.085
 2189TIP3    H1 6512   5.788   0.001   2.083
 2189TIP3    H2 6513   5.909   0.021   1.994
 2190TIP3   OH2 6514   7.006   1.701   3.090
 2190TIP3    H1 6515   7.002   1.713   2.995
 2190TIP3    H2 6516   7.090   1.739   3.115
 2191TIP3   OH2 6517   5.964   0.806   3.488
 2191TIP3    H1 6518   6.044   0.822   3.536
 2191TIP3    H2 6519   5.895   0.808   3.555
 2192TIP3   OH2 6520   6.426   0.299   2.729
 2192TIP3    H1 6521   6.508   0.253   2.712
 2192TIP3    H2 6522   6.415   0.294   2.824
 2193TIP3   OH2 6523   6.359   0.288   2.993
 2193TIP3    H1 6524   6.276   0.280   3.041
 2193TIP3    H2 6525   6.408   0.355   3.042
 2194TIP3   OH2 6526   6.113   0.539   2.142
 2194TIP3    H1 6527   6.051   0.466   2.136
 2194TIP3    H2 6528   6.092   0.581   2.225
 2195TIP3   OH2 6529   7.025   0.780   2.766
 2195TIP3    H1 6530   7.058   0.829   2.690
 2195TIP3    H2 6531   6.937   0.752   2.741
 2196TIP3   OH2 6532   6.526   0.834   3.168
 2196TIP3    H1 6533   6.590   0.836   3.239
 2196TIP3    H2 6534   6.493   0.923   3.163
 2197TIP3   OH2 6535   5.814   0.542   2.789
 2197TIP3    H1 6536   5.850   0.528   2.701
 2197TIP3    H2 6537   5.879   0.504   2.848
 2198TIP3   OH2 6538   6.286   0.680   1.980
 2198TIP3    H1 6539   6.243   0.765   1.984
 2198TIP3    H2 6540   6.231   0.623   2.034
 2199TIP3   OH2 6541   5.705   0.459   3.406
 2199TIP3    H1 6542   5.711   0.443   3.500
 2199TIP3    H2 6543   5.625   0.415   3.379
 2200TIP3   OH2 6544   6.417   0.614   3.453
 2200TIP3    H1 6545   6.359   0.544   3.422
 2200TIP3    H2 6546   6.503   0.589   3.419
 2201TIP3   OH2 6547   6.677   1.134   3.049
 2201TIP3    H1 6548   6.582   1.127   3.057
 2201TIP3    H2 6549   6.704   1.180   3.128
 2202TIP3   OH2 6550   6.778   1.004   1.913
 2202TIP3    H1 6551   6.783   0.927   1.969
 2202TIP3    H2 6552   6.776   0.969   1.824
 2203TIP3   OH2 6553   6.781   0.679   2.673
 2203TIP3    H1 6554   6.692   0.647   2.693
 2203TIP3    H2 6555   6.823   0.604   2.631
 2204TIP3   OH2 6556   5.488   0.184   2.152
 2204TIP3    H1 6557   5.533   0.266   2.173
 2204TIP3    H2 6558   5.409   0.186   2.205
 2205TIP3   OH2 6559   6.008   0.678   2.371
 2205TIP3    H1 6560   5.912   0.668   2.375
 2205TIP3    H2 6561   6.040   0.622   2.442
 2206TIP3   OH2 6562   6.226   1.192   2.918
 2206TIP3    H1 6563   6.253   1.264   2.861
 2206TIP3    H2 6564   6.306   1.165   2.962
 2207TIP3   OH2 6565   5.920   1.074   2.354
 2207TIP3    H1 6566   5.830   1.066   2.387
 2207TIP3    H2 6567   5.933   1.168   2.343
 2208TIP3   OH2 6568   6.591   0.856   2.892
 2208TIP3    H1 6569   6.579   0.844   2.986
 2208TIP3    H2 6570   6.680   0.825   2.875
 2209TIP3   OH2 6571   6.542   0.756   1.815
 2209TIP3    H1 6572   6.606   0.730   1.882
 2209TIP3    H2 6573   6.458   0.725   1.849
 2210TIP3   OH2 6574   6.800   1.388   2.959
 2210TIP3    H1 6575   6.776   1.295   2.953
 2210TIP3    H2 6576   6.803   1.417   2.868
 2211TIP3   OH2 6577   6.881   1.188   1.577
 2211TIP3    H1 6578   6.885   1.232   1.492
 2211TIP3    H2 6579   6.816   1.238   1.627
 2212TIP3   OH2 6580   6.711   0.677   2.025
 2212TIP3    H1 6581   6.708   0.596   2.076
 2212TIP3    H2 6582   6.804   0.688   2.003
 2213TIP3   OH2 6583   5.650   1.075   3.076
 2213TIP3    H1 6584   5.702   1.018   3.133
 2213TIP3    H2 6585   5.662   1.163   3.112
 2214TIP3   OH2 6586   5.923   0.707   1.770
 2214TIP3    H1 6587   5.919   0.617   1.736
 2214TIP3    H2 6588   5.895   0.700   1.861
 2215TIP3   OH2 6589   5.868   0.719   2.041
 2215TIP3    H1 6590   5.954   0.693   2.074
 2215TIP3    H2 6591   5.867   0.814   2.048
 2216TIP3   OH2 6592   5.586   0.429   2.250
 2216TIP3    H1 6593   5.520   0.474   2.303
 2216TIP3    H2 6594   5.602   0.488   2.176
 2217TIP3   OH2 6595   6.129   0.903   1.993
 2217TIP3    H1 6596   6.046   0.945   2.017
 2217TIP3    H2 6597   6.148   0.937   1.906
 2218TIP3   OH2 6598   6.364  -0.017   2.332
 2218TIP3    H1 6599   6.435   0.046   2.322
 2218TIP3    H2 6600   6.340  -0.012   2.424
 2219TIP3   OH2 6601   6.586   0.321   3.188
 2219TIP3    H1 6602   6.548   0.397   3.231
 2219TIP3    H2 6603   6.649   0.286   3.250
 2220TIP3   OH2 6604   5.880   0.995   2.067
 2220TIP3    H1 6605   5.862   1.053   1.992
 2220TIP3    H2 6606   5.839   1.040   2.141
 2221TIP3   OH2 6607   6.890   0.457   2.556
 2221TIP3    H1 6608   6.811   0.404   2.547
 2221TIP3    H2 6609   6.948   0.404   2.611
 2222TIP3   OH2 6610   5.615   0.596   2.031
 2222TIP3    H1 6611   5.685   0.662   2.035
 2222TIP3    H2 6612   5.649   0.528   1.974
 2223TIP3   OH2 6613   2.783   7.977   2.052
 2223TIP3    H1 6614   2.745   8.051   2.099
 2223TIP3    H2 6615   2.709   7.917   2.038
 2224TIP3   OH2 6616   6.850   1.348   2.492
 2224TIP3    H1 6617   6.812   1.402   2.422
 2224TIP3    H2 6618   6.945   1.362   2.484
 2225TIP3   OH2 6619   5.454   0.863   2.429
 2225TIP3    H1 6620   5.410   0.899   2.506
 2225TIP3    H2 6621   5.408   0.903   2.354
 2226TIP3   OH2 6622   5.649   1.388   3.498
 2226TIP3    H1 6623   5.731   1.395   3.547
 2226TIP3    H2 6624   5.635   1.294   3.486
 2227TIP3   OH2 6625   6.110   1.299   3.540
 2227TIP3    H1 6626   6.203   1.277   3.548
 2227TIP3    H2 6627   6.079   1.245   3.467
 2228TIP3   OH2 6628   6.080   0.922   1.702
 2228TIP3    H1 6629   6.028   0.843   1.720
 2228TIP3    H2 6630   6.153   0.891   1.649
 2229TIP3   OH2 6631   6.736   1.247   3.291
 2229TIP3    H1 6632   6.733   1.177   3.355
 2229TIP3    H2 6633   6.816   1.295   3.310
 2230TIP3   OH2 6634   6.529   0.951   1.591
 2230TIP3    H1 6635   6.570   0.892   1.654
 2230TIP3    H2 6636   6.601   0.986   1.540
 2231TIP3   OH2 6637   5.760   0.796   3.683
 2231TIP3    H1 6638   5.791   0.705   3.683
 2231TIP3    H2 6639   5.671   0.791   3.647
 2232TIP3   OH2 6640   5.753   0.395   1.906
 2232TIP3    H1 6641   5.809   0.365   1.979
 2232TIP3    H2 6642   5.814   0.407   1.833
 2233TIP3   OH2 6643   6.365   0.885   3.466
 2233TIP3    H1 6644   6.323   0.906   3.383
 2233TIP3    H2 6645   6.398   0.796   3.454
 2234TIP3   OH2 6646   6.249   0.610   1.712
 2234TIP3    H1 6647   6.264   0.628   1.805
 2234TIP3    H2 6648   6.165   0.563   1.710
 2235TIP3   OH2 6649   6.833   0.908   3.067
 2235TIP3    H1 6650   6.911   0.938   3.019
 2235TIP3    H2 6651   6.772   0.981   3.060
 2236TIP3   OH2 6652   5.885   0.550   3.645
 2236TIP3    H1 6653   5.980   0.541   3.639
 2236TIP3    H2 6654   5.860   0.492   3.717
 2237TIP3   OH2 6655   5.939   0.324   2.139
 2237TIP3    H1 6656   5.889   0.322   2.221
 2237TIP3    H2 6657   5.979   0.237   2.134
 2238TIP3   OH2 6658   6.219   0.432   3.320
 2238TIP3    H1 6659   6.139   0.482   3.334
 2238TIP3    H2 6660   6.265   0.480   3.251
 2239TIP3   OH2 6661   6.726   0.803   3.423
 2239TIP3    H1 6662   6.805   0.777   3.376
 2239TIP3    H2 6663   6.724   0.746   3.500
 2240TIP3   OH2 6664   6.341   0.191   3.380
 2240TIP3    H1 6665   6.288   0.126   3.333
 2240TIP3    H2 6666   6.300   0.275   3.359
 2241TIP3   OH2 6667   6.387   0.556   3.138
 2241TIP3    H1 6668   6.455   0.623   3.148
 2241TIP3    H2 6669   6.319   0.599   3.086
 2242TIP3   OH2 6670   6.928   0.463   3.432
 2242TIP3    H1 6671   6.927   0.458   3.528
 2242TIP3    H2 6672   7.003   0.518   3.412
 2243TIP3   OH2 6673   6.965   0.766   3.255
 2243TIP3    H1 6674   6.910   0.821   3.199
 2243TIP3    H2 6675   7.053   0.777   3.219
 2244TIP3   OH2 6676   6.185   0.382   3.672
 2244TIP3    H1 6677   6.143   0.354   3.753
 2244TIP3    H2 6678   6.264   0.328   3.665
 2245TIP3   OH2 6679   6.590   0.265   3.478
 2245TIP3    H1 6680   6.604   0.239   3.569
 2245TIP3    H2 6681   6.506   0.226   3.454
 2246TIP3   OH2 6682   5.860   1.185   1.872
 2246TIP3    H1 6683   5.955   1.191   1.856
 2246TIP3    H2 6684   5.820   1.230   1.797
 2247TIP3   OH2 6685   5.344   0.592   2.080
 2247TIP3    H1 6686   5.435   0.610   2.060
 2247TIP3    H2 6687   5.326   0.508   2.037
 2248TIP3   OH2 6688   5.259   1.163   2.508
 2248TIP3    H1 6689   5.192   1.111   2.463
 2248TIP3    H2 6690   5.298   1.102   2.571
 2249TIP3   OH2 6691   5.395   0.996   2.681
 2249TIP3    H1 6692   5.384   0.929   2.749
 2249TIP3    H2 6693   5.445   1.066   2.724
 2250TIP3   OH2 6694   7.120   1.403   2.491
 2250TIP3    H1 6695   7.136   1.429   2.582
 2250TIP3    H2 6696   7.185   1.450   2.440
 2251TIP3   OH2 6697   7.116   1.445   2.775
 2251TIP3    H1 6698   7.063   1.366   2.769
 2251TIP3    H2 6699   7.179   1.428   2.845
 2252TIP3   OH2 6700   6.977   0.704   1.995
 2252TIP3    H1 6701   7.044   0.763   1.962
 2252TIP3    H2 6702   7.024   0.643   2.052
 2253TIP3   OH2 6703   7.112   0.538   2.170
 2253TIP3    H1 6704   7.057   0.468   2.204
 2253TIP3    H2 6705   7.168   0.563   2.243
 2254TIP3   OH2 6706   7.162   0.904   2.567
 2254TIP3    H1 6707   7.230   0.842   2.540
 2254TIP3    H2 6708   7.184   0.985   2.522
 2255TIP3   OH2 6709   6.983   1.209   2.768
 2255TIP3    H1 6710   7.006   1.145   2.835
 2255TIP3    H2 6711   6.943   1.157   2.698
 2256TIP3   OH2 6712   6.951   0.354   2.311
 2256TIP3    H1 6713   7.028   0.301   2.331
 2256TIP3    H2 6714   6.936   0.405   2.391
 2257TIP3   OH2 6715   5.558   0.443   3.053
 2257TIP3    H1 6716   5.544   0.420   2.962
 2257TIP3    H2 6717   5.653   0.440   3.064
 2258TIP3   OH2 6718   7.218   0.806   3.151
 2258TIP3    H1 6719   7.286   0.741   3.136
 2258TIP3    H2 6720   7.245   0.882   3.100
 2259TIP3   OH2 6721   7.391   0.594   3.145
 2259TIP3    H1 6722   7.307   0.553   3.167
 2259TIP3    H2 6723   7.457   0.527   3.167
 2260TIP3   OH2 6724   7.071   0.316   2.704
 2260TIP3    H1 6725   7.146   0.351   2.657
 2260TIP3    H2 6726   7.082   0.347   2.794
 2261TIP3   OH2 6727   7.147   0.426   2.943
 2261TIP3    H1 6728   7.072   0.467   2.985
 2261TIP3    H2 6729   7.189   0.497   2.894
 2262TIP3   OH2 6730   5.685   0.069   3.732
 2262TIP3    H1 6731   5.740  -0.002   3.697
 2262TIP3    H2 6732   5.648   0.034   3.813
 2263TIP3   OH2 6733   5.522   0.136   3.127
 2263TIP3    H1 6734   5.582   0.112   3.056
 2263TIP3    H2 6735   5.567   0.206   3.174
 2264TIP3   OH2 6736   6.666   1.294   2.150
 2264TIP3    H1 6737   6.728   1.289   2.077
 2264TIP3    H2 6738   6.700   1.364   2.206
 2265TIP3   OH2 6739   5.782   1.106   3.505
 2265TIP3    H1 6740   5.688   1.087   3.503
 2265TIP3    H2 6741   5.805   1.099   3.598
 2266TIP3   OH2 6742   5.994   1.152   3.055
 2266TIP3    H1 6743   5.945   1.228   3.026
 2266TIP3    H2 6744   6.080   1.162   3.014
 2267TIP3   OH2 6745   6.400   1.386   3.201
 2267TIP3    H1 6746   6.436   1.378   3.289
 2267TIP3    H2 6747   6.466   1.435   3.152
 2268TIP3   OH2 6748   6.595   1.536   3.077
 2268TIP3    H1 6749   6.662   1.482   3.036
 2268TIP3    H2 6750   6.644   1.596   3.133
 2269TIP3   OH2 6751   5.651   1.387   3.110
 2269TIP3    H1 6752   5.560   1.405   3.086
 2269TIP3    H2 6753   5.673   1.456   3.173
 2270TIP3   OH2 6754   5.879   1.380   2.953
 2270TIP3    H1 6755   5.797   1.386   3.002
 2270TIP3    H2 6756   5.858   1.416   2.867
 2271TIP3   OH2 6757   6.295   1.415   2.754
 2271TIP3    H1 6758   6.289   1.454   2.667
 2271TIP3    H2 6759   6.311   1.489   2.812
 2272TIP3   OH2 6760   6.558   1.320   2.766
 2272TIP3    H1 6761   6.472   1.362   2.768
 2272TIP3    H2 6762   6.619   1.393   2.752
 2273TIP3   OH2 6763   6.763   1.503   2.703
 2273TIP3    H1 6764   6.770   1.590   2.664
 2273TIP3    H2 6765   6.797   1.443   2.636
 2274TIP3   OH2 6766   5.567   1.173   2.821
 2274TIP3    H1 6767   5.581   1.150   2.913
 2274TIP3    H2 6768   5.641   1.133   2.775
 2275TIP3   OH2 6769   5.779   1.044   2.707
 2275TIP3    H1 6770   5.786   0.959   2.750
 2275TIP3    H2 6771   5.859   1.091   2.733
 2276TIP3   OH2 6772   5.332   0.973   2.208
 2276TIP3    H1 6773   5.248   0.940   2.175
 2276TIP3    H2 6774   5.336   1.064   2.178
 2277TIP3   OH2 6775   6.127   1.162   1.819
 2277TIP3    H1 6776   6.214   1.180   1.784
 2277TIP3    H2 6777   6.096   1.087   1.768
 2278TIP3   OH2 6778   6.834   1.270   1.928
 2278TIP3    H1 6779   6.822   1.175   1.926
 2278TIP3    H2 6780   6.793   1.301   1.847
 2279TIP3   OH2 6781   5.443   0.978   1.862
 2279TIP3    H1 6782   5.440   0.988   1.957
 2279TIP3    H2 6783   5.522   0.927   1.845
 2280TIP3   OH2 6784   7.040   1.425   3.100
 2280TIP3    H1 6785   6.963   1.396   3.052
 2280TIP3    H2 6786   7.030   1.521   3.105
 2281TIP3   OH2 6787   7.592   1.087   2.319
 2281TIP3    H1 6788   7.525   1.020   2.334
 2281TIP3    H2 6789   7.638   1.093   2.403
 2282TIP3   OH2 6790   7.383   0.581   2.283
 2282TIP3    H1 6791   7.402   0.487   2.278
 2282TIP3    H2 6792   7.380   0.610   2.192
 2283TIP3   OH2 6793   7.188   0.856   1.911
 2283TIP3    H1 6794   7.258   0.830   1.851
 2283TIP3    H2 6795   7.205   0.949   1.929
 2284TIP3   OH2 6796   7.719   1.458   2.880
 2284TIP3    H1 6797   7.725   1.421   2.792
 2284TIP3    H2 6798   7.648   1.409   2.921
 2285TIP3   OH2 6799   7.441   0.914   2.706
 2285TIP3    H1 6800   7.361   0.954   2.740
 2285TIP3    H2 6801   7.471   0.856   2.776
 2286TIP3   OH2 6802   7.244   1.151   2.450
 2286TIP3    H1 6803   7.325   1.189   2.482
 2286TIP3    H2 6804   7.177   1.216   2.470
 2287TIP3   OH2 6805   7.410   1.355   1.944
 2287TIP3    H1 6806   7.474   1.346   2.014
 2287TIP3    H2 6807   7.378   1.266   1.928
 2288TIP3   OH2 6808   7.586   1.153   2.719
 2288TIP3    H1 6809   7.643   1.141   2.795
 2288TIP3    H2 6810   7.534   1.073   2.714
 2289TIP3   OH2 6811   7.736   1.080   2.945
 2289TIP3    H1 6812   7.818   1.043   2.978
 2289TIP3    H2 6813   7.673   1.062   3.015
 2290TIP3   OH2 6814   7.506   0.735   2.905
 2290TIP3    H1 6815   7.563   0.766   2.975
 2290TIP3    H2 6816   7.442   0.678   2.950
 2291TIP3   OH2 6817   7.440   1.332   2.560
 2291TIP3    H1 6818   7.493   1.276   2.616
 2291TIP3    H2 6819   7.459   1.421   2.591
 2292TIP3   OH2 6820   7.245   1.125   1.928
 2292TIP3    H1 6821   7.208   1.174   2.001
 2292TIP3    H2 6822   7.202   1.160   1.851
 2293TIP3   OH2 6823   7.444   1.631   2.986
 2293TIP3    H1 6824   7.520   1.650   3.041
 2293TIP3    H2 6825   7.444   1.536   2.976
 2294TIP3   OH2 6826   7.595   1.028   3.193
 2294TIP3    H1 6827   7.623   0.938   3.181
 2294TIP3    H2 6828   7.512   1.034   3.146
 2295TIP3   OH2 6829   7.688   0.776   3.114
 2295TIP3    H1 6830   7.772   0.739   3.087
 2295TIP3    H2 6831   7.658   0.718   3.184
 2296TIP3   OH2 6832   7.044   1.426   2.004
 2296TIP3    H1 6833   6.975   1.371   1.967
 2296TIP3    H2 6834   7.090   1.369   2.066
 2297TIP3   OH2 6835   7.183   1.259   2.174
 2297TIP3    H1 6836   7.175   1.189   2.239
 2297TIP3    H2 6837   7.240   1.324   2.214
 2298TIP3   OH2 6838   7.361   0.695   2.537
 2298TIP3    H1 6839   7.381   0.667   2.447
 2298TIP3    H2 6840   7.430   0.758   2.557
 2299TIP3   OH2 6841   7.477   0.339   3.220
 2299TIP3    H1 6842   7.571   0.333   3.202
 2299TIP3    H2 6843   7.457   0.262   3.272
 2300TIP3   OH2 6844   7.317   0.392   2.608
 2300TIP3    H1 6845   7.373   0.411   2.533
 2300TIP3    H2 6846   7.321   0.471   2.662
 2301TIP3   OH2 6847   7.504   1.342   3.023
 2301TIP3    H1 6848   7.453   1.265   2.996
 2301TIP3    H2 6849   7.520   1.328   3.117
 2302TIP3   OH2 6850   7.448   1.624   2.596
 2302TIP3    H1 6851   7.360   1.654   2.574
 2302TIP3    H2 6852   7.483   1.692   2.654
 2303TIP3   OH2 6853   7.665   1.555   2.427
 2303TIP3    H1 6854   7.594   1.583   2.486
 2303TIP3    H2 6855   7.666   1.621   2.358
 2304TIP3   OH2 6856   7.360   1.429   2.311
 2304TIP3    H1 6857   7.388   1.406   2.399
 2304TIP3    H2 6858   7.432   1.400   2.255
 2305TIP3   OH2 6859   7.567   1.317   2.171
 2305TIP3    H1 6860   7.576   1.232   2.212
 2305TIP3    H2 6861   7.645   1.366   2.197
 2306TIP3   OH2 6862   7.137   1.213   1.686
 2306TIP3    H1 6863   7.049   1.187   1.661
 2306TIP3    H2 6864   7.138   1.308   1.674
 2307TIP3   OH2 6865   7.230   1.186   1.409
 2307TIP3    H1 6866   7.212   1.195   1.503
 2307TIP3    H2 6867   7.314   1.139   1.405
 2308TIP3   OH2 6868   0.777   1.601   3.555
 2308TIP3    H1 6869   0.730   1.667   3.504
 2308TIP3    H2 6870   0.710   1.561   3.611
 2309TIP3   OH2 6871   0.757   1.566   3.951
 2309TIP3    H1 6872   0.814   1.557   4.028
 2309TIP3    H2 6873   0.727   1.477   3.932
 2310TIP3   OH2 6874   0.074   1.444   4.307
 2310TIP3    H1 6875   0.112   1.385   4.372
 2310TIP3    H2 6876   0.149   1.473   4.255
 2311TIP3   OH2 6877   1.037   1.885   3.634
 2311TIP3    H1 6878   1.019   1.819   3.702
 2311TIP3    H2 6879   1.071   1.960   3.682
 2312TIP3   OH2 6880   0.072   1.856   4.002
 2312TIP3    H1 6881   0.055   1.762   4.005
 2312TIP3    H2 6882   0.166   1.864   3.992
 2313TIP3   OH2 6883   0.707   2.300   3.644
 2313TIP3    H1 6884   0.730   2.238   3.575
 2313TIP3    H2 6885   0.727   2.254   3.726
 2314TIP3   OH2 6886   0.588   1.795   3.961
 2314TIP3    H1 6887   0.630   1.712   3.938
 2314TIP3    H2 6888   0.661   1.855   3.978
 2315TIP3   OH2 6889   1.630   1.126   3.957
 2315TIP3    H1 6890   1.642   1.213   3.994
 2315TIP3    H2 6891   1.662   1.134   3.867
 2316TIP3   OH2 6892   1.014   1.305   4.004
 2316TIP3    H1 6893   1.082   1.239   4.018
 2316TIP3    H2 6894   0.971   1.279   3.922
 2317TIP3   OH2 6895   1.062   1.072   3.590
 2317TIP3    H1 6896   1.131   1.077   3.656
 2317TIP3    H2 6897   1.104   1.102   3.509
 2318TIP3   OH2 6898   0.400   1.347   3.892
 2318TIP3    H1 6899   0.495   1.356   3.898
 2318TIP3    H2 6900   0.385   1.254   3.874
 2319TIP3   OH2 6901   1.680   1.349   4.127
 2319TIP3    H1 6902   1.597   1.394   4.114
 2319TIP3    H2 6903   1.714   1.384   4.210
 2320TIP3   OH2 6904   0.381   0.988   4.407
 2320TIP3    H1 6905   0.294   1.023   4.389
 2320TIP3    H2 6906   0.386   0.985   4.503
 2321TIP3   OH2 6907   0.645   1.780   3.390
 2321TIP3    H1 6908   0.722   1.822   3.353
 2321TIP3    H2 6909   0.589   1.853   3.419
 2322TIP3   OH2 6910   0.430   1.719   4.174
 2322TIP3    H1 6911   0.374   1.788   4.208
 2322TIP3    H2 6912   0.478   1.759   4.101
 2323TIP3   OH2 6913   1.219   1.095   3.809
 2323TIP3    H1 6914   1.274   1.023   3.838
 2323TIP3    H2 6915   1.266   1.174   3.835
 2324TIP3   OH2 6916   0.198   1.047   4.185
 2324TIP3    H1 6917   0.259   1.121   4.196
 2324TIP3    H2 6918   0.228   1.003   4.106
 2325TIP3   OH2 6919   0.269   1.918   4.277
 2325TIP3    H1 6920   0.256   2.008   4.246
 2325TIP3    H2 6921   0.188   1.897   4.324
 2326TIP3   OH2 6922   1.095   2.126   3.779
 2326TIP3    H1 6923   1.002   2.124   3.804
 2326TIP3    H2 6924   1.108   2.214   3.742
 2327TIP3   OH2 6925   1.435   1.047   4.143
 2327TIP3    H1 6926   1.345   1.065   4.115
 2327TIP3    H2 6927   1.488   1.064   4.065
 2328TIP3   OH2 6928   0.706   0.577   4.154
 2328TIP3    H1 6929   0.730   0.538   4.071
 2328TIP3    H2 6930   0.611   0.584   4.152
 2329TIP3   OH2 6931   0.785   2.157   3.418
 2329TIP3    H1 6932   0.836   2.076   3.412
 2329TIP3    H2 6933   0.846   2.226   3.392
 2330TIP3   OH2 6934   0.913   1.921   3.389
 2330TIP3    H1 6935   0.943   1.854   3.327
 2330TIP3    H2 6936   0.961   1.902   3.469
 2331TIP3   OH2 6937   0.938   1.484   3.369
 2331TIP3    H1 6938   0.896   1.533   3.439
 2331TIP3    H2 6939   1.028   1.472   3.398
 2332TIP3   OH2 6940   1.189   1.539   4.281
 2332TIP3    H1 6941   1.185   1.620   4.332
 2332TIP3    H2 6942   1.109   1.539   4.230
 2333TIP3   OH2 6943   0.192   1.486   3.773
 2333TIP3    H1 6944   0.171   1.438   3.693
 2333TIP3    H2 6945   0.269   1.442   3.808
 2334TIP3   OH2 6946   0.335   1.903   3.891
 2334TIP3    H1 6947   0.313   1.886   3.800
 2334TIP3    H2 6948   0.423   1.866   3.902
 2335TIP3   OH2 6949   0.293   1.488   4.116
 2335TIP3    H1 6950   0.331   1.454   4.035
 2335TIP3    H2 6951   0.343   1.568   4.134
 2336TIP3   OH2 6952   0.834   2.130   3.870
 2336TIP3    H1 6953   0.829   2.205   3.928
 2336TIP3    H2 6954   0.829   2.054   3.928
 2337TIP3   OH2 6955   0.470   2.018   4.440
 2337TIP3    H1 6956   0.412   2.080   4.486
 2337TIP3    H2 6957   0.411   1.968   4.383
 2338TIP3   OH2 6958   0.230   1.592   4.558
 2338TIP3    H1 6959   0.225   1.679   4.598
 2338TIP3    H2 6960   0.139   1.563   4.553
 2339TIP3   OH2 6961   0.535   2.041   3.408
 2339TIP3    H1 6962   0.624   2.074   3.423
 2339TIP3    H2 6963   0.480   2.119   3.408
 2340TIP3   OH2 6964   0.263   2.181   4.530
 2340TIP3    H1 6965   0.242   2.191   4.438
 2340TIP3    H2 6966   0.184   2.142   4.568
 2341TIP3   OH2 6967   1.133   1.982   2.773
 2341TIP3    H1 6968   1.126   2.075   2.752
 2341TIP3    H2 6969   1.219   1.957   2.741
 2342TIP3   OH2 6970   8.361   1.708   4.449
 2342TIP3    H1 6971   8.330   1.664   4.370
 2342TIP3    H2 6972   8.395   1.638   4.504
 2343TIP3   OH2 6973   8.247   1.887   4.040
 2343TIP3    H1 6974   8.342   1.891   4.054
 2343TIP3    H2 6975   8.210   1.932   4.116
 2344TIP3   OH2 6976   0.669   2.149   4.300
 2344TIP3    H1 6977   0.663   2.241   4.325
 2344TIP3    H2 6978   0.599   2.107   4.349
 2345TIP3   OH2 6979   0.421   2.274   3.284
 2345TIP3    H1 6980   0.334   2.234   3.276
 2345TIP3    H2 6981   0.404   2.365   3.308
 2346TIP3   OH2 6982   8.369   2.118   3.634
 2346TIP3    H1 6983   8.435   2.106   3.702
 2346TIP3    H2 6984   8.289   2.081   3.671
 2347TIP3   OH2 6985   0.634   2.170   2.900
 2347TIP3    H1 6986   0.688   2.101   2.862
 2347TIP3    H2 6987   0.668   2.181   2.989
 2348TIP3   OH2 6988   0.670   2.240   3.166
 2348TIP3    H1 6989   0.584   2.252   3.207
 2348TIP3    H2 6990   0.725   2.207   3.237
 2349TIP3   OH2 6991   1.429   1.487   4.430
 2349TIP3    H1 6992   1.352   1.497   4.376
 2349TIP3    H2 6993   1.452   1.394   4.423
 2350TIP3   OH2 6994   0.047   1.911   4.444
 2350TIP3    H1 6995   0.098   1.886   4.521
 2350TIP3    H2 6996  -0.023   1.846   4.441
 2351TIP3   OH2 6997   0.378   0.784   4.226
 2351TIP3    H1 6998   0.376   0.697   4.266
 2351TIP3    H2 6999   0.362   0.844   4.299
 2352TIP3   OH2 7000   0.968   0.935   4.523
 2352TIP3    H1 7001   1.018   0.862   4.486
 2352TIP3    H2 7002   0.893   0.893   4.567
 2353TIP3   OH2 7003   1.200   1.278   4.377
 2353TIP3    H1 7004   1.167   1.280   4.467
 2353TIP3    H2 7005   1.187   1.367   4.345
 2354TIP3   OH2 7006   0.376   1.263   4.248
 2354TIP3    H1 7007   0.333   1.266   4.333
 2354TIP3    H2 7008   0.347   1.342   4.203
 2355TIP3   OH2 7009   0.780   1.292   3.513
 2355TIP3    H1 7010   0.703   1.273   3.459
 2355TIP3    H2 7011   0.836   1.346   3.458
 2356TIP3   OH2 7012   0.927   1.495   4.600
 2356TIP3    H1 7013   0.901   1.426   4.660
 2356TIP3    H2 7014   1.021   1.507   4.615
 2357TIP3   OH2 7015   0.914   1.229   3.754
 2357TIP3    H1 7016   0.845   1.269   3.701
 2357TIP3    H2 7017   0.963   1.174   3.693
 2358TIP3   OH2 7018   0.232   1.281   4.482
 2358TIP3    H1 7019   0.296   1.340   4.522
 2358TIP3    H2 7020   0.202   1.226   4.554
 2359TIP3   OH2 7021   0.924   1.498   4.169
 2359TIP3    H1 7022   0.958   1.432   4.108
 2359TIP3    H2 7023   0.891   1.448   4.243
 2360TIP3   OH2 7024   0.588   1.037   3.828
 2360TIP3    H1 7025   0.504   1.014   3.869
 2360TIP3    H2 7026   0.650   0.974   3.865
 2361TIP3   OH2 7027   1.160   1.070   4.108
 2361TIP3    H1 7028   1.104   1.086   4.184
 2361TIP3    H2 7029   1.102   1.029   4.043
 2362TIP3   OH2 7030   1.278   2.699   4.266
 2362TIP3    H1 7031   1.263   2.727   4.176
 2362TIP3    H2 7032   1.357   2.747   4.293
 2363TIP3   OH2 7033   0.205   1.848   4.679
 2363TIP3    H1 7034   0.284   1.848   4.733
 2363TIP3    H2 7035   0.158   1.927   4.706
 2364TIP3   OH2 7036   0.668   1.302   3.931
 2364TIP3    H1 7037   0.672   1.220   3.881
 2364TIP3    H2 7038   0.672   1.275   4.022
 2365TIP3   OH2 7039   0.652   1.247   4.198
 2365TIP3    H1 7040   0.559   1.259   4.218
 2365TIP3    H2 7041   0.697   1.304   4.261
 2366TIP3   OH2 7042   0.819   1.904   4.315
 2366TIP3    H1 7043   0.835   1.887   4.408
 2366TIP3    H2 7044   0.765   1.983   4.314
 2367TIP3   OH2 7045   0.054   1.579   3.998
 2367TIP3    H1 7046   0.078   1.554   3.909
 2367TIP3    H2 7047   0.123   1.543   4.053
 2368TIP3   OH2 7048   0.561   1.733   3.117
 2368TIP3    H1 7049   0.492   1.799   3.116
 2368TIP3    H2 7050   0.570   1.708   3.209
 2369TIP3   OH2 7051   8.457   1.527   4.636
 2369TIP3    H1 7052   8.504   1.537   4.719
 2369TIP3    H2 7053   8.369   1.501   4.662
 2370TIP3   OH2 7054   0.695   1.646   4.622
 2370TIP3    H1 7055   0.632   1.589   4.577
 2370TIP3    H2 7056   0.780   1.607   4.602
 2371TIP3   OH2 7057   0.942   2.204   4.214
 2371TIP3    H1 7058   0.854   2.166   4.217
 2371TIP3    H2 7059   0.961   2.228   4.305
 2372TIP3   OH2 7060   1.336   1.200   3.132
 2372TIP3    H1 7061   1.278   1.135   3.093
 2372TIP3    H2 7062   1.314   1.282   3.087
 2373TIP3   OH2 7063   1.535   2.111   4.151
 2373TIP3    H1 7064   1.575   2.156   4.077
 2373TIP3    H2 7065   1.531   2.020   4.125
 2374TIP3   OH2 7066   1.070   2.040   3.038
 2374TIP3    H1 7067   1.058   1.959   3.088
 2374TIP3    H2 7068   1.086   2.011   2.949
 2375TIP3   OH2 7069   0.991   1.691   3.841
 2375TIP3    H1 7070   0.905   1.649   3.852
 2375TIP3    H2 7071   1.047   1.621   3.808
 2376TIP3   OH2 7072   0.191   1.913   3.647
 2376TIP3    H1 7073   0.189   1.980   3.579
 2376TIP3    H2 7074   0.115   1.932   3.702
 2377TIP3   OH2 7075   0.335   1.677   3.623
 2377TIP3    H1 7076   0.288   1.759   3.610
 2377TIP3    H2 7077   0.277   1.625   3.679
 2378TIP3   OH2 7078   0.478   2.234   4.096
 2378TIP3    H1 7079   0.510   2.309   4.046
 2378TIP3    H2 7080   0.556   2.199   4.139
 2379TIP3   OH2 7081   0.119   2.137   3.500
 2379TIP3    H1 7082   0.026   2.136   3.520
 2379TIP3    H2 7083   0.142   2.230   3.500
 2380TIP3   OH2 7084   0.837   1.900   4.032
 2380TIP3    H1 7085   0.845   1.890   4.127
 2380TIP3    H2 7086   0.903   1.840   3.997
 2381TIP3   OH2 7087   0.805   1.773   2.983
 2381TIP3    H1 7088   0.860   1.755   3.059
 2381TIP3    H2 7089   0.716   1.752   3.012
 2382TIP3   OH2 7090   1.072   2.422   4.111
 2382TIP3    H1 7091   1.009   2.351   4.125
 2382TIP3    H2 7092   1.043   2.463   4.029
 2383TIP3   OH2 7093   1.134   2.255   2.738
 2383TIP3    H1 7094   1.153   2.316   2.667
 2383TIP3    H2 7095   1.066   2.298   2.789
 2384TIP3   OH2 7096   0.960   1.715   3.207
 2384TIP3    H1 7097   0.941   1.630   3.247
 2384TIP3    H2 7098   1.054   1.713   3.189
 2385TIP3   OH2 7099   8.436   2.117   4.230
 2385TIP3    H1 7100   8.462   2.052   4.295
 2385TIP3    H2 7101   8.444   2.201   4.275
 2386TIP3   OH2 7102   0.991   1.112   4.323
 2386TIP3    H1 7103   1.070   1.161   4.349
 2386TIP3    H2 7104   0.976   1.051   4.395
 2387TIP3   OH2 7105   0.416   1.968   3.164
 2387TIP3    H1 7106   0.436   1.976   3.258
 2387TIP3    H2 7107   0.478   2.026   3.121
 2388TIP3   OH2 7108   0.840   1.345   4.379
 2388TIP3    H1 7109   0.872   1.385   4.459
 2388TIP3    H2 7110   0.886   1.261   4.375
 2389TIP3   OH2 7111   1.465   1.221   4.357
 2389TIP3    H1 7112   1.370   1.225   4.369
 2389TIP3    H2 7113   1.476   1.168   4.278
 2390TIP3   OH2 7114   1.126   1.435   3.743
 2390TIP3    H1 7115   1.055   1.373   3.760
 2390TIP3    H2 7116   1.198   1.404   3.798
 2391TIP3   OH2 7117   1.132   2.393   3.690
 2391TIP3    H1 7118   1.097   2.442   3.616
 2391TIP3    H2 7119   1.226   2.412   3.690
 2392TIP3   OH2 7120   8.420   2.360   4.686
 2392TIP3    H1 7121   8.496   2.392   4.734
 2392TIP3    H2 7122   8.373   2.438   4.659
 2393TIP3   OH2 7123   0.359   2.357   4.719
 2393TIP3    H1 7124   0.451   2.334   4.731
 2393TIP3    H2 7125   0.328   2.299   4.650
 2394TIP3   OH2 7126   0.990   2.283   4.475
 2394TIP3    H1 7127   1.002   2.212   4.539
 2394TIP3    H2 7128   1.062   2.343   4.493
 2395TIP3   OH2 7129   0.795   1.979   2.797
 2395TIP3    H1 7130   0.793   1.908   2.861
 2395TIP3    H2 7131   0.858   1.949   2.731
 2396TIP3   OH2 7132   8.459   1.824   4.858
 2396TIP3    H1 7133   8.513   1.751   4.827
 2396TIP3    H2 7134   8.407   1.849   4.781
 2397TIP3   OH2 7135   0.621   1.917   4.646
 2397TIP3    H1 7136   0.577   1.937   4.563
 2397TIP3    H2 7137   0.658   1.830   4.633
 2398TIP3   OH2 7138   0.097   1.571   4.869
 2398TIP3    H1 7139   0.155   1.495   4.869
 2398TIP3    H2 7140   0.110   1.611   4.955
 2399TIP3   OH2 7141   0.461   1.452   4.518
 2399TIP3    H1 7142   0.390   1.514   4.530
 2399TIP3    H2 7143   0.507   1.483   4.440
 2400TIP3   OH2 7144   0.984   1.831   4.626
 2400TIP3    H1 7145   1.053   1.793   4.573
 2400TIP3    H2 7146   0.980   1.777   4.705
 2401TIP3   OH2 7147   0.593   1.239   4.632
 2401TIP3    H1 7148   0.618   1.181   4.560
 2401TIP3    H2 7149   0.552   1.314   4.589
 2402TIP3   OH2 7150   0.639   1.073   4.416
 2402TIP3    H1 7151   0.668   1.115   4.335
 2402TIP3    H2 7152   0.549   1.045   4.397
 2403TIP3   OH2 7153   0.605   1.559   4.315
 2403TIP3    H1 7154   0.694   1.579   4.284
 2403TIP3    H2 7155   0.549   1.619   4.265
 2404TIP3   OH2 7156   1.197   1.513   4.689
 2404TIP3    H1 7157   1.212   1.419   4.691
 2404TIP3    H2 7158   1.282   1.551   4.667
 2405TIP3   OH2 7159   1.210   1.786   4.422
 2405TIP3    H1 7160   1.164   1.853   4.372
 2405TIP3    H2 7161   1.302   1.793   4.395
 2406TIP3   OH2 7162   0.498   1.330   4.887
 2406TIP3    H1 7163   0.403   1.338   4.901
 2406TIP3    H2 7164   0.505   1.298   4.796
 2407TIP3   OH2 7165   0.699   0.868   4.588
 2407TIP3    H1 7166   0.682   0.942   4.530
 2407TIP3    H2 7167   0.709   0.793   4.530
 2408TIP3   OH2 7168   0.842   1.284   4.749
 2408TIP3    H1 7169   0.835   1.266   4.843
 2408TIP3    H2 7170   0.756   1.260   4.715
 2409TIP3   OH2 7171   1.092   1.246   4.621
 2409TIP3    H1 7172   1.011   1.232   4.671
 2409TIP3    H2 7173   1.160   1.205   4.675
 2410TIP3   OH2 7174   1.328   1.200   4.759
 2410TIP3    H1 7175   1.348   1.107   4.770
 2410TIP3    H2 7176   1.325   1.234   4.849
 2411TIP3   OH2 7177   0.740   0.802   4.848
 2411TIP3    H1 7178   0.815   0.746   4.833
 2411TIP3    H2 7179   0.709   0.824   4.760
 2412TIP3   OH2 7180   0.889   1.009   4.936
 2412TIP3    H1 7181   0.844   0.933   4.900
 2412TIP3    H2 7182   0.820   1.073   4.951
 2413TIP3   OH2 7183   8.179   2.042   3.816
 2413TIP3    H1 7184   8.202   1.977   3.883
 2413TIP3    H2 7185   8.129   2.109   3.863
 2414TIP3   OH2 7186   1.404   2.458   3.733
 2414TIP3    H1 7187   1.458   2.442   3.810
 2414TIP3    H2 7188   1.421   2.550   3.711
 2415TIP3   OH2 7189   1.403   2.202   4.427
 2415TIP3    H1 7190   1.349   2.172   4.500
 2415TIP3    H2 7191   1.461   2.268   4.465
 2416TIP3   OH2 7192   1.226   1.707   3.161
 2416TIP3    H1 7193   1.258   1.709   3.071
 2416TIP3    H2 7194   1.294   1.660   3.210
 2417TIP3   OH2 7195   1.397   1.554   3.341
 2417TIP3    H1 7196   1.320   1.515   3.382
 2417TIP3    H2 7197   1.432   1.613   3.408
 2418TIP3   OH2 7198   1.258   2.183   4.088
 2418TIP3    H1 7199   1.183   2.240   4.070
 2418TIP3    H2 7200   1.256   2.118   4.018
 2419TIP3   OH2 7201   1.257   1.413   2.986
 2419TIP3    H1 7202   1.170   1.424   2.948
 2419TIP3    H2 7203   1.302   1.495   2.967
 2420TIP3   OH2 7204   1.190   1.424   3.472
 2420TIP3    H1 7205   1.206   1.330   3.460
 2420TIP3    H2 7206   1.174   1.433   3.566
 2421TIP3   OH2 7207   8.331   1.529   4.203
 2421TIP3    H1 7208   8.371   1.560   4.121
 2421TIP3    H2 7209   8.403   1.486   4.250
 2422TIP3   OH2 7210   1.473   1.818   4.349
 2422TIP3    H1 7211   1.541   1.756   4.375
 2422TIP3    H2 7212   1.480   1.823   4.254
 2423TIP3   OH2 7213   1.658   1.628   4.418
 2423TIP3    H1 7214   1.579   1.574   4.414
 2423TIP3    H2 7215   1.728   1.569   4.391
 2424TIP3   OH2 7216   1.240   1.155   3.394
 2424TIP3    H1 7217   1.279   1.068   3.406
 2424TIP3    H2 7218   1.271   1.183   3.308
 2425TIP3   OH2 7219   1.345   1.327   3.887
 2425TIP3    H1 7220   1.425   1.336   3.836
 2425TIP3    H2 7221   1.362   1.374   3.968
 2426TIP3   OH2 7222   1.431   1.496   4.097
 2426TIP3    H1 7223   1.353   1.514   4.149
 2426TIP3    H2 7224   1.465   1.582   4.074
 2427TIP3   OH2 7225   1.886   1.056   4.643
 2427TIP3    H1 7226   1.948   0.995   4.604
 2427TIP3    H2 7227   1.853   1.107   4.569
 2428TIP3   OH2 7228   1.326   0.890   3.416
 2428TIP3    H1 7229   1.372   0.868   3.497
 2428TIP3    H2 7230   1.258   0.824   3.408
 2429TIP3   OH2 7231   1.736   1.183   4.454
 2429TIP3    H1 7232   1.660   1.221   4.497
 2429TIP3    H2 7233   1.700   1.113   4.399
 2430TIP3   OH2 7234   0.926   2.364   3.314
 2430TIP3    H1 7235   0.978   2.347   3.236
 2430TIP3    H2 7236   0.979   2.425   3.366
 2431TIP3   OH2 7237   0.049   2.085   4.696
 2431TIP3    H1 7238  -0.030   2.056   4.652
 2431TIP3    H2 7239   0.026   2.171   4.731
 2432TIP3   OH2 7240   0.255   2.193   4.251
 2432TIP3    H1 7241   0.197   2.260   4.214
 2432TIP3    H2 7242   0.338   2.206   4.205
 2433TIP3   OH2 7243   0.654   2.420   4.375
 2433TIP3    H1 7244   0.692   2.416   4.462
 2433TIP3    H2 7245   0.716   2.473   4.324
 2434TIP3   OH2 7246   0.844   2.580   4.249
 2434TIP3    H1 7247   0.908   2.528   4.199
 2434TIP3    H2 7248   0.898   2.638   4.303
 2435TIP3   OH2 7249   1.651   0.942   4.340
 2435TIP3    H1 7250   1.568   0.938   4.291
 2435TIP3    H2 7251   1.690   0.855   4.329
 2436TIP3   OH2 7252   8.451   2.392   4.304
 2436TIP3    H1 7253   8.363   2.397   4.267
 2436TIP3    H2 7254   8.457   2.467   4.363
 2437TIP3   OH2 7255   0.158   2.426   4.126
 2437TIP3    H1 7256   0.078   2.416   4.179
 2437TIP3    H2 7257   0.127   2.434   4.036
 2438TIP3   OH2 7258   0.547   2.447   3.933
 2438TIP3    H1 7259   0.479   2.455   3.866
 2438TIP3    H2 7260   0.557   2.535   3.968
 2439TIP3   OH2 7261   0.810   2.383   3.975
 2439TIP3    H1 7262   0.719   2.404   3.956
 2439TIP3    H2 7263   0.860   2.450   3.929
 2440TIP3   OH2 7264   1.006   2.554   3.873
 2440TIP3    H1 7265   1.011   2.642   3.834
 2440TIP3    H2 7266   1.043   2.496   3.807
 2441TIP3   OH2 7267   8.373   2.243   3.988
 2441TIP3    H1 7268   8.376   2.199   4.073
 2441TIP3    H2 7269   8.414   2.180   3.928
 2442TIP3   OH2 7270   0.040   2.074   3.842
 2442TIP3    H1 7271   0.043   2.002   3.904
 2442TIP3    H2 7272   0.122   2.121   3.857
 2443TIP3   OH2 7273   0.297   2.182   3.888
 2443TIP3    H1 7274   0.318   2.089   3.877
 2443TIP3    H2 7275   0.347   2.208   3.965
 2444TIP3   OH2 7276   0.761   0.815   3.899
 2444TIP3    H1 7277   0.832   0.876   3.918
 2444TIP3    H2 7278   0.766   0.801   3.804
 2445TIP3   OH2 7279   1.341   0.859   3.874
 2445TIP3    H1 7280   1.392   0.840   3.795
 2445TIP3    H2 7281   1.255   0.818   3.858
 2446TIP3   OH2 7282   1.475   0.818   3.639
 2446TIP3    H1 7283   1.533   0.753   3.600
 2446TIP3    H2 7284   1.519   0.901   3.625
 2447TIP3   OH2 7285   1.097   0.739   3.848
 2447TIP3    H1 7286   1.037   0.761   3.777
 2447TIP3    H2 7287   1.055   0.664   3.891
 2448TIP3   OH2 7288   0.425   2.345   2.914
 2448TIP3    H1 7289   0.501   2.287   2.908
 2448TIP3    H2 7290   0.352   2.287   2.938
 2449TIP3   OH2 7291   1.077   2.309   3.086
 2449TIP3    H1 7292   1.077   2.214   3.074
 2449TIP3    H2 7293   1.038   2.343   3.006
 2450TIP3   OH2 7294   1.407   0.939   4.785
 2450TIP3    H1 7295   1.425   0.905   4.873
 2450TIP3    H2 7296   1.491   0.931   4.739
 2451TIP3   OH2 7297   1.304   2.415   4.257
 2451TIP3    H1 7298   1.220   2.413   4.212
 2451TIP3    H2 7299   1.323   2.508   4.269
 2452TIP3   OH2 7300   2.580   1.833   2.999
 2452TIP3    H1 7301   2.540   1.917   2.979
 2452TIP3    H2 7302   2.507   1.772   3.004
 2453TIP3   OH2 7303   2.530   1.806   3.456
 2453TIP3    H1 7304   2.602   1.802   3.518
 2453TIP3    H2 7305   2.506   1.715   3.441
 2454TIP3   OH2 7306   1.947   1.718   3.778
 2454TIP3    H1 7307   1.963   1.646   3.838
 2454TIP3    H2 7308   1.870   1.692   3.729
 2455TIP3   OH2 7309   1.961   2.188   3.532
 2455TIP3    H1 7310   1.871   2.216   3.545
 2455TIP3    H2 7311   1.954   2.099   3.497
 2456TIP3   OH2 7312   1.549   1.333   3.265
 2456TIP3    H1 7313   1.503   1.414   3.286
 2456TIP3    H2 7314   1.483   1.277   3.224
 2457TIP3   OH2 7315   1.667   1.658   3.466
 2457TIP3    H1 7316   1.692   1.573   3.502
 2457TIP3    H2 7317   1.657   1.643   3.372
 2458TIP3   OH2 7318   2.491   2.570   3.112
 2458TIP3    H1 7319   2.521   2.502   3.050
 2458TIP3    H2 7320   2.499   2.529   3.198
 2459TIP3   OH2 7321   2.389   2.046   3.433
 2459TIP3    H1 7322   2.423   1.956   3.430
 2459TIP3    H2 7323   2.464   2.098   3.463
 2460TIP3   OH2 7324   3.417   1.369   3.455
 2460TIP3    H1 7325   3.433   1.456   3.492
 2460TIP3    H2 7326   3.437   1.379   3.362
 2461TIP3   OH2 7327   2.789   1.528   3.481
 2461TIP3    H1 7328   2.829   1.442   3.497
 2461TIP3    H2 7329   2.744   1.518   3.397
 2462TIP3   OH2 7330   2.139   1.198   3.457
 2462TIP3    H1 7331   2.126   1.268   3.393
 2462TIP3    H2 7332   2.086   1.125   3.425
 2463TIP3   OH2 7333   2.855   1.327   3.112
 2463TIP3    H1 7334   2.929   1.300   3.167
 2463TIP3    H2 7335   2.872   1.286   3.027
 2464TIP3   OH2 7336   1.762   1.416   3.567
 2464TIP3    H1 7337   1.842   1.387   3.611
 2464TIP3    H2 7338   1.761   1.366   3.485
 2465TIP3   OH2 7339   2.194   1.598   3.375
 2465TIP3    H1 7340   2.288   1.579   3.383
 2465TIP3    H2 7341   2.156   1.518   3.338
 2466TIP3   OH2 7342   3.475   1.593   3.622
 2466TIP3    H1 7343   3.386   1.627   3.613
 2466TIP3    H2 7344   3.506   1.628   3.705
 2467TIP3   OH2 7345   2.124   1.201   3.887
 2467TIP3    H1 7346   2.077   1.241   3.815
 2467TIP3    H2 7347   2.068   1.214   3.963
 2468TIP3   OH2 7348   2.441   2.044   2.895
 2468TIP3    H1 7349   2.418   2.029   2.804
 2468TIP3    H2 7350   2.398   2.126   2.918
 2469TIP3   OH2 7351   3.043   1.293   3.309
 2469TIP3    H1 7352   2.988   1.282   3.386
 2469TIP3    H2 7353   3.086   1.377   3.321
 2470TIP3   OH2 7354   2.009   1.321   3.665
 2470TIP3    H1 7355   2.055   1.405   3.670
 2470TIP3    H2 7356   2.054   1.273   3.596
 2471TIP3   OH2 7357   2.022   2.072   3.778
 2471TIP3    H1 7358   2.012   2.117   3.695
 2471TIP3    H2 7359   1.963   2.119   3.838
 2472TIP3   OH2 7360   1.535   1.870   3.064
 2472TIP3    H1 7361   1.460   1.834   3.016
 2472TIP3    H2 7362   1.519   1.964   3.068
 2473TIP3   OH2 7363   3.210   1.265   3.624
 2473TIP3    H1 7364   3.124   1.280   3.585
 2473TIP3    H2 7365   3.272   1.290   3.555
 2474TIP3   OH2 7366   2.471   0.892   3.615
 2474TIP3    H1 7367   2.463   0.800   3.638
 2474TIP3    H2 7368   2.395   0.935   3.655
 2475TIP3   OH2 7369   2.584   2.407   2.904
 2475TIP3    H1 7370   2.634   2.327   2.888
 2475TIP3    H2 7371   2.642   2.478   2.877
 2476TIP3   OH2 7372   2.735   2.188   2.844
 2476TIP3    H1 7373   2.738   2.119   2.777
 2476TIP3    H2 7374   2.765   2.144   2.924
 2477TIP3   OH2 7375   3.204   2.250   3.594
 2477TIP3    H1 7376   3.117   2.214   3.573
 2477TIP3    H2 7377   3.192   2.345   3.588
 2478TIP3   OH2 7378   2.394   1.661   2.850
 2478TIP3    H1 7379   2.319   1.720   2.839
 2478TIP3    H2 7380   2.446   1.674   2.771
 2479TIP3   OH2 7381   2.427   1.385   2.620
 2479TIP3    H1 7382   2.456   1.470   2.654
 2479TIP3    H2 7383   2.471   1.378   2.535
 2480TIP3   OH2 7384   3.329   1.959   3.468
 2480TIP3    H1 7385   3.236   1.971   3.451
 2480TIP3    H2 7386   3.369   1.951   3.381
 2481TIP3   OH2 7387   2.762   1.756   2.813
 2481TIP3    H1 7388   2.706   1.783   2.886
 2481TIP3    H2 7389   2.844   1.728   2.854
 2482TIP3   OH2 7390   2.980   1.801   3.735
 2482TIP3    H1 7391   2.964   1.889   3.768
 2482TIP3    H2 7392   2.903   1.781   3.683
 2483TIP3   OH2 7393   2.003   1.759   3.256
 2483TIP3    H1 7394   1.966   1.699   3.191
 2483TIP3    H2 7395   2.073   1.709   3.298
 2484TIP3   OH2 7396   2.180   2.189   3.335
 2484TIP3    H1 7397   2.146   2.166   3.248
 2484TIP3    H2 7398   2.255   2.131   3.347
 2485TIP3   OH2 7399   2.245   2.271   3.933
 2485TIP3    H1 7400   2.180   2.331   3.970
 2485TIP3    H2 7401   2.193   2.201   3.894
 2486TIP3   OH2 7402   2.582   1.628   2.647
 2486TIP3    H1 7403   2.645   1.684   2.694
 2486TIP3    H2 7404   2.611   1.632   2.556
 2487TIP3   OH2 7405   2.024   1.888   4.014
 2487TIP3    H1 7406   2.027   1.963   4.073
 2487TIP3    H2 7407   1.964   1.826   4.056
 2488TIP3   OH2 7408   2.329   2.300   2.919
 2488TIP3    H1 7409   2.416   2.340   2.921
 2488TIP3    H2 7410   2.277   2.360   2.866
 2489TIP3   OH2 7411   2.040   2.435   4.018
 2489TIP3    H1 7412   1.986   2.483   3.955
 2489TIP3    H2 7413   1.977   2.403   4.083
 2490TIP3   OH2 7414   3.116   0.854   2.714
 2490TIP3    H1 7415   3.036   0.874   2.763
 2490TIP3    H2 7416   3.127   0.929   2.655
 2491TIP3   OH2 7417   1.890   1.596   3.047
 2491TIP3    H1 7418   1.825   1.650   3.002
 2491TIP3    H2 7419   1.846   1.513   3.063
 2492TIP3   OH2 7420   2.922   2.226   2.267
 2492TIP3    H1 7421   2.924   2.318   2.241
 2492TIP3    H2 7422   3.010   2.194   2.251
 2493TIP3   OH2 7423   1.540   2.236   3.598
 2493TIP3    H1 7424   1.535   2.146   3.630
 2493TIP3    H2 7425   1.492   2.287   3.662
 2494TIP3   OH2 7426   3.342   2.648   3.636
 2494TIP3    H1 7427   3.301   2.576   3.588
 2494TIP3    H2 7428   3.276   2.673   3.701
 2495TIP3   OH2 7429   2.380   2.442   3.756
 2495TIP3    H1 7430   2.402   2.524   3.799
 2495TIP3    H2 7431   2.359   2.381   3.827
 2496TIP3   OH2 7432   2.230   2.517   2.741
 2496TIP3    H1 7433   2.187   2.499   2.658
 2496TIP3    H2 7434   2.200   2.605   2.765
 2497TIP3   OH2 7435   1.666   2.376   3.127
 2497TIP3    H1 7436   1.658   2.374   3.222
 2497TIP3    H2 7437   1.618   2.299   3.098
 2498TIP3   OH2 7438   2.434   2.449   2.368
 2498TIP3    H1 7439   2.485   2.376   2.333
 2498TIP3    H2 7440   2.469   2.462   2.457
 2499TIP3   OH2 7441   2.485   2.495   2.637
 2499TIP3    H1 7442   2.400   2.496   2.681
 2499TIP3    H2 7443   2.546   2.465   2.704
 2500TIP3   OH2 7444   3.207   1.758   3.901
 2500TIP3    H1 7445   3.131   1.763   3.843
 2500TIP3    H2 7446   3.235   1.666   3.895
 2501TIP3   OH2 7447   1.848   2.191   3.943
 2501TIP3    H1 7448   1.878   2.195   4.034
 2501TIP3    H2 7449   1.777   2.255   3.939
 2502TIP3   OH2 7450   2.236   0.986   3.743
 2502TIP3    H1 7451   2.153   0.954   3.709
 2502TIP3    H2 7452   2.214   1.068   3.788
 2503TIP3   OH2 7453   2.775   1.106   3.941
 2503TIP3    H1 7454   2.845   1.079   4.000
 2503TIP3    H2 7455   2.694   1.082   3.987
 2504TIP3   OH2 7456   2.993   1.536   3.855
 2504TIP3    H1 7457   2.953   1.535   3.942
 2504TIP3    H2 7458   2.966   1.619   3.817
 2505TIP3   OH2 7459   2.672   1.618   2.389
 2505TIP3    H1 7460   2.630   1.623   2.303
 2505TIP3    H2 7461   2.757   1.659   2.377
 2506TIP3   OH2 7462   2.371   1.037   2.735
 2506TIP3    H1 7463   2.434   1.002   2.799
 2506TIP3    H2 7464   2.323   0.960   2.704
 2507TIP3   OH2 7465   2.052   1.383   3.277
 2507TIP3    H1 7466   1.961   1.361   3.298
 2507TIP3    H2 7467   2.066   1.345   3.191
 2508TIP3   OH2 7468   2.542   1.480   2.991
 2508TIP3    H1 7469   2.488   1.543   2.944
 2508TIP3    H2 7470   2.611   1.456   2.929
 2509TIP3   OH2 7471   2.723   1.739   4.073
 2509TIP3    H1 7472   2.694   1.670   4.133
 2509TIP3    H2 7473   2.815   1.753   4.094
 2510TIP3   OH2 7474   2.678   1.491   3.231
 2510TIP3    H1 7475   2.619   1.512   3.158
 2510TIP3    H2 7476   2.734   1.422   3.198
 2511TIP3   OH2 7477   1.990   1.532   3.975
 2511TIP3    H1 7478   1.937   1.585   4.034
 2511TIP3    H2 7479   1.987   1.444   4.012
 2512TIP3   OH2 7480   2.042   1.015   2.667
 2512TIP3    H1 7481   2.053   1.012   2.762
 2512TIP3    H2 7482   1.954   1.049   2.654
 2513TIP3   OH2 7483   1.597   1.046   3.565
 2513TIP3    H1 7484   1.671   1.088   3.609
 2513TIP3    H2 7485   1.627   1.032   3.476
 2514TIP3   OH2 7486   1.577   1.072   3.069
 2514TIP3    H1 7487   1.608   1.096   2.981
 2514TIP3    H2 7488   1.499   1.125   3.082
 2515TIP3   OH2 7489   2.727   1.731   3.647
 2515TIP3    H1 7490   2.752   1.664   3.583
 2515TIP3    H2 7491   2.685   1.682   3.717
 2516TIP3   OH2 7492   2.402   1.213   3.330
 2516TIP3    H1 7493   2.330   1.192   3.389
 2516TIP3    H2 7494   2.480   1.179   3.374
 2517TIP3   OH2 7495   1.808   1.270   3.337
 2517TIP3    H1 7496   1.720   1.276   3.300
 2517TIP3    H2 7497   1.835   1.180   3.321
 2518TIP3   OH2 7498   2.083   1.250   3.039
 2518TIP3    H1 7499   2.176   1.272   3.032
 2518TIP3    H2 7500   2.045   1.285   2.958
 2519TIP3   OH2 7501   2.881   1.271   3.537
 2519TIP3    H1 7502   2.850   1.291   3.625
 2519TIP3    H2 7503   2.819   1.206   3.504
 2520TIP3   OH2 7504   1.956   1.309   2.802
 2520TIP3    H1 7505   1.887   1.257   2.761
 2520TIP3    H2 7506   2.007   1.344   2.729
 2521TIP3   OH2 7507   3.066   2.984   3.755
 2521TIP3    H1 7508   3.060   3.005   3.662
 2521TIP3    H2 7509   3.143   3.032   3.786
 2522TIP3   OH2 7510   2.012   2.098   4.186
 2522TIP3    H1 7511   2.089   2.118   4.239
 2522TIP3    H2 7512   1.938   2.112   4.245
 2523TIP3   OH2 7513   2.470   1.528   3.426
 2523TIP3    H1 7514   2.528   1.518   3.350
 2523TIP3    H2 7515   2.480   1.446   3.475
 2524TIP3   OH2 7516   1.958   1.026   3.331
 2524TIP3    H1 7517   1.924   0.951   3.380
 2524TIP3    H2 7518   1.987   0.988   3.247
 2525TIP3   OH2 7519   2.418   1.458   3.739
 2525TIP3    H1 7520   2.392   1.519   3.669
 2525TIP3    H2 7521   2.498   1.497   3.775
 2526TIP3   OH2 7522   2.171   1.826   2.807
 2526TIP3    H1 7523   2.102   1.763   2.789
 2526TIP3    H2 7524   2.151   1.861   2.893
 2527TIP3   OH2 7525   3.076   2.015   3.450
 2527TIP3    H1 7526   3.034   2.099   3.432
 2527TIP3    H2 7527   3.006   1.950   3.438
 2528TIP3   OH2 7528   2.636   1.183   2.691
 2528TIP3    H1 7529   2.655   1.115   2.756
 2528TIP3    H2 7530   2.691   1.256   2.716
 2529TIP3   OH2 7531   2.566   2.142   3.887
 2529TIP3    H1 7532   2.637   2.130   3.950
 2529TIP3    H2 7533   2.590   2.219   3.837
 2530TIP3   OH2 7534   2.732   1.420   2.791
 2530TIP3    H1 7535   2.826   1.417   2.810
 2530TIP3    H2 7536   2.721   1.496   2.735
 2531TIP3   OH2 7537   1.903   1.910   3.476
 2531TIP3    H1 7538   1.949   1.868   3.403
 2531TIP3    H2 7539   1.824   1.858   3.487
 2532TIP3   OH2 7540   2.328   1.976   2.642
 2532TIP3    H1 7541   2.282   2.060   2.640
 2532TIP3    H2 7542   2.274   1.920   2.698
 2533TIP3   OH2 7543   1.838   1.714   4.118
 2533TIP3    H1 7544   1.837   1.739   4.211
 2533TIP3    H2 7545   1.749   1.731   4.088
 2534TIP3   OH2 7546   2.503   1.901   4.121
 2534TIP3    H1 7547   2.444   1.889   4.047
 2534TIP3    H2 7548   2.585   1.858   4.095
 2535TIP3   OH2 7549   2.703   2.358   3.776
 2535TIP3    H1 7550   2.673   2.393   3.692
 2535TIP3    H2 7551   2.724   2.435   3.829
 2536TIP3   OH2 7552   3.124   1.489   2.597
 2536TIP3    H1 7553   3.058   1.446   2.541
 2536TIP3    H2 7554   3.130   1.578   2.563
 2537TIP3   OH2 7555   2.851   2.300   2.526
 2537TIP3    H1 7556   2.825   2.224   2.578
 2537TIP3    H2 7557   2.872   2.264   2.440
 2538TIP3   OH2 7558   2.866   1.861   3.395
 2538TIP3    H1 7559   2.785   1.909   3.377
 2538TIP3    H2 7560   2.873   1.799   3.322
 2539TIP3   OH2 7561   1.985   2.169   3.123
 2539TIP3    H1 7562   1.982   2.249   3.071
 2539TIP3    H2 7563   1.895   2.136   3.121
 2540TIP3   OH2 7564   1.576   1.485   2.824
 2540TIP3    H1 7565   1.642   1.553   2.841
 2540TIP3    H2 7566   1.493   1.529   2.841
 2541TIP3   OH2 7567   2.085   1.923   3.043
 2541TIP3    H1 7568   2.066   2.013   3.070
 2541TIP3    H2 7569   2.061   1.870   3.120
 2542TIP3   OH2 7570   2.225   2.444   3.535
 2542TIP3    H1 7571   2.256   2.522   3.489
 2542TIP3    H2 7572   2.281   2.438   3.613
 2543TIP3   OH2 7573   1.904   2.400   2.983
 2543TIP3    H1 7574   1.819   2.403   3.026
 2543TIP3    H2 7575   1.938   2.489   2.991
 2544TIP3   OH2 7576   2.622   2.159   3.526
 2544TIP3    H1 7577   2.651   2.128   3.612
 2544TIP3    H2 7578   2.700   2.199   3.487
 2545TIP3   OH2 7579   2.608   2.045   2.450
 2545TIP3    H1 7580   2.662   2.025   2.526
 2545TIP3    H2 7581   2.521   2.012   2.471
 2546TIP3   OH2 7582   2.893   2.672   3.587
 2546TIP3    H1 7583   2.812   2.621   3.576
 2546TIP3    H2 7584   2.882   2.746   3.528
 2547TIP3   OH2 7585   2.932   2.501   2.228
 2547TIP3    H1 7586   2.964   2.569   2.168
 2547TIP3    H2 7587   2.858   2.541   2.274
 2548TIP3   OH2 7588   1.952   1.276   4.092
 2548TIP3    H1 7589   1.858   1.291   4.095
 2548TIP3    H2 7590   1.971   1.223   4.169
 2549TIP3   OH2 7591   2.785   1.984   2.656
 2549TIP3    H1 7592   2.769   1.905   2.707
 2549TIP3    H2 7593   2.878   1.980   2.634
 2550TIP3   OH2 7594   1.963   2.006   2.435
 2550TIP3    H1 7595   1.975   1.914   2.409
 2550TIP3    H2 7596   1.952   2.003   2.530
 2551TIP3   OH2 7597   1.923   2.020   2.707
 2551TIP3    H1 7598   1.992   1.990   2.766
 2551TIP3    H2 7599   1.923   2.115   2.718
 2552TIP3   OH2 7600   1.701   1.725   2.901
 2552TIP3    H1 7601   1.643   1.764   2.967
 2552TIP3    H2 7602   1.691   1.782   2.825
 2553TIP3   OH2 7603   2.802   1.339   3.796
 2553TIP3    H1 7604   2.883   1.380   3.826
 2553TIP3    H2 7605   2.794   1.260   3.850
 2554TIP3   OH2 7606   2.184   2.205   2.643
 2554TIP3    H1 7607   2.102   2.230   2.685
 2554TIP3    H2 7608   2.206   2.279   2.587
 2555TIP3   OH2 7609   2.351   1.292   3.063
 2555TIP3    H1 7610   2.421   1.354   3.044
 2555TIP3    H2 7611   2.373   1.257   3.149
 2556TIP3   OH2 7612   2.642   1.569   3.853
 2556TIP3    H1 7613   2.673   1.617   3.929
 2556TIP3    H2 7614   2.698   1.491   3.849
 2557TIP3   OH2 7615   1.937   2.293   2.729
 2557TIP3    H1 7616   1.912   2.362   2.667
 2557TIP3    H2 7617   1.923   2.333   2.815
 2558TIP3   OH2 7618   2.060   0.992   2.946
 2558TIP3    H1 7619   2.063   1.079   2.986
 2558TIP3    H2 7620   2.140   0.949   2.977
 2559TIP3   OH2 7621   3.258   1.477   3.835
 2559TIP3    H1 7622   3.164   1.487   3.849
 2559TIP3    H2 7623   3.266   1.420   3.759
 2560TIP3   OH2 7624   2.922   1.652   3.216
 2560TIP3    H1 7625   2.843   1.598   3.226
 2560TIP3    H2 7626   2.987   1.611   3.272
 2561TIP3   OH2 7627   1.669   1.912   2.688
 2561TIP3    H1 7628   1.745   1.968   2.701
 2561TIP3    H2 7629   1.700   1.841   2.631
 2562TIP3   OH2 7630   1.597   1.206   2.817
 2562TIP3    H1 7631   1.608   1.297   2.845
 2562TIP3    H2 7632   1.531   1.209   2.748
 2563TIP3   OH2 7633   2.899   2.701   3.188
 2563TIP3    H1 7634   2.857   2.731   3.108
 2563TIP3    H2 7635   2.989   2.683   3.162
 2564TIP3   OH2 7636   1.974   0.906   3.706
 2564TIP3    H1 7637   1.940   0.873   3.623
 2564TIP3    H2 7638   1.973   0.829   3.764
 2565TIP3   OH2 7639   1.499   2.158   3.082
 2565TIP3    H1 7640   1.432   2.179   3.148
 2565TIP3    H2 7641   1.461   2.189   2.999
 2566TIP3   OH2 7642   1.682   2.695   4.119
 2566TIP3    H1 7643   1.762   2.681   4.170
 2566TIP3    H2 7644   1.665   2.611   4.077
 2567TIP3   OH2 7645   2.156   2.603   4.208
 2567TIP3    H1 7646   2.251   2.594   4.215
 2567TIP3    H2 7647   2.131   2.544   4.137
 2568TIP3   OH2 7648   2.121   2.203   2.328
 2568TIP3    H1 7649   2.075   2.132   2.373
 2568TIP3    H2 7650   2.197   2.161   2.288
 2569TIP3   OH2 7651   2.779   2.545   3.968
 2569TIP3    H1 7652   2.788   2.475   4.032
 2569TIP3    H2 7653   2.859   2.597   3.977
 2570TIP3   OH2 7654   2.565   2.237   2.253
 2570TIP3    H1 7655   2.597   2.176   2.319
 2570TIP3    H2 7656   2.630   2.233   2.183
 2571TIP3   OH2 7657   1.773   2.072   4.344
 2571TIP3    H1 7658   1.805   1.982   4.347
 2571TIP3    H2 7659   1.698   2.069   4.285
 2572TIP3   OH2 7660   1.804   1.705   2.572
 2572TIP3    H1 7661   1.858   1.681   2.648
 2572TIP3    H2 7662   1.867   1.717   2.501
 2573TIP3   OH2 7663   2.416   2.179   4.138
 2573TIP3    H1 7664   2.385   2.203   4.051
 2573TIP3    H2 7665   2.469   2.101   4.124
 2574TIP3   OH2 7666   2.326   1.922   2.373
 2574TIP3    H1 7667   2.317   1.928   2.468
 2574TIP3    H2 7668   2.320   1.828   2.354
 2575TIP3   OH2 7669   2.896   2.161   3.748
 2575TIP3    H1 7670   2.908   2.176   3.655
 2575TIP3    H2 7671   2.833   2.228   3.775
 2576TIP3   OH2 7672   1.929   1.831   4.360
 2576TIP3    H1 7673   2.013   1.793   4.333
 2576TIP3    H2 7674   1.944   1.858   4.451
 2577TIP3   OH2 7675   1.984   1.628   2.772
 2577TIP3    H1 7676   1.960   1.603   2.861
 2577TIP3    H2 7677   2.022   1.549   2.734
 2578TIP3   OH2 7678   2.107   1.428   2.608
 2578TIP3    H1 7679   2.078   1.446   2.518
 2578TIP3    H2 7680   2.202   1.427   2.603
 2579TIP3   OH2 7681   2.777   2.089   4.104
 2579TIP3    H1 7682   2.853   2.059   4.055
 2579TIP3    H2 7683   2.771   2.029   4.178
 2580TIP3   OH2 7684   2.898   1.743   2.292
 2580TIP3    H1 7685   2.895   1.705   2.204
 2580TIP3    H2 7686   2.871   1.834   2.280
 2581TIP3   OH2 7687   2.367   1.478   4.116
 2581TIP3    H1 7688   2.384   1.392   4.076
 2581TIP3    H2 7689   2.313   1.524   4.052
 2582TIP3   OH2 7690   2.385   1.264   3.935
 2582TIP3    H1 7691   2.406   1.319   3.860
 2582TIP3    H2 7692   2.294   1.239   3.922
 2583TIP3   OH2 7693   2.993   1.767   4.172
 2583TIP3    H1 7694   3.014   1.674   4.164
 2583TIP3    H2 7695   3.062   1.812   4.123
 2584TIP3   OH2 7696   3.022   2.035   3.950
 2584TIP3    H1 7697   2.980   2.085   3.880
 2584TIP3    H2 7698   3.107   2.009   3.913
 2585TIP3   OH2 7699   2.259   1.570   4.362
 2585TIP3    H1 7700   2.190   1.508   4.385
 2585TIP3    H2 7701   2.288   1.544   4.274
 2586TIP3   OH2 7702   2.515   1.036   4.021
 2586TIP3    H1 7703   2.473   1.116   3.990
 2586TIP3    H2 7704   2.449   0.968   4.010
 2587TIP3   OH2 7705   2.629   1.525   4.219
 2587TIP3    H1 7706   2.612   1.512   4.312
 2587TIP3    H2 7707   2.544   1.509   4.177
 2588TIP3   OH2 7708   2.888   1.494   4.101
 2588TIP3    H1 7709   2.807   1.483   4.151
 2588TIP3    H2 7710   2.956   1.455   4.156
 2589TIP3   OH2 7711   3.120   1.435   4.245
 2589TIP3    H1 7712   3.135   1.340   4.248
 2589TIP3    H2 7713   3.118   1.462   4.337
 2590TIP3   OH2 7714   2.095   1.350   4.425
 2590TIP3    H1 7715   2.097   1.261   4.390
 2590TIP3    H2 7716   2.130   1.342   4.514
 2591TIP3   OH2 7717   2.584   1.034   4.288
 2591TIP3    H1 7718   2.651   0.966   4.285
 2591TIP3    H2 7719   2.551   1.039   4.198
 2592TIP3   OH2 7720   2.671   1.252   4.431
 2592TIP3    H1 7721   2.644   1.179   4.377
 2592TIP3    H2 7722   2.597   1.313   4.428
 2593TIP3   OH2 7723   1.924   2.500   2.543
 2593TIP3    H1 7724   2.013   2.480   2.514
 2593TIP3    H2 7725   1.885   2.545   2.468
 2594TIP3   OH2 7726   1.394   1.926   2.680
 2594TIP3    H1 7727   1.489   1.937   2.684
 2594TIP3    H2 7728   1.376   1.853   2.739
 2595TIP3   OH2 7729   1.287   2.470   3.163
 2595TIP3    H1 7730   1.221   2.412   3.123
 2595TIP3    H2 7731   1.334   2.414   3.224
 2596TIP3   OH2 7732   1.438   2.328   3.341
 2596TIP3    H1 7733   1.437   2.258   3.407
 2596TIP3    H2 7734   1.485   2.400   3.383
 2597TIP3   OH2 7735   3.174   2.706   3.145
 2597TIP3    H1 7736   3.185   2.741   3.234
 2597TIP3    H2 7737   3.219   2.770   3.090
 2598TIP3   OH2 7738   3.190   2.757   3.420
 2598TIP3    H1 7739   3.147   2.671   3.428
 2598TIP3    H2 7740   3.266   2.751   3.477
 2599TIP3   OH2 7741   3.057   1.953   2.622
 2599TIP3    H1 7742   3.119   2.018   2.589
 2599TIP3    H2 7743   3.105   1.910   2.693
 2600TIP3   OH2 7744   3.184   1.804   2.818
 2600TIP3    H1 7745   3.117   1.760   2.871
 2600TIP3    H2 7746   3.247   1.836   2.883
 2601TIP3   OH2 7747   3.267   2.228   3.237
 2601TIP3    H1 7748   3.233   2.153   3.187
 2601TIP3    H2 7749   3.247   2.304   3.183
 2602TIP3   OH2 7750   3.101   2.507   3.502
 2602TIP3    H1 7751   3.031   2.557   3.542
 2602TIP3    H2 7752   3.057   2.434   3.459
 2603TIP3   OH2 7753   3.109   1.730   2.465
 2603TIP3    H1 7754   3.039   1.725   2.400
 2603TIP3    H2 7755   3.089   1.808   2.517
 2604TIP3   OH2 7756   2.941   1.384   2.425
 2604TIP3    H1 7757   2.911   1.401   2.336
 2604TIP3    H2 7758   2.928   1.290   2.437
 2605TIP3   OH2 7759   2.986   1.657   2.948
 2605TIP3    H1 7760   2.995   1.564   2.929
 2605TIP3    H2 7761   2.967   1.661   3.042
 2606TIP3   OH2 7762   3.446   1.886   3.935
 2606TIP3    H1 7763   3.361   1.847   3.916
 2606TIP3    H2 7764   3.510   1.822   3.903
 2607TIP3   OH2 7765   2.910   1.115   2.445
 2607TIP3    H1 7766   2.997   1.086   2.473
 2607TIP3    H2 7767   2.870   1.036   2.408
 2608TIP3   OH2 7768   3.005   1.397   2.835
 2608TIP3    H1 7769   3.042   1.311   2.856
 2608TIP3    H2 7770   3.053   1.426   2.758
 2609TIP3   OH2 7771   3.143   1.546   3.364
 2609TIP3    H1 7772   3.221   1.568   3.314
 2609TIP3    H2 7773   3.154   1.592   3.447
 2610TIP3   OH2 7774   3.218   1.713   3.582
 2610TIP3    H1 7775   3.135   1.741   3.621
 2610TIP3    H2 7776   3.254   1.791   3.541
 2611TIP3   OH2 7777   1.833   1.422   4.365
 2611TIP3    H1 7778   1.928   1.416   4.379
 2611TIP3    H2 7779   1.799   1.341   4.403
 2612TIP3   OH2 7780   3.669   1.308   4.126
 2612TIP3    H1 7781   3.733   1.250   4.086
 2612TIP3    H2 7782   3.631   1.356   4.053
 2613TIP3   OH2 7783   3.093   1.139   2.898
 2613TIP3    H1 7784   3.140   1.119   2.979
 2613TIP3    H2 7785   3.031   1.067   2.889
 2614TIP3   OH2 7786   1.809   1.128   3.727
 2614TIP3    H1 7787   1.863   1.049   3.730
 2614TIP3    H2 7788   1.872   1.199   3.713
 2615TIP3   OH2 7789   1.585   1.406   3.784
 2615TIP3    H1 7790   1.638   1.401   3.704
 2615TIP3    H2 7791   1.590   1.498   3.810
 2616TIP3   OH2 7792   3.515   1.417   3.925
 2616TIP3    H1 7793   3.428   1.457   3.929
 2616TIP3    H2 7794   3.503   1.337   3.875
 2617TIP3   OH2 7795   3.168   1.048   2.524
 2617TIP3    H1 7796   3.214   0.988   2.466
 2617TIP3    H2 7797   3.222   1.127   2.524
 2618TIP3   OH2 7798   1.595   0.932   3.302
 2618TIP3    H1 7799   1.503   0.918   3.325
 2618TIP3    H2 7800   1.592   0.980   3.220
 2619TIP3   OH2 7801   2.726   2.608   2.796
 2619TIP3    H1 7802   2.786   2.601   2.722
 2619TIP3    H2 7803   2.765   2.675   2.852
 2620TIP3   OH2 7804   1.807   0.968   4.100
 2620TIP3    H1 7805   1.760   0.973   4.183
 2620TIP3    H2 7806   1.751   1.013   4.037
 2621TIP3   OH2 7807   1.833   2.363   4.185
 2621TIP3    H1 7808   1.758   2.383   4.129
 2621TIP3    H2 7809   1.804   2.385   4.273
 2622TIP3   OH2 7810   2.432   2.692   3.871
 2622TIP3    H1 7811   2.473   2.683   3.957
 2622TIP3    H2 7812   2.495   2.743   3.820
 2623TIP3   OH2 7813   2.621   2.844   3.740
 2623TIP3    H1 7814   2.670   2.792   3.677
 2623TIP3    H2 7815   2.688   2.892   3.789
 2624TIP3   OH2 7816   3.437   1.169   3.823
 2624TIP3    H1 7817   3.350   1.164   3.784
 2624TIP3    H2 7818   3.471   1.080   3.817
 2625TIP3   OH2 7819   1.671   2.615   3.719
 2625TIP3    H1 7820   1.605   2.683   3.732
 2625TIP3    H2 7821   1.669   2.563   3.799
 2626TIP3   OH2 7822   2.337   2.680   3.426
 2626TIP3    H1 7823   2.277   2.706   3.356
 2626TIP3    H2 7824   2.360   2.763   3.469
 2627TIP3   OH2 7825   2.624   2.663   3.502
 2627TIP3    H1 7826   2.533   2.644   3.479
 2627TIP3    H2 7827   2.656   2.717   3.430
 2628TIP3   OH2 7828   2.831   2.862   3.392
 2628TIP3    H1 7829   2.813   2.944   3.345
 2628TIP3    H2 7830   2.854   2.800   3.323
 2629TIP3   OH2 7831   1.626   2.477   3.487
 2629TIP3    H1 7832   1.651   2.533   3.560
 2629TIP3    H2 7833   1.610   2.391   3.527
 2630TIP3   OH2 7834   2.626   1.101   3.465
 2630TIP3    H1 7835   2.591   1.027   3.513
 2630TIP3    H2 7836   2.697   1.064   3.412
 2631TIP3   OH2 7837   3.143   1.007   3.355
 2631TIP3    H1 7838   3.180   1.058   3.284
 2631TIP3    H2 7839   3.051   1.031   3.356
 2632TIP3   OH2 7840   3.258   1.077   3.114
 2632TIP3    H1 7841   3.329   1.020   3.084
 2632TIP3    H2 7842   3.293   1.166   3.103
 2633TIP3   OH2 7843   1.878   0.803   3.471
 2633TIP3    H1 7844   1.789   0.769   3.471
 2633TIP3    H2 7845   1.933   0.726   3.462
 2634TIP3   OH2 7846   1.729   0.717   3.183
 2634TIP3    H1 7847   1.760   0.757   3.102
 2634TIP3    H2 7848   1.688   0.788   3.231
 2635TIP3   OH2 7849   2.352   0.840   3.351
 2635TIP3    H1 7850   2.403   0.879   3.280
 2635TIP3    H2 7851   2.397   0.869   3.431
 2636TIP3   OH2 7852   2.852   0.999   3.340
 2636TIP3    H1 7853   2.844   0.977   3.248
 2636TIP3    H2 7854   2.858   0.915   3.385
 2637TIP3   OH2 7855   2.918   0.921   2.892
 2637TIP3    H1 7856   2.826   0.950   2.889
 2637TIP3    H2 7857   2.914   0.836   2.936
 2638TIP3   OH2 7858   1.387   2.273   2.860
 2638TIP3    H1 7859   1.304   2.236   2.829
 2638TIP3    H2 7860   1.381   2.366   2.836
 2639TIP3   OH2 7861   1.833   0.833   2.954
 2639TIP3    H1 7862   1.861   0.776   2.883
 2639TIP3    H2 7863   1.898   0.903   2.956
 2640TIP3   OH2 7864   2.179   2.428   2.470
 2640TIP3    H1 7865   2.263   2.454   2.432
 2640TIP3    H2 7866   2.149   2.357   2.414
 2641TIP3   OH2 7867   2.882   2.568   2.568
 2641TIP3    H1 7868   2.877   2.473   2.560
 2641TIP3    H2 7869   2.840   2.601   2.490
 2642TIP3   OH2 7870   2.109   1.075   4.345
 2642TIP3    H1 7871   2.074   1.008   4.404
 2642TIP3    H2 7872   2.201   1.083   4.371
 2643TIP3   OH2 7873   2.358   1.081   4.467
 2643TIP3    H1 7874   2.437   1.057   4.418
 2643TIP3    H2 7875   2.350   1.012   4.533
 2644TIP3   OH2 7876   1.495   2.277   2.541
 2644TIP3    H1 7877   1.487   2.272   2.637
 2644TIP3    H2 7878   1.578   2.234   2.522
 2645TIP3   OH2 7879   3.183   1.166   4.252
 2645TIP3    H1 7880   3.199   1.137   4.342
 2645TIP3    H2 7881   3.268   1.161   4.209
 2646TIP3   OH2 7882   3.104   2.712   3.765
 2646TIP3    H1 7883   3.027   2.684   3.715
 2646TIP3    H2 7884   3.094   2.807   3.774
 2647TIP3   OH2 7885   4.378   2.092   2.502
 2647TIP3    H1 7886   4.349   2.180   2.475
 2647TIP3    H2 7887   4.307   2.034   2.474
 2648TIP3   OH2 7888   4.376   2.082   2.919
 2648TIP3    H1 7889   4.426   2.066   2.999
 2648TIP3    H2 7890   4.331   1.999   2.902
 2649TIP3   OH2 7891   3.695   1.999   3.302
 2649TIP3    H1 7892   3.717   1.917   3.347
 2649TIP3    H2 7893   3.758   2.003   3.229
 2650TIP3   OH2 7894   4.641   2.391   2.596
 2650TIP3    H1 7895   4.629   2.326   2.665
 2650TIP3    H2 7896   4.663   2.472   2.642
 2651TIP3   OH2 7897   3.671   2.384   2.970
 2651TIP3    H1 7898   3.654   2.289   2.972
 2651TIP3    H2 7899   3.765   2.390   2.951
 2652TIP3   OH2 7900   3.350   1.585   2.744
 2652TIP3    H1 7901   3.305   1.667   2.766
 2652TIP3    H2 7902   3.284   1.534   2.696
 2653TIP3   OH2 7903   3.416   1.876   2.957
 2653TIP3    H1 7904   3.468   1.800   2.983
 2653TIP3    H2 7905   3.474   1.927   2.900
 2654TIP3   OH2 7906   4.294   2.827   2.604
 2654TIP3    H1 7907   4.323   2.761   2.542
 2654TIP3    H2 7908   4.291   2.782   2.689
 2655TIP3   OH2 7909   4.180   2.304   2.928
 2655TIP3    H1 7910   4.224   2.226   2.895
 2655TIP3    H2 7911   4.250   2.360   2.960
 2656TIP3   OH2 7912   5.213   1.628   2.945
 2656TIP3    H1 7913   5.231   1.711   2.990
 2656TIP3    H2 7914   5.230   1.646   2.853
 2657TIP3   OH2 7915   4.589   1.795   2.964
 2657TIP3    H1 7916   4.624   1.710   2.990
 2657TIP3    H2 7917   4.551   1.779   2.877
 2658TIP3   OH2 7918   3.943   1.451   2.919
 2658TIP3    H1 7919   3.921   1.526   2.862
 2658TIP3    H2 7920   3.889   1.380   2.885
 2659TIP3   OH2 7921   4.640   1.556   2.559
 2659TIP3    H1 7922   4.705   1.548   2.629
 2659TIP3    H2 7923   4.689   1.591   2.484
 2660TIP3   OH2 7924   3.569   1.665   3.052
 2660TIP3    H1 7925   3.652   1.644   3.095
 2660TIP3    H2 7926   3.571   1.614   2.971
 2661TIP3   OH2 7927   3.986   1.866   2.873
 2661TIP3    H1 7928   4.080   1.851   2.875
 2661TIP3    H2 7929   3.950   1.786   2.835
 2662TIP3   OH2 7930   5.269   1.845   3.112
 2662TIP3    H1 7931   5.183   1.886   3.103
 2662TIP3    H2 7932   5.306   1.884   3.192
 2663TIP3   OH2 7933   3.923   1.457   3.375
 2663TIP3    H1 7934   3.873   1.490   3.300
 2663TIP3    H2 7935   3.867   1.473   3.451
 2664TIP3   OH2 7936   4.278   2.310   2.361
 2664TIP3    H1 7937   4.238   2.282   2.278
 2664TIP3    H2 7938   4.224   2.384   2.389
 2665TIP3   OH2 7939   4.019   2.230   3.141
 2665TIP3    H1 7940   3.967   2.302   3.175
 2665TIP3    H2 7941   4.067   2.267   3.068
 2666TIP3   OH2 7942   4.804   1.572   2.778
 2666TIP3    H1 7943   4.760   1.552   2.861
 2666TIP3    H2 7944   4.858   1.649   2.797
 2667TIP3   OH2 7945   3.816   1.560   3.142
 2667TIP3    H1 7946   3.872   1.634   3.164
 2667TIP3    H2 7947   3.860   1.517   3.068
 2668TIP3   OH2 7948   3.866   2.434   3.248
 2668TIP3    H1 7949   3.850   2.521   3.213
 2668TIP3    H2 7950   3.789   2.416   3.303
 2669TIP3   OH2 7951   3.238   2.130   2.505
 2669TIP3    H1 7952   3.206   2.139   2.415
 2669TIP3    H2 7953   3.262   2.218   2.531
 2670TIP3   OH2 7954   4.681   2.638   2.735
 2670TIP3    H1 7955   4.594   2.630   2.775
 2670TIP3    H2 7956   4.679   2.722   2.689
 2671TIP3   OH2 7957   5.010   1.510   3.108
 2671TIP3    H1 7958   4.924   1.536   3.075
 2671TIP3    H2 7959   5.072   1.542   3.042
 2672TIP3   OH2 7960   4.267   1.150   3.105
 2672TIP3    H1 7961   4.257   1.057   3.128
 2672TIP3    H2 7962   4.191   1.193   3.143
 2673TIP3   OH2 7963   4.386   2.671   2.393
 2673TIP3    H1 7964   4.438   2.592   2.382
 2673TIP3    H2 7965   4.443   2.742   2.363
 2674TIP3   OH2 7966   4.526   2.441   2.349
 2674TIP3    H1 7967   4.452   2.380   2.347
 2674TIP3    H2 7968   4.575   2.417   2.427
 2675TIP3   OH2 7969   4.912   2.530   3.081
 2675TIP3    H1 7970   4.897   2.456   3.023
 2675TIP3    H2 7971   4.896   2.607   3.026
 2676TIP3   OH2 7972   4.206   1.933   2.351
 2676TIP3    H1 7973   4.124   1.979   2.335
 2676TIP3    H2 7974   4.251   1.932   2.267
 2677TIP3   OH2 7975   4.178   1.735   2.051
 2677TIP3    H1 7976   4.243   1.789   2.097
 2677TIP3    H2 7977   4.229   1.670   2.004
 2678TIP3   OH2 7978   5.098   2.185   2.945
 2678TIP3    H1 7979   5.014   2.232   2.946
 2678TIP3    H2 7980   5.133   2.202   2.857
 2679TIP3   OH2 7981   4.562   2.022   2.312
 2679TIP3    H1 7982   4.508   2.051   2.385
 2679TIP3    H2 7983   4.645   1.998   2.352
 2680TIP3   OH2 7984   4.791   2.049   3.254
 2680TIP3    H1 7985   4.789   2.133   3.300
 2680TIP3    H2 7986   4.708   2.046   3.205
 2681TIP3   OH2 7987   3.780   1.998   2.722
 2681TIP3    H1 7988   3.742   1.941   2.655
 2681TIP3    H2 7989   3.854   1.949   2.758
 2682TIP3   OH2 7990   3.926   2.424   2.857
 2682TIP3    H1 7991   3.901   2.409   2.766
 2682TIP3    H2 7992   4.013   2.385   2.865
 2683TIP3   OH2 7993   3.889   1.994   3.097
 2683TIP3    H1 7994   3.924   1.956   3.017
 2683TIP3    H2 7995   3.939   2.074   3.110
 2684TIP3   OH2 7996   4.445   2.628   2.868
 2684TIP3    H1 7997   4.430   2.710   2.916
 2684TIP3    H2 7998   4.427   2.559   2.932
 2685TIP3   OH2 7999   4.063   2.533   3.415
 2685TIP3    H1 8000   4.004   2.590   3.463
 2685TIP3    H2 8001   4.007   2.483   3.356
 2686TIP3   OH2 8002   4.396   1.882   2.144
 2686TIP3    H1 8003   4.455   1.940   2.192
 2686TIP3    H2 8004   4.425   1.888   2.053
 2687TIP3   OH2 8005   3.835   2.086   3.535
 2687TIP3    H1 8006   3.823   2.173   3.573
 2687TIP3    H2 8007   3.776   2.083   3.460
 2688TIP3   OH2 8008   4.140   2.547   2.406
 2688TIP3    H1 8009   4.220   2.599   2.409
 2688TIP3    H2 8010   4.078   2.601   2.356
 2689TIP3   OH2 8011   3.850   2.685   3.506
 2689TIP3    H1 8012   3.825   2.700   3.414
 2689TIP3    H2 8013   3.768   2.665   3.550
 2690TIP3   OH2 8014   4.905   1.110   2.203
 2690TIP3    H1 8015   4.827   1.130   2.255
 2690TIP3    H2 8016   4.916   1.186   2.147
 2691TIP3   OH2 8017   3.654   1.842   2.522
 2691TIP3    H1 8018   3.583   1.893   2.483
 2691TIP3    H2 8019   3.620   1.753   2.527
 2692TIP3   OH2 8020   4.725   2.483   1.752
 2692TIP3    H1 8021   4.721   2.577   1.734
 2692TIP3    H2 8022   4.814   2.458   1.731
 2693TIP3   OH2 8023   3.459   2.224   3.420
 2693TIP3    H1 8024   3.391   2.241   3.356
 2693TIP3    H2 8025   3.528   2.180   3.370
 2694TIP3   OH2 8026   3.277   2.458   3.085
 2694TIP3    H1 8027   3.368   2.480   3.106
 2694TIP3    H2 8028   3.227   2.535   3.112
 2695TIP3   OH2 8029   5.147   2.892   3.148
 2695TIP3    H1 8030   5.151   2.798   3.162
 2695TIP3    H2 8031   5.067   2.919   3.193
 2696TIP3   OH2 8032   4.251   2.676   3.274
 2696TIP3    H1 8033   4.244   2.767   3.302
 2696TIP3    H2 8034   4.184   2.631   3.325
 2697TIP3   OH2 8035   4.029   2.780   2.226
 2697TIP3    H1 8036   3.980   2.759   2.147
 2697TIP3    H2 8037   3.993   2.863   2.257
 2698TIP3   OH2 8038   3.464   2.632   2.605
 2698TIP3    H1 8039   3.508   2.623   2.689
 2698TIP3    H2 8040   3.415   2.551   2.595
 2699TIP3   OH2 8041   4.230   2.707   1.854
 2699TIP3    H1 8042   4.281   2.634   1.819
 2699TIP3    H2 8043   4.263   2.720   1.942
 2700TIP3   OH2 8044   4.282   2.750   2.124
 2700TIP3    H1 8045   4.196   2.755   2.165
 2700TIP3    H2 8046   4.340   2.715   2.192
 2701TIP3   OH2 8047   5.036   2.008   3.420
 2701TIP3    H1 8048   4.953   2.020   3.374
 2701TIP3    H2 8049   5.054   1.914   3.413
 2702TIP3   OH2 8050   3.654   2.428   3.424
 2702TIP3    H1 8051   3.697   2.427   3.509
 2702TIP3    H2 8052   3.575   2.375   3.436
 2703TIP3   OH2 8053   4.030   1.242   3.230
 2703TIP3    H1 8054   3.947   1.209   3.196
 2703TIP3    H2 8055   4.008   1.323   3.276
 2704TIP3   OH2 8056   4.571   1.359   3.428
 2704TIP3    H1 8057   4.641   1.337   3.490
 2704TIP3    H2 8058   4.490   1.344   3.476
 2705TIP3   OH2 8059   4.793   1.783   3.341
 2705TIP3    H1 8060   4.753   1.780   3.428
 2705TIP3    H2 8061   4.779   1.873   3.312
 2706TIP3   OH2 8062   4.477   1.863   1.882
 2706TIP3    H1 8063   4.428   1.868   1.800
 2706TIP3    H2 8064   4.557   1.912   1.866
 2707TIP3   OH2 8065   4.186   1.283   2.198
 2707TIP3    H1 8066   4.150   1.290   2.286
 2707TIP3    H2 8067   4.147   1.203   2.163
 2708TIP3   OH2 8068   3.969   1.770   3.238
 2708TIP3    H1 8069   3.924   1.777   3.322
 2708TIP3    H2 8070   3.948   1.851   3.192
 2709TIP3   OH2 8071   3.847   1.654   2.761
 2709TIP3    H1 8072   3.757   1.630   2.784
 2709TIP3    H2 8073   3.859   1.621   2.672
 2710TIP3   OH2 8074   4.332   1.729   2.486
 2710TIP3    H1 8075   4.284   1.802   2.446
 2710TIP3    H2 8076   4.389   1.697   2.416
 2711TIP3   OH2 8077   4.518   1.994   3.559
 2711TIP3    H1 8078   4.491   1.927   3.621
 2711TIP3    H2 8079   4.609   2.012   3.580
 2712TIP3   OH2 8080   4.495   1.742   2.712
 2712TIP3    H1 8081   4.428   1.767   2.648
 2712TIP3    H2 8082   4.541   1.669   2.672
 2713TIP3   OH2 8083   3.801   1.788   3.458
 2713TIP3    H1 8084   3.830   1.845   3.529
 2713TIP3    H2 8085   3.782   1.704   3.500
 2714TIP3   OH2 8086   3.845   1.266   2.172
 2714TIP3    H1 8087   3.834   1.269   2.267
 2714TIP3    H2 8088   3.771   1.315   2.137
 2715TIP3   OH2 8089   3.388   1.303   3.044
 2715TIP3    H1 8090   3.464   1.339   3.089
 2715TIP3    H2 8091   3.419   1.285   2.955
 2716TIP3   OH2 8092   3.308   1.290   2.542
 2716TIP3    H1 8093   3.354   1.327   2.466
 2716TIP3    H2 8094   3.242   1.355   2.564
 2717TIP3   OH2 8095   4.535   1.995   3.138
 2717TIP3    H1 8096   4.560   1.928   3.074
 2717TIP3    H2 8097   4.491   1.946   3.208
 2718TIP3   OH2 8098   4.211   1.443   2.810
 2718TIP3    H1 8099   4.132   1.443   2.864
 2718TIP3    H2 8100   4.283   1.437   2.874
 2719TIP3   OH2 8101   3.609   1.527   2.819
 2719TIP3    H1 8102   3.521   1.534   2.782
 2719TIP3    H2 8103   3.636   1.438   2.799
 2720TIP3   OH2 8104   3.869   1.529   2.519
 2720TIP3    H1 8105   3.963   1.541   2.505
 2720TIP3    H2 8106   3.829   1.550   2.434
 2721TIP3   OH2 8107   4.663   1.532   3.018
 2721TIP3    H1 8108   4.643   1.549   3.110
 2721TIP3    H2 8109   4.594   1.472   2.990
 2722TIP3   OH2 8110   3.751   1.562   2.277
 2722TIP3    H1 8111   3.684   1.516   2.226
 2722TIP3    H2 8112   3.807   1.603   2.212
 2723TIP3   OH2 8113   4.861   3.235   3.241
 2723TIP3    H1 8114   4.856   3.257   3.148
 2723TIP3    H2 8115   4.938   3.281   3.273
 2724TIP3   OH2 8116   3.800   2.330   3.663
 2724TIP3    H1 8117   3.883   2.359   3.702
 2724TIP3    H2 8118   3.736   2.339   3.733
 2725TIP3   OH2 8119   4.260   1.811   2.917
 2725TIP3    H1 8120   4.327   1.764   2.867
 2725TIP3    H2 8121   4.261   1.769   3.003
 2726TIP3   OH2 8122   3.755   1.279   2.797
 2726TIP3    H1 8123   3.726   1.204   2.849
 2726TIP3    H2 8124   3.770   1.244   2.709
 2727TIP3   OH2 8125   4.236   1.711   3.184
 2727TIP3    H1 8126   4.149   1.744   3.206
 2727TIP3    H2 8127   4.296   1.765   3.237
 2728TIP3   OH2 8128   3.973   2.076   2.302
 2728TIP3    H1 8129   3.902   2.016   2.282
 2728TIP3    H2 8130   3.948   2.116   2.386
 2729TIP3   OH2 8131   4.862   2.324   2.903
 2729TIP3    H1 8132   4.897   2.374   2.830
 2729TIP3    H2 8133   4.781   2.285   2.870
 2730TIP3   OH2 8134   4.438   1.386   2.199
 2730TIP3    H1 8135   4.344   1.364   2.195
 2730TIP3    H2 8136   4.439   1.481   2.210
 2731TIP3   OH2 8137   4.372   2.407   3.314
 2731TIP3    H1 8138   4.427   2.402   3.392
 2731TIP3    H2 8139   4.334   2.495   3.316
 2732TIP3   OH2 8140   4.494   1.650   2.269
 2732TIP3    H1 8141   4.589   1.656   2.279
 2732TIP3    H2 8142   4.470   1.728   2.218
 2733TIP3   OH2 8143   3.670   2.102   2.954
 2733TIP3    H1 8144   3.696   2.078   2.865
 2733TIP3    H2 8145   3.738   2.065   3.010
 2734TIP3   OH2 8146   4.121   2.235   2.138
 2734TIP3    H1 8147   4.074   2.318   2.137
 2734TIP3    H2 8148   4.066   2.178   2.193
 2735TIP3   OH2 8149   3.492   2.056   3.675
 2735TIP3    H1 8150   3.559   2.061   3.744
 2735TIP3    H2 8151   3.495   1.965   3.645
 2736TIP3   OH2 8152   4.285   2.148   3.600
 2736TIP3    H1 8153   4.219   2.089   3.563
 2736TIP3    H2 8154   4.369   2.110   3.571
 2737TIP3   OH2 8155   4.521   2.688   3.198
 2737TIP3    H1 8156   4.426   2.680   3.203
 2737TIP3    H2 8157   4.547   2.730   3.280
 2738TIP3   OH2 8158   4.911   1.738   2.089
 2738TIP3    H1 8159   4.856   1.692   2.027
 2738TIP3    H2 8160   4.916   1.828   2.056
 2739TIP3   OH2 8161   5.158   2.607   3.174
 2739TIP3    H1 8162   5.063   2.596   3.166
 2739TIP3    H2 8163   5.192   2.579   3.088
 2740TIP3   OH2 8164   4.648   2.555   2.021
 2740TIP3    H1 8165   4.618   2.487   2.081
 2740TIP3    H2 8166   4.664   2.508   1.938
 2741TIP3   OH2 8167   4.630   2.191   2.802
 2741TIP3    H1 8168   4.540   2.169   2.826
 2741TIP3    H2 8169   4.664   2.110   2.763
 2742TIP3   OH2 8170   3.779   2.425   2.612
 2742TIP3    H1 8171   3.780   2.502   2.556
 2742TIP3    H2 8172   3.687   2.411   2.634
 2743TIP3   OH2 8173   3.339   1.715   2.312
 2743TIP3    H1 8174   3.382   1.800   2.325
 2743TIP3    H2 8175   3.259   1.720   2.363
 2744TIP3   OH2 8176   3.880   2.180   2.533
 2744TIP3    H1 8177   3.856   2.269   2.558
 2744TIP3    H2 8178   3.845   2.126   2.604
 2745TIP3   OH2 8179   4.062   2.748   3.069
 2745TIP3    H1 8180   4.097   2.821   3.019
 2745TIP3    H2 8181   4.137   2.716   3.119
 2746TIP3   OH2 8182   3.700   2.651   2.463
 2746TIP3    H1 8183   3.612   2.657   2.501
 2746TIP3    H2 8184   3.733   2.741   2.467
 2747TIP3   OH2 8185   4.414   2.407   3.040
 2747TIP3    H1 8186   4.402   2.403   3.135
 2747TIP3    H2 8187   4.497   2.360   3.025
 2748TIP3   OH2 8188   4.409   2.290   1.906
 2748TIP3    H1 8189   4.459   2.261   1.982
 2748TIP3    H2 8190   4.324   2.248   1.915
 2749TIP3   OH2 8191   4.672   2.910   3.077
 2749TIP3    H1 8192   4.598   2.850   3.089
 2749TIP3    H2 8193   4.644   2.968   3.006
 2750TIP3   OH2 8194   4.727   2.758   1.717
 2750TIP3    H1 8195   4.756   2.824   1.655
 2750TIP3    H2 8196   4.653   2.798   1.763
 2751TIP3   OH2 8197   3.749   1.536   3.580
 2751TIP3    H1 8198   3.654   1.545   3.584
 2751TIP3    H2 8199   3.772   1.480   3.655
 2752TIP3   OH2 8200   4.583   2.201   2.099
 2752TIP3    H1 8201   4.567   2.151   2.178
 2752TIP3    H2 8202   4.678   2.210   2.094
 2753TIP3   OH2 8203   3.493   2.649   3.218
 2753TIP3    H1 8204   3.558   2.595   3.262
 2753TIP3    H2 8205   3.504   2.736   3.255
 2754TIP3   OH2 8206   3.760   2.261   1.924
 2754TIP3    H1 8207   3.769   2.170   1.897
 2754TIP3    H2 8208   3.740   2.256   2.018
 2755TIP3   OH2 8209   3.701   2.280   2.194
 2755TIP3    H1 8210   3.767   2.251   2.257
 2755TIP3    H2 8211   3.703   2.376   2.200
 2756TIP3   OH2 8212   3.440   1.966   2.400
 2756TIP3    H1 8213   3.372   2.010   2.452
 2756TIP3    H2 8214   3.453   2.024   2.324
 2757TIP3   OH2 8215   4.602   1.591   3.279
 2757TIP3    H1 8216   4.679   1.637   3.312
 2757TIP3    H2 8217   4.594   1.514   3.336
 2758TIP3   OH2 8218   4.492   1.338   2.468
 2758TIP3    H1 8219   4.471   1.356   2.377
 2758TIP3    H2 8220   4.535   1.418   2.499
 2759TIP3   OH2 8221   3.979   2.465   2.135
 2759TIP3    H1 8222   3.893   2.488   2.171
 2759TIP3    H2 8223   4.000   2.537   2.076
 2760TIP3   OH2 8224   4.149   1.535   2.555
 2760TIP3    H1 8225   4.210   1.605   2.530
 2760TIP3    H2 8226   4.170   1.517   2.647
 2761TIP3   OH2 8227   4.439   1.829   3.337
 2761TIP3    H1 8228   4.465   1.876   3.416
 2761TIP3    H2 8229   4.491   1.749   3.338
 2762TIP3   OH2 8230   4.307   1.235   2.647
 2762TIP3    H1 8231   4.282   1.312   2.698
 2762TIP3    H2 8232   4.375   1.266   2.587
 2763TIP3   OH2 8233   3.728   2.552   2.209
 2763TIP3    H1 8234   3.706   2.623   2.149
 2763TIP3    H2 8235   3.716   2.589   2.296
 2764TIP3   OH2 8236   3.825   1.258   2.451
 2764TIP3    H1 8237   3.813   1.349   2.480
 2764TIP3    H2 8238   3.919   1.244   2.455
 2765TIP3   OH2 8239   5.060   1.738   3.329
 2765TIP3    H1 8240   4.964   1.740   3.338
 2765TIP3    H2 8241   5.076   1.699   3.244
 2766TIP3   OH2 8242   4.721   1.931   2.712
 2766TIP3    H1 8243   4.643   1.877   2.724
 2766TIP3    H2 8244   4.787   1.891   2.768
 2767TIP3   OH2 8245   3.451   2.151   2.188
 2767TIP3    H1 8246   3.522   2.215   2.195
 2767TIP3    H2 8247   3.485   2.084   2.129
 2768TIP3   OH2 8248   3.379   1.443   2.325
 2768TIP3    H1 8249   3.381   1.538   2.333
 2768TIP3    H2 8250   3.349   1.426   2.236
 2769TIP3   OH2 8251   4.700   2.904   2.651
 2769TIP3    H1 8252   4.658   2.955   2.582
 2769TIP3    H2 8253   4.794   2.917   2.638
 2770TIP3   OH2 8254   3.770   1.155   3.187
 2770TIP3    H1 8255   3.741   1.124   3.101
 2770TIP3    H2 8256   3.759   1.079   3.245
 2771TIP3   OH2 8257   3.293   2.405   2.577
 2771TIP3    H1 8258   3.248   2.443   2.652
 2771TIP3    H2 8259   3.253   2.447   2.501
 2772TIP3   OH2 8260   3.474   2.939   3.641
 2772TIP3    H1 8261   3.553   2.940   3.694
 2772TIP3    H2 8262   3.449   2.847   3.637
 2773TIP3   OH2 8263   3.939   2.871   3.694
 2773TIP3    H1 8264   4.034   2.870   3.703
 2773TIP3    H2 8265   3.921   2.807   3.626
 2774TIP3   OH2 8266   3.919   2.455   1.811
 2774TIP3    H1 8267   3.870   2.387   1.857
 2774TIP3    H2 8268   3.993   2.409   1.772
 2775TIP3   OH2 8269   4.578   2.798   3.443
 2775TIP3    H1 8270   4.589   2.729   3.508
 2775TIP3    H2 8271   4.652   2.857   3.457
 2776TIP3   OH2 8272   4.360   2.498   1.734
 2776TIP3    H1 8273   4.391   2.433   1.797
 2776TIP3    H2 8274   4.421   2.491   1.661
 2777TIP3   OH2 8275   3.606   1.969   2.063
 2777TIP3    H1 8276   3.665   1.943   2.134
 2777TIP3    H2 8277   3.663   1.974   1.986
 2778TIP3   OH2 8278   4.213   2.424   3.620
 2778TIP3    H1 8279   4.172   2.448   3.537
 2778TIP3    H2 8280   4.251   2.337   3.604
 2779TIP3   OH2 8281   4.151   2.177   1.872
 2779TIP3    H1 8282   4.129   2.189   1.964
 2779TIP3    H2 8283   4.137   2.084   1.856
 2780TIP3   OH2 8284   4.687   2.463   3.229
 2780TIP3    H1 8285   4.766   2.492   3.183
 2780TIP3    H2 8286   4.624   2.533   3.216
 2781TIP3   OH2 8287   3.722   2.047   3.830
 2781TIP3    H1 8288   3.804   2.052   3.781
 2781TIP3    H2 8289   3.741   2.091   3.913
 2782TIP3   OH2 8290   3.780   1.888   2.265
 2782TIP3    H1 8291   3.746   1.854   2.347
 2782TIP3    H2 8292   3.819   1.813   2.222
 2783TIP3   OH2 8293   4.077   1.959   3.498
 2783TIP3    H1 8294   3.997   2.009   3.511
 2783TIP3    H2 8295   4.113   1.992   3.416
 2784TIP3   OH2 8296   3.908   1.701   2.104
 2784TIP3    H1 8297   3.878   1.715   2.014
 2784TIP3    H2 8298   4.004   1.708   2.098
 2785TIP3   OH2 8299   4.569   2.347   3.595
 2785TIP3    H1 8300   4.639   2.310   3.541
 2785TIP3    H2 8301   4.567   2.292   3.673
 2786TIP3   OH2 8302   4.695   1.997   1.773
 2786TIP3    H1 8303   4.680   1.956   1.687
 2786TIP3    H2 8304   4.670   2.089   1.760
 2787TIP3   OH2 8305   4.177   1.734   3.615
 2787TIP3    H1 8306   4.182   1.663   3.552
 2787TIP3    H2 8307   4.145   1.809   3.565
 2788TIP3   OH2 8308   4.184   1.537   3.411
 2788TIP3    H1 8309   4.212   1.576   3.328
 2788TIP3    H2 8310   4.093   1.513   3.396
 2789TIP3   OH2 8311   4.196   2.077   3.286
 2789TIP3    H1 8312   4.283   2.113   3.272
 2789TIP3    H2 8313   4.138   2.134   3.236
 2790TIP3   OH2 8314   4.784   2.034   3.659
 2790TIP3    H1 8315   4.835   1.954   3.664
 2790TIP3    H2 8316   4.849   2.104   3.649
 2791TIP3   OH2 8317   4.815   2.291   3.396
 2791TIP3    H1 8318   4.760   2.351   3.346
 2791TIP3    H2 8319   4.904   2.309   3.365
 2792TIP3   OH2 8320   4.057   1.824   3.853
 2792TIP3    H1 8321   3.985   1.764   3.871
 2792TIP3    H2 8322   4.088   1.799   3.766
 2793TIP3   OH2 8323   4.306   1.306   3.509
 2793TIP3    H1 8324   4.266   1.386   3.476
 2793TIP3    H2 8325   4.239   1.238   3.496
 2794TIP3   OH2 8326   4.434   1.782   3.713
 2794TIP3    H1 8327   4.425   1.771   3.807
 2794TIP3    H2 8328   4.348   1.760   3.677
 2795TIP3   OH2 8329   4.678   1.735   3.580
 2795TIP3    H1 8330   4.600   1.737   3.636
 2795TIP3    H2 8331   4.750   1.715   3.641
 2796TIP3   OH2 8332   4.914   1.701   3.731
 2796TIP3    H1 8333   4.927   1.607   3.739
 2796TIP3    H2 8334   4.908   1.732   3.822
 2797TIP3   OH2 8335   3.879   1.612   3.918
 2797TIP3    H1 8336   3.885   1.524   3.881
 2797TIP3    H2 8337   3.920   1.605   4.004
 2798TIP3   OH2 8338   4.374   1.287   3.774
 2798TIP3    H1 8339   4.443   1.221   3.768
 2798TIP3    H2 8340   4.343   1.298   3.685
 2799TIP3   OH2 8341   4.466   1.503   3.920
 2799TIP3    H1 8342   4.436   1.432   3.863
 2799TIP3    H2 8343   4.394   1.566   3.919
 2800TIP3   OH2 8344   3.721   2.761   2.026
 2800TIP3    H1 8345   3.809   2.737   1.997
 2800TIP3    H2 8346   3.682   2.805   1.950
 2801TIP3   OH2 8347   3.178   2.129   2.230
 2801TIP3    H1 8348   3.270   2.147   2.210
 2801TIP3    H2 8349   3.150   2.067   2.162
 2802TIP3   OH2 8350   3.088   2.724   2.658
 2802TIP3    H1 8351   3.023   2.670   2.615
 2802TIP3    H2 8352   3.135   2.664   2.717
 2803TIP3   OH2 8353   3.236   2.559   2.823
 2803TIP3    H1 8354   3.226   2.494   2.892
 2803TIP3    H2 8355   3.288   2.629   2.862
 2804TIP3   OH2 8356   4.971   2.956   2.644
 2804TIP3    H1 8357   4.987   2.985   2.734
 2804TIP3    H2 8358   5.021   3.018   2.590
 2805TIP3   OH2 8359   4.985   2.992   2.924
 2805TIP3    H1 8360   4.939   2.908   2.921
 2805TIP3    H2 8361   5.056   2.979   2.986
 2806TIP3   OH2 8362   5.041   2.685   3.495
 2806TIP3    H1 8363   4.968   2.696   3.557
 2806TIP3    H2 8364   5.086   2.770   3.497
 2807TIP3   OH2 8365   4.863   2.202   2.103
 2807TIP3    H1 8366   4.920   2.274   2.074
 2807TIP3    H2 8367   4.908   2.165   2.179
 2808TIP3   OH2 8368   4.992   2.060   2.305
 2808TIP3    H1 8369   4.924   2.024   2.362
 2808TIP3    H2 8370   5.056   2.098   2.365
 2809TIP3   OH2 8371   5.039   2.464   2.739
 2809TIP3    H1 8372   5.091   2.397   2.694
 2809TIP3    H2 8373   5.039   2.539   2.679
 2810TIP3   OH2 8374   4.847   2.750   2.930
 2810TIP3    H1 8375   4.779   2.795   2.981
 2810TIP3    H2 8376   4.799   2.710   2.858
 2811TIP3   OH2 8377   4.903   1.977   1.951
 2811TIP3    H1 8378   4.831   1.977   1.887
 2811TIP3    H2 8379   4.887   2.055   2.004
 2812TIP3   OH2 8380   4.763   1.625   1.889
 2812TIP3    H1 8381   4.715   1.667   1.817
 2812TIP3    H2 8382   4.751   1.532   1.875
 2813TIP3   OH2 8383   4.789   1.924   2.443
 2813TIP3    H1 8384   4.793   1.829   2.429
 2813TIP3    H2 8385   4.770   1.934   2.536
 2814TIP3   OH2 8386   3.432   1.951   3.220
 2814TIP3    H1 8387   3.414   1.941   3.127
 2814TIP3    H2 8388   3.524   1.979   3.224
 2815TIP3   OH2 8389   5.072   2.342   3.305
 2815TIP3    H1 8390   5.139   2.276   3.286
 2815TIP3    H2 8391   5.092   2.414   3.244
 2816TIP3   OH2 8392   5.247   2.129   3.294
 2816TIP3    H1 8393   5.174   2.089   3.341
 2816TIP3    H2 8394   5.323   2.074   3.316
 2817TIP3   OH2 8395   4.719   1.354   1.861
 2817TIP3    H1 8396   4.781   1.330   1.930
 2817TIP3    H2 8397   4.636   1.318   1.891
 2818TIP3   OH2 8398   4.784   1.646   2.329
 2818TIP3    H1 8399   4.829   1.562   2.342
 2818TIP3    H2 8400   4.826   1.685   2.253
 2819TIP3   OH2 8401   4.936   1.807   2.852
 2819TIP3    H1 8402   5.017   1.825   2.803
 2819TIP3    H2 8403   4.949   1.848   2.937
 2820TIP3   OH2 8404   5.011   1.959   3.078
 2820TIP3    H1 8405   4.938   1.988   3.133
 2820TIP3    H2 8406   5.042   2.038   3.035
 2821TIP3   OH2 8407   3.610   1.671   3.860
 2821TIP3    H1 8408   3.705   1.671   3.873
 2821TIP3    H2 8409   3.581   1.588   3.898
 2822TIP3   OH2 8410   5.472   1.557   3.620
 2822TIP3    H1 8411   5.536   1.500   3.578
 2822TIP3    H2 8412   5.434   1.608   3.549
 2823TIP3   OH2 8413   4.900   1.395   2.379
 2823TIP3    H1 8414   4.945   1.379   2.462
 2823TIP3    H2 8415   4.836   1.324   2.372
 2824TIP3   OH2 8416   3.604   1.377   3.206
 2824TIP3    H1 8417   3.657   1.298   3.210
 2824TIP3    H2 8418   3.667   1.447   3.187
 2825TIP3   OH2 8419   3.383   1.650   3.267
 2825TIP3    H1 8420   3.436   1.627   3.190
 2825TIP3    H2 8421   3.393   1.745   3.274
 2826TIP3   OH2 8422   5.323   1.678   3.427
 2826TIP3    H1 8423   5.245   1.719   3.463
 2826TIP3    H2 8424   5.289   1.609   3.370
 2827TIP3   OH2 8425   4.948   1.310   2.019
 2827TIP3    H1 8426   4.996   1.250   1.962
 2827TIP3    H2 8427   5.002   1.389   2.021
 2828TIP3   OH2 8428   3.372   1.163   2.777
 2828TIP3    H1 8429   3.284   1.145   2.810
 2828TIP3    H2 8430   3.357   1.212   2.696
 2829TIP3   OH2 8431   4.530   2.869   2.283
 2829TIP3    H1 8432   4.587   2.860   2.207
 2829TIP3    H2 8433   4.570   2.938   2.335
 2830TIP3   OH2 8434   3.597   1.207   3.590
 2830TIP3    H1 8435   3.545   1.201   3.670
 2830TIP3    H2 8436   3.542   1.256   3.529
 2831TIP3   OH2 8437   3.622   2.635   3.668
 2831TIP3    H1 8438   3.527   2.631   3.658
 2831TIP3    H2 8439   3.635   2.679   3.752
 2832TIP3   OH2 8440   3.834   2.711   3.220
 2832TIP3    H1 8441   3.782   2.785   3.188
 2832TIP3    H2 8442   3.919   2.720   3.176
 2833TIP3   OH2 8443   4.236   2.943   3.351
 2833TIP3    H1 8444   4.274   2.937   3.439
 2833TIP3    H2 8445   4.299   2.996   3.302
 2834TIP3   OH2 8446   4.428   3.094   3.224
 2834TIP3    H1 8447   4.491   3.043   3.173
 2834TIP3    H2 8448   4.481   3.150   3.281
 2835TIP3   OH2 8449   5.230   1.435   3.310
 2835TIP3    H1 8450   5.145   1.435   3.266
 2835TIP3    H2 8451   5.259   1.344   3.305
 2836TIP3   OH2 8452   3.491   2.948   3.263
 2836TIP3    H1 8453   3.400   2.966   3.238
 2836TIP3    H2 8454   3.514   3.016   3.326
 2837TIP3   OH2 8455   3.723   2.939   3.112
 2837TIP3    H1 8456   3.640   2.947   3.158
 2837TIP3    H2 8457   3.704   2.965   3.022
 2838TIP3   OH2 8458   4.142   2.955   2.903
 2838TIP3    H1 8459   4.072   2.969   2.840
 2838TIP3    H2 8460   4.155   3.041   2.945
 2839TIP3   OH2 8461   4.407   2.890   2.951
 2839TIP3    H1 8462   4.316   2.911   2.933
 2839TIP3    H2 8463   4.457   2.959   2.907
 2840TIP3   OH2 8464   4.607   3.067   2.854
 2840TIP3    H1 8465   4.606   3.155   2.817
 2840TIP3    H2 8466   4.637   3.011   2.783
 2841TIP3   OH2 8467   3.408   2.737   2.968
 2841TIP3    H1 8468   3.427   2.713   3.058
 2841TIP3    H2 8469   3.481   2.701   2.917
 2842TIP3   OH2 8470   3.612   2.615   2.838
 2842TIP3    H1 8471   3.624   2.534   2.887
 2842TIP3    H2 8472   3.699   2.657   2.840
 2843TIP3   OH2 8473   3.879   2.702   2.862
 2843TIP3    H1 8474   3.900   2.610   2.847
 2843TIP3    H2 8475   3.932   2.726   2.938
 2844TIP3   OH2 8476   4.440   1.356   2.952
 2844TIP3    H1 8477   4.401   1.284   3.000
 2844TIP3    H2 8478   4.508   1.315   2.898
 2845TIP3   OH2 8479   4.942   1.261   2.834
 2845TIP3    H1 8480   4.980   1.310   2.762
 2845TIP3    H2 8481   4.850   1.288   2.836
 2846TIP3   OH2 8482   5.060   1.337   2.598
 2846TIP3    H1 8483   5.131   1.279   2.568
 2846TIP3    H2 8484   5.095   1.425   2.587
 2847TIP3   OH2 8485   3.683   1.055   2.945
 2847TIP3    H1 8486   3.593   1.023   2.952
 2847TIP3    H2 8487   3.735   0.976   2.935
 2848TIP3   OH2 8488   3.518   0.966   2.627
 2848TIP3    H1 8489   3.539   1.012   2.546
 2848TIP3    H2 8490   3.473   1.032   2.680
 2849TIP3   OH2 8491   4.160   1.090   2.842
 2849TIP3    H1 8492   4.205   1.139   2.773
 2849TIP3    H2 8493   4.198   1.122   2.924
 2850TIP3   OH2 8494   4.653   1.242   2.817
 2850TIP3    H1 8495   4.660   1.209   2.727
 2850TIP3    H2 8496   4.658   1.163   2.871
 2851TIP3   OH2 8497   4.712   1.186   2.386
 2851TIP3    H1 8498   4.632   1.233   2.408
 2851TIP3    H2 8499   4.700   1.099   2.424
 2852TIP3   OH2 8500   3.178   2.529   2.361
 2852TIP3    H1 8501   3.095   2.492   2.331
 2852TIP3    H2 8502   3.177   2.619   2.329
 2853TIP3   OH2 8503   3.602   1.094   2.394
 2853TIP3    H1 8504   3.623   1.039   2.318
 2853TIP3    H2 8505   3.682   1.145   2.409
 2854TIP3   OH2 8506   4.099   1.284   2.460
 2854TIP3    H1 8507   4.158   1.234   2.517
 2854TIP3    H2 8508   4.113   1.375   2.487
 2855TIP3   OH2 8509   3.974   2.681   1.954
 2855TIP3    H1 8510   4.058   2.708   1.917
 2855TIP3    H2 8511   3.945   2.609   1.898
 2856TIP3   OH2 8512   4.683   2.824   2.054
 2856TIP3    H1 8513   4.676   2.729   2.047
 2856TIP3    H2 8514   4.638   2.857   1.977
 2857TIP3   OH2 8515   3.900   1.339   3.831
 2857TIP3    H1 8516   3.867   1.272   3.890
 2857TIP3    H2 8517   3.992   1.348   3.853
 2858TIP3   OH2 8518   4.150   1.342   3.949
 2858TIP3    H1 8519   4.229   1.320   3.899
 2858TIP3    H2 8520   4.144   1.273   4.016
 2859TIP3   OH2 8521   3.280   2.526   2.012
 2859TIP3    H1 8522   3.277   2.525   2.108
 2859TIP3    H2 8523   3.361   2.479   1.990
 2860TIP3   OH2 8524   4.977   1.429   3.740
 2860TIP3    H1 8525   4.993   1.401   3.830
 2860TIP3    H2 8526   5.062   1.424   3.698
 2861TIP3   OH2 8527   4.896   2.961   3.241
 2861TIP3    H1 8528   4.820   2.933   3.191
 2861TIP3    H2 8529   4.884   3.056   3.251
 2862TIP3   OH2 8530   6.170   2.342   1.988
 2862TIP3    H1 8531   6.136   2.430   1.970
 2862TIP3    H2 8532   6.103   2.283   1.955
 2863TIP3   OH2 8533   6.172   2.341   2.406
 2863TIP3    H1 8534   6.221   2.324   2.486
 2863TIP3    H2 8535   6.128   2.259   2.387
 2864TIP3   OH2 8536   5.470   2.210   2.754
 2864TIP3    H1 8537   5.506   2.156   2.824
 2864TIP3    H2 8538   5.547   2.237   2.703
 2865TIP3   OH2 8539   6.436   2.648   2.076
 2865TIP3    H1 8540   6.423   2.582   2.145
 2865TIP3    H2 8541   6.457   2.728   2.124
 2866TIP3   OH2 8542   5.461   2.631   2.444
 2866TIP3    H1 8543   5.443   2.537   2.452
 2866TIP3    H2 8544   5.556   2.637   2.434
 2867TIP3   OH2 8545   5.144   1.834   2.230
 2867TIP3    H1 8546   5.106   1.918   2.254
 2867TIP3    H2 8547   5.073   1.786   2.188
 2868TIP3   OH2 8548   5.222   2.145   2.445
 2868TIP3    H1 8549   5.272   2.068   2.471
 2868TIP3    H2 8550   5.289   2.209   2.419
 2869TIP3   OH2 8551   6.092   3.081   2.090
 2869TIP3    H1 8552   6.119   3.013   2.027
 2869TIP3    H2 8553   6.089   3.036   2.174
 2870TIP3   OH2 8554   5.976   2.564   2.415
 2870TIP3    H1 8555   6.020   2.486   2.382
 2870TIP3    H2 8556   6.048   2.620   2.446
 2871TIP3   OH2 8557   7.007   1.881   2.430
 2871TIP3    H1 8558   7.023   1.966   2.470
 2871TIP3    H2 8559   7.040   1.890   2.341
 2872TIP3   OH2 8560   6.381   2.053   2.449
 2872TIP3    H1 8561   6.417   1.969   2.476
 2872TIP3    H2 8562   6.345   2.037   2.361
 2873TIP3   OH2 8563   5.738   1.708   2.408
 2873TIP3    H1 8564   5.718   1.782   2.351
 2873TIP3    H2 8565   5.681   1.638   2.376
 2874TIP3   OH2 8566   6.433   1.812   2.052
 2874TIP3    H1 8567   6.498   1.802   2.121
 2874TIP3    H2 8568   6.482   1.846   1.977
 2875TIP3   OH2 8569   5.361   1.924   2.539
 2875TIP3    H1 8570   5.445   1.908   2.583
 2875TIP3    H2 8571   5.367   1.873   2.458
 2876TIP3   OH2 8572   5.787   2.123   2.350
 2876TIP3    H1 8573   5.881   2.107   2.357
 2876TIP3    H2 8574   5.751   2.041   2.315
 2877TIP3   OH2 8575   7.060   2.100   2.599
 2877TIP3    H1 8576   6.972   2.139   2.591
 2877TIP3    H2 8577   7.097   2.141   2.678
 2878TIP3   OH2 8578   5.717   1.717   2.862
 2878TIP3    H1 8579   5.667   1.754   2.790
 2878TIP3    H2 8580   5.663   1.734   2.940
 2879TIP3   OH2 8581   6.036   2.553   1.870
 2879TIP3    H1 8582   6.013   2.538   1.779
 2879TIP3    H2 8583   5.995   2.637   1.892
 2880TIP3   OH2 8584   5.816   2.489   2.628
 2880TIP3    H1 8585   5.762   2.560   2.662
 2880TIP3    H2 8586   5.864   2.529   2.555
 2881TIP3   OH2 8587   6.602   1.824   2.268
 2881TIP3    H1 8588   6.556   1.811   2.351
 2881TIP3    H2 8589   6.657   1.901   2.283
 2882TIP3   OH2 8590   5.610   1.821   2.629
 2882TIP3    H1 8591   5.665   1.896   2.652
 2882TIP3    H2 8592   5.656   1.779   2.557
 2883TIP3   OH2 8593   5.658   2.691   2.733
 2883TIP3    H1 8594   5.644   2.780   2.703
 2883TIP3    H2 8595   5.581   2.671   2.786
 2884TIP3   OH2 8596   5.036   2.392   1.986
 2884TIP3    H1 8597   4.999   2.411   1.899
 2884TIP3    H2 8598   5.059   2.478   2.022
 2885TIP3   OH2 8599   6.476   2.894   2.221
 2885TIP3    H1 8600   6.390   2.885   2.261
 2885TIP3    H2 8601   6.474   2.978   2.176
 2886TIP3   OH2 8602   6.812   1.767   2.598
 2886TIP3    H1 8603   6.727   1.795   2.566
 2886TIP3    H2 8604   6.874   1.797   2.532
 2887TIP3   OH2 8605   6.059   1.455   2.568
 2887TIP3    H1 8606   6.093   1.390   2.628
 2887TIP3    H2 8607   5.980   1.489   2.611
 2888TIP3   OH2 8608   6.181   2.921   1.877
 2888TIP3    H1 8609   6.232   2.841   1.865
 2888TIP3    H2 8610   6.239   2.991   1.850
 2889TIP3   OH2 8611   6.340   2.706   1.821
 2889TIP3    H1 8612   6.341   2.627   1.768
 2889TIP3    H2 8613   6.374   2.678   1.906
 2890TIP3   OH2 8614   6.709   2.788   2.567
 2890TIP3    H1 8615   6.693   2.712   2.510
 2890TIP3    H2 8616   6.693   2.864   2.512
 2891TIP3   OH2 8617   6.008   2.188   1.819
 2891TIP3    H1 8618   5.925   2.233   1.809
 2891TIP3    H2 8619   6.053   2.200   1.735
 2892TIP3   OH2 8620   5.984   1.995   1.524
 2892TIP3    H1 8621   6.050   2.049   1.567
 2892TIP3    H2 8622   6.034   1.930   1.476
 2893TIP3   OH2 8623   6.892   2.442   2.428
 2893TIP3    H1 8624   6.809   2.489   2.430
 2893TIP3    H2 8625   6.926   2.456   2.340
 2894TIP3   OH2 8626   6.355   2.283   1.794
 2894TIP3    H1 8627   6.297   2.307   1.867
 2894TIP3    H2 8628   6.435   2.253   1.836
 2895TIP3   OH2 8629   6.585   2.306   2.741
 2895TIP3    H1 8630   6.583   2.390   2.788
 2895TIP3    H2 8631   6.503   2.304   2.693
 2896TIP3   OH2 8632   5.584   2.258   2.206
 2896TIP3    H1 8633   5.549   2.198   2.140
 2896TIP3    H2 8634   5.659   2.210   2.243
 2897TIP3   OH2 8635   5.722   2.680   2.344
 2897TIP3    H1 8636   5.699   2.666   2.252
 2897TIP3    H2 8637   5.809   2.643   2.354
 2898TIP3   OH2 8638   5.688   2.252   2.577
 2898TIP3    H1 8639   5.726   2.217   2.496
 2898TIP3    H2 8640   5.736   2.333   2.593
 2899TIP3   OH2 8641   6.241   2.886   2.355
 2899TIP3    H1 8642   6.226   2.967   2.404
 2899TIP3    H2 8643   6.224   2.816   2.418
 2900TIP3   OH2 8644   5.858   2.788   2.900
 2900TIP3    H1 8645   5.798   2.847   2.948
 2900TIP3    H2 8646   5.801   2.738   2.843
 2901TIP3   OH2 8647   6.222   2.133   1.602
 2901TIP3    H1 8648   6.270   2.193   1.659
 2901TIP3    H2 8649   6.279   2.122   1.526
 2902TIP3   OH2 8650   5.613   2.334   3.040
 2902TIP3    H1 8651   5.618   2.427   3.060
 2902TIP3    H2 8652   5.519   2.317   3.033
 2903TIP3   OH2 8653   5.929   2.810   1.891
 2903TIP3    H1 8654   6.015   2.852   1.894
 2903TIP3    H2 8655   5.874   2.872   1.842
 2904TIP3   OH2 8656   5.649   2.947   2.987
 2904TIP3    H1 8657   5.623   2.959   2.896
 2904TIP3    H2 8658   5.567   2.931   3.034
 2905TIP3   OH2 8659   6.701   1.354   1.703
 2905TIP3    H1 8660   6.620   1.373   1.750
 2905TIP3    H2 8661   6.714   1.431   1.646
 2906TIP3   OH2 8662   5.459   2.101   2.003
 2906TIP3    H1 8663   5.384   2.151   1.971
 2906TIP3    H2 8664   5.424   2.014   2.021
 2907TIP3   OH2 8665   6.480   2.733   1.222
 2907TIP3    H1 8666   6.476   2.828   1.207
 2907TIP3    H2 8667   6.573   2.714   1.233
 2908TIP3   OH2 8668   5.239   2.503   2.935
 2908TIP3    H1 8669   5.170   2.486   2.871
 2908TIP3    H2 8670   5.274   2.416   2.956
 2909TIP3   OH2 8671   5.082   2.701   2.586
 2909TIP3    H1 8672   5.174   2.723   2.601
 2909TIP3    H2 8673   5.034   2.778   2.616
 2910TIP3   OH2 8674   6.939   3.149   2.634
 2910TIP3    H1 8675   6.945   3.054   2.647
 2910TIP3    H2 8676   6.860   3.175   2.680
 2911TIP3   OH2 8677   6.046   2.931   2.760
 2911TIP3    H1 8678   6.040   3.022   2.789
 2911TIP3    H2 8679   5.979   2.885   2.810
 2912TIP3   OH2 8680   5.825   3.034   1.715
 2912TIP3    H1 8681   5.777   3.014   1.634
 2912TIP3    H2 8682   5.789   3.118   1.744
 2913TIP3   OH2 8683   5.260   2.887   2.093
 2913TIP3    H1 8684   5.304   2.880   2.177
 2913TIP3    H2 8685   5.210   2.806   2.084
 2914TIP3   OH2 8686   6.027   2.960   1.342
 2914TIP3    H1 8687   6.076   2.884   1.311
 2914TIP3    H2 8688   6.060   2.975   1.431
 2915TIP3   OH2 8689   6.078   3.006   1.612
 2915TIP3    H1 8690   5.992   3.010   1.653
 2915TIP3    H2 8691   6.136   2.971   1.679
 2916TIP3   OH2 8692   6.831   2.267   2.905
 2916TIP3    H1 8693   6.748   2.276   2.857
 2916TIP3    H2 8694   6.850   2.173   2.901
 2917TIP3   OH2 8695   5.441   2.688   2.902
 2917TIP3    H1 8696   5.489   2.679   2.985
 2917TIP3    H2 8697   5.368   2.627   2.910
 2918TIP3   OH2 8698   5.824   1.508   2.714
 2918TIP3    H1 8699   5.740   1.474   2.682
 2918TIP3    H2 8700   5.800   1.587   2.762
 2919TIP3   OH2 8701   6.374   1.615   2.925
 2919TIP3    H1 8702   6.447   1.592   2.982
 2919TIP3    H2 8703   6.296   1.603   2.980
 2920TIP3   OH2 8704   6.587   2.040   2.827
 2920TIP3    H1 8705   6.547   2.037   2.914
 2920TIP3    H2 8706   6.574   2.130   2.798
 2921TIP3   OH2 8707   5.972   1.540   1.683
 2921TIP3    H1 8708   5.935   1.545   1.771
 2921TIP3    H2 8709   5.938   1.458   1.647
 2922TIP3   OH2 8710   5.764   2.030   2.725
 2922TIP3    H1 8711   5.718   2.039   2.808
 2922TIP3    H2 8712   5.744   2.111   2.678
 2923TIP3   OH2 8713   5.646   1.907   2.244
 2923TIP3    H1 8714   5.556   1.886   2.269
 2923TIP3    H2 8715   5.654   1.875   2.155
 2924TIP3   OH2 8716   6.125   1.985   1.964
 2924TIP3    H1 8717   6.079   2.057   1.921
 2924TIP3    H2 8718   6.187   1.953   1.898
 2925TIP3   OH2 8719   6.311   2.252   3.047
 2925TIP3    H1 8720   6.284   2.184   3.109
 2925TIP3    H2 8721   6.403   2.268   3.066
 2926TIP3   OH2 8722   6.286   2.001   2.197
 2926TIP3    H1 8723   6.221   2.027   2.132
 2926TIP3    H2 8724   6.332   1.927   2.157
 2927TIP3   OH2 8725   5.599   2.047   2.945
 2927TIP3    H1 8726   5.612   2.113   3.013
 2927TIP3    H2 8727   5.581   1.966   2.993
 2928TIP3   OH2 8728   5.641   1.525   1.660
 2928TIP3    H1 8729   5.631   1.530   1.755
 2928TIP3    H2 8730   5.563   1.569   1.625
 2929TIP3   OH2 8731   5.186   1.564   2.529
 2929TIP3    H1 8732   5.258   1.601   2.579
 2929TIP3    H2 8733   5.221   1.553   2.441
 2930TIP3   OH2 8734   5.101   1.543   2.029
 2930TIP3    H1 8735   5.145   1.578   1.951
 2930TIP3    H2 8736   5.038   1.611   2.054
 2931TIP3   OH2 8737   6.329   2.252   2.625
 2931TIP3    H1 8738   6.354   2.186   2.561
 2931TIP3    H2 8739   6.287   2.203   2.695
 2932TIP3   OH2 8740   6.002   1.701   2.291
 2932TIP3    H1 8741   5.925   1.702   2.348
 2932TIP3    H2 8742   6.077   1.704   2.352
 2933TIP3   OH2 8743   5.405   1.785   2.306
 2933TIP3    H1 8744   5.317   1.791   2.270
 2933TIP3    H2 8745   5.432   1.695   2.289
 2934TIP3   OH2 8746   5.660   1.786   1.998
 2934TIP3    H1 8747   5.754   1.799   1.987
 2934TIP3    H2 8748   5.622   1.805   1.912
 2935TIP3   OH2 8749   6.457   1.792   2.503
 2935TIP3    H1 8750   6.441   1.806   2.596
 2935TIP3    H2 8751   6.384   1.737   2.474
 2936TIP3   OH2 8752   5.545   1.812   1.751
 2936TIP3    H1 8753   5.481   1.765   1.698
 2936TIP3    H2 8754   5.601   1.856   1.687
 2937TIP3   OH2 8755   6.654   3.493   2.727
 2937TIP3    H1 8756   6.651   3.511   2.633
 2937TIP3    H2 8757   6.733   3.538   2.758
 2938TIP3   OH2 8758   5.598   2.597   3.140
 2938TIP3    H1 8759   5.678   2.621   3.186
 2938TIP3    H2 8760   5.528   2.609   3.204
 2939TIP3   OH2 8761   6.058   2.066   2.403
 2939TIP3    H1 8762   6.129   2.023   2.355
 2939TIP3    H2 8763   6.059   2.025   2.490
 2940TIP3   OH2 8764   5.548   1.534   2.288
 2940TIP3    H1 8765   5.525   1.455   2.338
 2940TIP3    H2 8766   5.565   1.502   2.199
 2941TIP3   OH2 8767   6.032   1.970   2.672
 2941TIP3    H1 8768   5.945   2.005   2.693
 2941TIP3    H2 8769   6.092   2.023   2.724
 2942TIP3   OH2 8770   5.767   2.324   1.781
 2942TIP3    H1 8771   5.692   2.270   1.758
 2942TIP3    H2 8772   5.743   2.366   1.863
 2943TIP3   OH2 8773   6.656   2.582   2.390
 2943TIP3    H1 8774   6.692   2.632   2.316
 2943TIP3    H2 8775   6.576   2.543   2.356
 2944TIP3   OH2 8776   6.222   1.648   1.694
 2944TIP3    H1 8777   6.128   1.631   1.687
 2944TIP3    H2 8778   6.228   1.744   1.702
 2945TIP3   OH2 8779   6.169   2.663   2.800
 2945TIP3    H1 8780   6.220   2.655   2.881
 2945TIP3    H2 8781   6.129   2.749   2.804
 2946TIP3   OH2 8782   6.293   1.909   1.755
 2946TIP3    H1 8783   6.388   1.911   1.768
 2946TIP3    H2 8784   6.276   1.981   1.694
 2947TIP3   OH2 8785   5.453   2.339   2.435
 2947TIP3    H1 8786   5.491   2.323   2.349
 2947TIP3    H2 8787   5.520   2.310   2.497
 2948TIP3   OH2 8788   5.916   2.487   1.619
 2948TIP3    H1 8789   5.868   2.570   1.618
 2948TIP3    H2 8790   5.862   2.429   1.674
 2949TIP3   OH2 8791   5.339   2.270   3.064
 2949TIP3    H1 8792   5.343   2.247   3.157
 2949TIP3    H2 8793   5.264   2.222   3.031
 2950TIP3   OH2 8794   6.077   2.405   3.088
 2950TIP3    H1 8795   6.009   2.344   3.058
 2950TIP3    H2 8796   6.159   2.365   3.058
 2951TIP3   OH2 8797   6.318   2.947   2.684
 2951TIP3    H1 8798   6.223   2.935   2.689
 2951TIP3    H2 8799   6.342   2.987   2.768
 2952TIP3   OH2 8800   6.675   1.995   1.585
 2952TIP3    H1 8801   6.610   1.969   1.519
 2952TIP3    H2 8802   6.673   2.091   1.584
 2953TIP3   OH2 8803   6.955   2.867   2.659
 2953TIP3    H1 8804   6.860   2.854   2.654
 2953TIP3    H2 8805   6.988   2.839   2.574
 2954TIP3   OH2 8806   6.444   2.808   1.499
 2954TIP3    H1 8807   6.416   2.742   1.563
 2954TIP3    H2 8808   6.443   2.762   1.415
 2955TIP3   OH2 8809   6.425   2.449   2.287
 2955TIP3    H1 8810   6.336   2.427   2.312
 2955TIP3    H2 8811   6.460   2.368   2.249
 2956TIP3   OH2 8812   5.579   2.682   2.098
 2956TIP3    H1 8813   5.577   2.758   2.040
 2956TIP3    H2 8814   5.489   2.673   2.128
 2957TIP3   OH2 8815   5.141   1.968   1.812
 2957TIP3    H1 8816   5.183   2.052   1.832
 2957TIP3    H2 8817   5.060   1.969   1.863
 2958TIP3   OH2 8818   5.665   2.436   2.006
 2958TIP3    H1 8819   5.649   2.526   2.034
 2958TIP3    H2 8820   5.639   2.382   2.080
 2959TIP3   OH2 8821   5.860   3.005   2.554
 2959TIP3    H1 8822   5.896   3.079   2.504
 2959TIP3    H2 8823   5.934   2.972   2.605
 2960TIP3   OH2 8824   5.493   2.907   1.946
 2960TIP3    H1 8825   5.407   2.912   1.987
 2960TIP3    H2 8826   5.527   2.996   1.951
 2961TIP3   OH2 8827   6.212   2.665   2.527
 2961TIP3    H1 8828   6.199   2.660   2.621
 2961TIP3    H2 8829   6.292   2.614   2.511
 2962TIP3   OH2 8830   6.224   2.519   1.384
 2962TIP3    H1 8831   6.268   2.510   1.468
 2962TIP3    H2 8832   6.136   2.485   1.399
 2963TIP3   OH2 8833   6.468   3.167   2.566
 2963TIP3    H1 8834   6.396   3.106   2.580
 2963TIP3    H2 8835   6.438   3.223   2.494
 2964TIP3   OH2 8836   6.517   3.010   1.206
 2964TIP3    H1 8837   6.553   3.076   1.147
 2964TIP3    H2 8838   6.446   3.055   1.252
 2965TIP3   OH2 8839   5.547   1.793   3.069
 2965TIP3    H1 8840   5.452   1.801   3.076
 2965TIP3    H2 8841   5.573   1.748   3.150
 2966TIP3   OH2 8842   6.383   2.495   1.618
 2966TIP3    H1 8843   6.364   2.423   1.677
 2966TIP3    H2 8844   6.475   2.482   1.593
 2967TIP3   OH2 8845   5.289   2.895   2.713
 2967TIP3    H1 8846   5.342   2.835   2.765
 2967TIP3    H2 8847   5.302   2.980   2.754
 2968TIP3   OH2 8848   5.557   2.512   1.407
 2968TIP3    H1 8849   5.568   2.421   1.381
 2968TIP3    H2 8850   5.542   2.509   1.501
 2969TIP3   OH2 8851   5.500   2.529   1.679
 2969TIP3    H1 8852   5.565   2.502   1.744
 2969TIP3    H2 8853   5.499   2.625   1.685
 2970TIP3   OH2 8854   5.234   2.221   1.890
 2970TIP3    H1 8855   5.169   2.267   1.942
 2970TIP3    H2 8856   5.253   2.279   1.816
 2971TIP3   OH2 8857   6.403   1.841   2.766
 2971TIP3    H1 8858   6.478   1.892   2.798
 2971TIP3    H2 8859   6.396   1.767   2.827
 2972TIP3   OH2 8860   6.286   1.596   1.957
 2972TIP3    H1 8861   6.265   1.616   1.866
 2972TIP3    H2 8862   6.330   1.675   1.989
 2973TIP3   OH2 8863   5.770   2.715   1.618
 2973TIP3    H1 8864   5.686   2.739   1.656
 2973TIP3    H2 8865   5.794   2.790   1.563
 2974TIP3   OH2 8866   5.939   1.795   2.036
 2974TIP3    H1 8867   6.001   1.862   2.010
 2974TIP3    H2 8868   5.961   1.776   2.127
 2975TIP3   OH2 8869   6.237   2.086   2.825
 2975TIP3    H1 8870   6.261   2.134   2.904
 2975TIP3    H2 8871   6.288   2.005   2.830
 2976TIP3   OH2 8872   6.098   1.495   2.128
 2976TIP3    H1 8873   6.072   1.571   2.181
 2976TIP3    H2 8874   6.169   1.527   2.073
 2977TIP3   OH2 8875   5.520   2.802   1.694
 2977TIP3    H1 8876   5.498   2.873   1.634
 2977TIP3    H2 8877   5.508   2.840   1.781
 2978TIP3   OH2 8878   5.613   1.513   1.941
 2978TIP3    H1 8879   5.603   1.605   1.968
 2978TIP3    H2 8880   5.707   1.498   1.945
 2979TIP3   OH2 8881   6.855   1.996   2.818
 2979TIP3    H1 8882   6.759   1.998   2.825
 2979TIP3    H2 8883   6.873   1.945   2.740
 2980TIP3   OH2 8884   6.516   2.190   2.196
 2980TIP3    H1 8885   6.439   2.136   2.211
 2980TIP3    H2 8886   6.584   2.150   2.251
 2981TIP3   OH2 8887   5.254   2.399   1.674
 2981TIP3    H1 8888   5.324   2.463   1.682
 2981TIP3    H2 8889   5.287   2.335   1.610
 2982TIP3   OH2 8890   5.162   1.690   1.806
 2982TIP3    H1 8891   5.177   1.784   1.815
 2982TIP3    H2 8892   5.098   1.683   1.736
 2983TIP3   OH2 8893   6.496   3.161   2.139
 2983TIP3    H1 8894   6.455   3.212   2.069
 2983TIP3    H2 8895   6.590   3.173   2.125
 2984TIP3   OH2 8896   5.567   1.410   2.671
 2984TIP3    H1 8897   5.541   1.377   2.585
 2984TIP3    H2 8898   5.557   1.336   2.730
 2985TIP3   OH2 8899   5.086   2.662   2.068
 2985TIP3    H1 8900   5.041   2.699   2.144
 2985TIP3    H2 8901   5.045   2.705   1.993
 2986TIP3   OH2 8902   5.281   3.200   3.133
 2986TIP3    H1 8903   5.362   3.204   3.182
 2986TIP3    H2 8904   5.261   3.106   3.127
 2987TIP3   OH2 8905   5.746   3.117   3.183
 2987TIP3    H1 8906   5.841   3.102   3.190
 2987TIP3    H2 8907   5.718   3.060   3.112
 2988TIP3   OH2 8908   5.714   2.712   1.298
 2988TIP3    H1 8909   5.667   2.642   1.343
 2988TIP3    H2 8910   5.790   2.668   1.258
 2989TIP3   OH2 8911   6.375   3.053   2.931
 2989TIP3    H1 8912   6.386   2.984   2.996
 2989TIP3    H2 8913   6.448   3.112   2.945
 2990TIP3   OH2 8914   6.157   2.744   1.235
 2990TIP3    H1 8915   6.197   2.675   1.288
 2990TIP3    H2 8916   6.210   2.747   1.156
 2991TIP3   OH2 8917   5.390   2.597   3.327
 2991TIP3    H1 8918   5.407   2.504   3.338
 2991TIP3    H2 8919   5.303   2.601   3.287
 2992TIP3   OH2 8920   5.381   2.208   1.525
 2992TIP3    H1 8921   5.432   2.184   1.602
 2992TIP3    H2 8922   5.445   2.221   1.456
 2993TIP3   OH2 8923   6.011   2.682   3.104
 2993TIP3    H1 8924   5.966   2.704   3.023
 2993TIP3    H2 8925   6.045   2.594   3.090
 2994TIP3   OH2 8926   5.948   2.427   1.353
 2994TIP3    H1 8927   5.927   2.442   1.445
 2994TIP3    H2 8928   5.928   2.335   1.338
 2995TIP3   OH2 8929   6.485   2.722   2.717
 2995TIP3    H1 8930   6.563   2.751   2.670
 2995TIP3    H2 8931   6.421   2.791   2.702
 2996TIP3   OH2 8932   5.506   2.338   3.334
 2996TIP3    H1 8933   5.582   2.329   3.276
 2996TIP3    H2 8934   5.543   2.363   3.419
 2997TIP3   OH2 8935   5.558   2.147   1.735
 2997TIP3    H1 8936   5.537   2.116   1.823
 2997TIP3    H2 8937   5.608   2.075   1.695
 2998TIP3   OH2 8938   5.870   2.227   2.989
 2998TIP3    H1 8939   5.785   2.270   2.998
 2998TIP3    H2 8940   5.903   2.257   2.904
 2999TIP3   OH2 8941   5.705   1.962   1.583
 2999TIP3    H1 8942   5.675   1.966   1.492
 2999TIP3    H2 8943   5.800   1.969   1.576
 3000TIP3   OH2 8944   6.367   2.604   3.080
 3000TIP3    H1 8945   6.436   2.567   3.026
 3000TIP3    H2 8946   6.364   2.548   3.158
 3001TIP3   OH2 8947   5.971   1.997   3.099
 3001TIP3    H1 8948   5.975   1.926   3.035
 3001TIP3    H2 8949   5.938   2.072   3.050
 3002TIP3   OH2 8950   5.980   1.795   2.897
 3002TIP3    H1 8951   6.007   1.835   2.815
 3002TIP3    H2 8952   5.888   1.772   2.883
 3003TIP3   OH2 8953   5.990   2.328   2.767
 3003TIP3    H1 8954   6.077   2.364   2.755
 3003TIP3    H2 8955   5.932   2.388   2.719
 3004TIP3   OH2 8956   6.579   2.284   3.146
 3004TIP3    H1 8957   6.623   2.200   3.154
 3004TIP3    H2 8958   6.649   2.347   3.131
 3005TIP3   OH2 8959   6.610   2.548   2.885
 3005TIP3    H1 8960   6.556   2.609   2.834
 3005TIP3    H2 8961   6.699   2.565   2.854
 3006TIP3   OH2 8962   5.855   2.083   3.341
 3006TIP3    H1 8963   5.784   2.022   3.360
 3006TIP3    H2 8964   5.884   2.060   3.253
 3007TIP3   OH2 8965   6.099   1.563   2.999
 3007TIP3    H1 8966   6.061   1.643   2.965
 3007TIP3    H2 8967   6.034   1.495   2.981
 3008TIP3   OH2 8968   6.228   2.039   3.200
 3008TIP3    H1 8969   6.220   2.027   3.294
 3008TIP3    H2 8970   6.142   2.018   3.165
 3009TIP3   OH2 8971   6.471   1.992   3.066
 3009TIP3    H1 8972   6.393   1.994   3.121
 3009TIP3    H2 8973   6.543   1.970   3.125
 3010TIP3   OH2 8974   6.704   1.960   3.218
 3010TIP3    H1 8975   6.719   1.866   3.226
 3010TIP3    H2 8976   6.701   1.991   3.309
 3011TIP3   OH2 8977   5.687   1.862   3.404
 3011TIP3    H1 8978   5.695   1.774   3.369
 3011TIP3    H2 8979   5.726   1.857   3.491
 3012TIP3   OH2 8980   6.172   1.543   3.263
 3012TIP3    H1 8981   6.243   1.480   3.256
 3012TIP3    H2 8982   6.140   1.553   3.173
 3013TIP3   OH2 8983   6.263   1.760   3.407
 3013TIP3    H1 8984   6.234   1.688   3.351
 3013TIP3    H2 8985   6.191   1.822   3.407
 3014TIP3   OH2 8986   5.514   3.010   1.510
 3014TIP3    H1 8987   5.604   2.989   1.483
 3014TIP3    H2 8988   5.478   3.057   1.435
 3015TIP3   OH2 8989   4.980   2.392   1.693
 3015TIP3    H1 8990   5.075   2.404   1.689
 3015TIP3    H2 8991   4.966   2.305   1.655
 3016TIP3   OH2 8992   4.888   2.978   2.151
 3016TIP3    H1 8993   4.823   2.925   2.105
 3016TIP3    H2 8994   4.932   2.918   2.210
 3017TIP3   OH2 8995   5.030   2.811   2.319
 3017TIP3    H1 8996   5.019   2.743   2.386
 3017TIP3    H2 8997   5.082   2.879   2.362
 3018TIP3   OH2 8998   6.767   3.212   2.130
 3018TIP3    H1 8999   6.785   3.242   2.220
 3018TIP3    H2 9000   6.820   3.269   2.075
 3019TIP3   OH2 9001   6.781   3.249   2.411
 3019TIP3    H1 9002   6.734   3.166   2.406
 3019TIP3    H2 9003   6.852   3.233   2.474
 3020TIP3   OH2 9004   6.836   2.943   2.980
 3020TIP3    H1 9005   6.764   2.952   3.042
 3020TIP3    H2 9006   6.882   3.028   2.984
 3021TIP3   OH2 9007   6.659   2.444   1.570
 3021TIP3    H1 9008   6.711   2.524   1.559
 3021TIP3    H2 9009   6.697   2.401   1.646
 3022TIP3   OH2 9010   6.778   2.311   1.784
 3022TIP3    H1 9011   6.711   2.276   1.843
 3022TIP3    H2 9012   6.843   2.351   1.843
 3023TIP3   OH2 9013   6.834   2.721   2.225
 3023TIP3    H1 9014   6.885   2.652   2.183
 3023TIP3    H2 9015   6.835   2.793   2.163
 3024TIP3   OH2 9016   6.642   3.008   2.416
 3024TIP3    H1 9017   6.574   3.051   2.467
 3024TIP3    H2 9018   6.595   2.966   2.344
 3025TIP3   OH2 9019   6.578   2.176   1.926
 3025TIP3    H1 9020   6.583   2.081   1.916
 3025TIP3    H2 9021   6.561   2.190   2.019
 3026TIP3   OH2 9022   5.205   2.241   2.700
 3026TIP3    H1 9023   5.196   2.211   2.610
 3026TIP3    H2 9024   5.300   2.240   2.716
 3027TIP3   OH2 9025   6.867   2.599   2.791
 3027TIP3    H1 9026   6.933   2.533   2.774
 3027TIP3    H2 9027   6.884   2.667   2.726
 3028TIP3   OH2 9028   7.043   2.390   2.783
 3028TIP3    H1 9029   6.969   2.349   2.828
 3028TIP3    H2 9030   7.118   2.333   2.803
 3029TIP3   OH2 9031   6.452   1.636   1.354
 3029TIP3    H1 9032   6.505   1.658   1.430
 3029TIP3    H2 9033   6.382   1.580   1.389
 3030TIP3   OH2 9034   6.576   1.897   1.825
 3030TIP3    H1 9035   6.621   1.814   1.839
 3030TIP3    H2 9036   6.614   1.932   1.745
 3031TIP3   OH2 9037   6.729   2.065   2.335
 3031TIP3    H1 9038   6.810   2.083   2.288
 3031TIP3    H2 9039   6.742   2.104   2.421
 3032TIP3   OH2 9040   6.803   2.216   2.563
 3032TIP3    H1 9041   6.731   2.247   2.618
 3032TIP3    H2 9042   6.835   2.295   2.519
 3033TIP3   OH2 9043   5.424   1.921   3.342
 3033TIP3    H1 9044   5.518   1.920   3.361
 3033TIP3    H2 9045   5.390   1.841   3.383
 3034TIP3   OH2 9046   7.272   1.810   3.102
 3034TIP3    H1 9047   7.329   1.748   3.058
 3034TIP3    H2 9048   7.235   1.864   3.032
 3035TIP3   OH2 9049   6.690   1.650   1.870
 3035TIP3    H1 9050   6.736   1.633   1.952
 3035TIP3    H2 9051   6.629   1.576   1.861
 3036TIP3   OH2 9052   5.401   1.634   2.689
 3036TIP3    H1 9053   5.457   1.556   2.694
 3036TIP3    H2 9054   5.463   1.706   2.673
 3037TIP3   OH2 9055   5.181   1.897   2.756
 3037TIP3    H1 9056   5.233   1.890   2.676
 3037TIP3    H2 9057   5.199   1.985   2.789
 3038TIP3   OH2 9058   7.119   1.937   2.913
 3038TIP3    H1 9059   7.038   1.977   2.945
 3038TIP3    H2 9060   7.090   1.865   2.857
 3039TIP3   OH2 9061   6.729   1.554   1.523
 3039TIP3    H1 9062   6.756   1.488   1.459
 3039TIP3    H2 9063   6.732   1.636   1.475
 3040TIP3   OH2 9064   5.169   1.410   2.257
 3040TIP3    H1 9065   5.083   1.398   2.297
 3040TIP3    H2 9066   5.153   1.464   2.180
 3041TIP3   OH2 9067   6.324   3.123   1.770
 3041TIP3    H1 9068   6.382   3.112   1.695
 3041TIP3    H2 9069   6.366   3.191   1.823
 3042TIP3   OH2 9070   5.385   1.448   3.069
 3042TIP3    H1 9071   5.342   1.455   3.154
 3042TIP3    H2 9072   5.334   1.506   3.012
 3043TIP3   OH2 9073   5.425   2.913   3.150
 3043TIP3    H1 9074   5.330   2.898   3.143
 3043TIP3    H2 9075   5.441   2.914   3.245
 3044TIP3   OH2 9076   5.632   2.966   2.703
 3044TIP3    H1 9077   5.580   3.040   2.671
 3044TIP3    H2 9078   5.716   2.976   2.660
 3045TIP3   OH2 9079   6.034   3.198   2.837
 3045TIP3    H1 9080   6.071   3.192   2.925
 3045TIP3    H2 9081   6.097   3.252   2.789
 3046TIP3   OH2 9082   6.225   3.354   2.712
 3046TIP3    H1 9083   6.290   3.301   2.665
 3046TIP3    H2 9084   6.277   3.412   2.767
 3047TIP3   OH2 9085   7.020   1.703   2.796
 3047TIP3    H1 9086   6.937   1.705   2.749
 3047TIP3    H2 9087   7.047   1.611   2.793
 3048TIP3   OH2 9088   5.291   3.208   2.746
 3048TIP3    H1 9089   5.199   3.224   2.724
 3048TIP3    H2 9090   5.312   3.274   2.812
 3049TIP3   OH2 9091   5.522   3.196   2.597
 3049TIP3    H1 9092   5.439   3.202   2.645
 3049TIP3    H2 9093   5.500   3.222   2.508
 3050TIP3   OH2 9094   5.940   3.214   2.389
 3050TIP3    H1 9095   5.867   3.227   2.327
 3050TIP3    H2 9096   5.950   3.300   2.431
 3051TIP3   OH2 9097   6.204   3.149   2.438
 3051TIP3    H1 9098   6.112   3.169   2.419
 3051TIP3    H2 9099   6.253   3.217   2.393
 3052TIP3   OH2 9100   6.404   3.325   2.342
 3052TIP3    H1 9101   6.402   3.412   2.302
 3052TIP3    H2 9102   6.434   3.267   2.271
 3053TIP3   OH2 9103   5.204   2.988   2.462
 3053TIP3    H1 9104   5.226   2.963   2.552
 3053TIP3    H2 9105   5.277   2.954   2.410
 3054TIP3   OH2 9106   5.408   2.871   2.325
 3054TIP3    H1 9107   5.419   2.787   2.371
 3054TIP3    H2 9108   5.494   2.912   2.330
 3055TIP3   OH2 9109   5.675   2.958   2.349
 3055TIP3    H1 9110   5.695   2.866   2.335
 3055TIP3    H2 9111   5.728   2.983   2.425
 3056TIP3   OH2 9112   6.238   1.630   2.431
 3056TIP3    H1 9113   6.183   1.565   2.475
 3056TIP3    H2 9114   6.298   1.578   2.378
 3057TIP3   OH2 9115   6.729   1.514   2.308
 3057TIP3    H1 9116   6.777   1.559   2.238
 3057TIP3    H2 9117   6.652   1.569   2.324
 3058TIP3   OH2 9118   6.854   1.607   2.087
 3058TIP3    H1 9119   6.924   1.548   2.060
 3058TIP3    H2 9120   6.889   1.695   2.072
 3059TIP3   OH2 9121   5.494   1.296   2.430
 3059TIP3    H1 9122   5.404   1.264   2.438
 3059TIP3    H2 9123   5.547   1.218   2.418
 3060TIP3   OH2 9124   5.307   1.221   2.094
 3060TIP3    H1 9125   5.327   1.269   2.013
 3060TIP3    H2 9126   5.265   1.285   2.151
 3061TIP3   OH2 9127   5.969   1.339   2.327
 3061TIP3    H1 9128   6.004   1.391   2.255
 3061TIP3    H2 9129   5.994   1.389   2.406
 3062TIP3   OH2 9130   6.427   1.479   2.304
 3062TIP3    H1 9131   6.471   1.448   2.225
 3062TIP3    H2 9132   6.441   1.409   2.368
 3063TIP3   OH2 9133   6.503   1.443   1.873
 3063TIP3    H1 9134   6.425   1.493   1.896
 3063TIP3    H2 9135   6.488   1.356   1.909
 3064TIP3   OH2 9136   4.973   2.784   1.850
 3064TIP3    H1 9137   4.888   2.751   1.820
 3064TIP3    H2 9138   4.975   2.874   1.818
 3065TIP3   OH2 9139   5.402   1.348   1.851
 3065TIP3    H1 9140   5.446   1.288   1.790
 3065TIP3    H2 9141   5.472   1.403   1.885
 3066TIP3   OH2 9142   5.888   1.541   1.947
 3066TIP3    H1 9143   5.952   1.494   2.000
 3066TIP3    H2 9144   5.901   1.633   1.970
 3067TIP3   OH2 9145   5.771   2.937   1.443
 3067TIP3    H1 9146   5.855   2.964   1.406
 3067TIP3    H2 9147   5.742   2.865   1.386
 3068TIP3   OH2 9148   6.478   3.077   1.541
 3068TIP3    H1 9149   6.472   2.982   1.532
 3068TIP3    H2 9150   6.433   3.112   1.464
 3069TIP3   OH2 9151   5.700   1.590   3.313
 3069TIP3    H1 9152   5.665   1.525   3.374
 3069TIP3    H2 9153   5.792   1.598   3.336
 3070TIP3   OH2 9154   5.949   1.596   3.435
 3070TIP3    H1 9155   6.028   1.576   3.385
 3070TIP3    H2 9156   5.944   1.527   3.501
 3071TIP3   OH2 9157   5.074   2.779   1.500
 3071TIP3    H1 9158   5.076   2.790   1.595
 3071TIP3    H2 9159   5.156   2.734   1.480
 3072TIP3   OH2 9160   6.768   1.692   3.234
 3072TIP3    H1 9161   6.789   1.655   3.320
 3072TIP3    H2 9162   6.852   1.689   3.187
 3073TIP3   OH2 9163   6.690   3.219   2.729
 3073TIP3    H1 9164   6.615   3.189   2.678
 3073TIP3    H2 9165   6.677   3.313   2.739
 3074TIP3   OH2 9166   7.255   2.464   2.257
 3074TIP3    H1 9167   7.287   2.402   2.323
 3074TIP3    H2 9168   7.331   2.517   2.234
 3075TIP3   OH2 9169   7.239   2.891   1.943
 3075TIP3    H1 9170   7.224   2.797   1.954
 3075TIP3    H2 9171   7.334   2.899   1.930
 3076TIP3   OH2 9172   6.951   2.109   1.700
 3076TIP3    H1 9173   6.899   2.185   1.726
 3076TIP3    H2 9174   6.886   2.038   1.689
 3077TIP3   OH2 9175   7.010   2.396   1.925
 3077TIP3    H1 9176   7.059   2.320   1.955
 3077TIP3    H2 9177   7.078   2.460   1.902
 3078TIP3   OH2 9178   7.899   3.321   1.542
 3078TIP3    H1 9179   7.964   3.254   1.521
 3078TIP3    H2 9180   7.912   3.338   1.635
 3079TIP3   OH2 9181   7.744   2.836   1.899
 3079TIP3    H1 9182   7.782   2.781   1.830
 3079TIP3    H2 9183   7.816   2.895   1.924
 3080TIP3   OH2 9184   7.489   1.950   1.927
 3080TIP3    H1 9185   7.497   2.027   1.871
 3080TIP3    H2 9186   7.454   1.882   1.869
 3081TIP3   OH2 9187   7.150   2.180   2.026
 3081TIP3    H1 9188   7.230   2.161   2.076
 3081TIP3    H2 9189   7.155   2.121   1.951
 3082TIP3   OH2 9190   7.586   2.393   1.834
 3082TIP3    H1 9191   7.673   2.369   1.804
 3082TIP3    H2 9192   7.535   2.312   1.829
 3083TIP3   OH2 9193   7.514   1.973   2.367
 3083TIP3    H1 9194   7.463   2.004   2.292
 3083TIP3    H2 9195   7.457   1.988   2.442
 3084TIP3   OH2 9196   7.618   2.744   2.131
 3084TIP3    H1 9197   7.560   2.812   2.165
 3084TIP3    H2 9198   7.659   2.784   2.055
 3085TIP3   OH2 9199   7.382   2.073   2.142
 3085TIP3    H1 9200   7.442   2.147   2.155
 3085TIP3    H2 9201   7.423   2.021   2.072
 3086TIP3   OH2 9202   7.453   2.943   2.225
 3086TIP3    H1 9203   7.440   3.032   2.192
 3086TIP3    H2 9204   7.374   2.925   2.277
 3087TIP3   OH2 9205   6.825   2.658   1.505
 3087TIP3    H1 9206   6.785   2.678   1.421
 3087TIP3    H2 9207   6.854   2.742   1.539
 3088TIP3   OH2 9208   7.377   2.532   1.710
 3088TIP3    H1 9209   7.321   2.471   1.662
 3088TIP3    H2 9210   7.448   2.478   1.743
 3089TIP3   OH2 9211   7.493   2.943   1.836
 3089TIP3    H1 9212   7.473   2.926   1.744
 3089TIP3    H2 9213   7.579   2.904   1.850
 3090TIP3   OH2 9214   7.485   2.515   2.063
 3090TIP3    H1 9215   7.526   2.482   1.983
 3090TIP3    H2 9216   7.535   2.594   2.085
 3091TIP3   OH2 9217   7.642   3.042   2.404
 3091TIP3    H1 9218   7.580   3.104   2.444
 3091TIP3    H2 9219   7.588   2.990   2.344
 3092TIP3   OH2 9220   7.396   2.616   2.511
 3092TIP3    H1 9221   7.395   2.707   2.542
 3092TIP3    H2 9222   7.305   2.588   2.517
 3093TIP3   OH2 9223   7.750   3.140   1.389
 3093TIP3    H1 9224   7.777   3.206   1.452
 3093TIP3    H2 9225   7.679   3.183   1.340
 3094TIP3   OH2 9226   7.434   3.208   2.470
 3094TIP3    H1 9227   7.408   3.213   2.378
 3094TIP3    H2 9228   7.352   3.191   2.518
 3095TIP3   OH2 9229   7.203   2.375   1.561
 3095TIP3    H1 9230   7.126   2.403   1.513
 3095TIP3    H2 9231   7.186   2.283   1.583
 3096TIP3   OH2 9232   7.034   2.763   2.420
 3096TIP3    H1 9233   6.964   2.745   2.357
 3096TIP3    H2 9234   7.066   2.677   2.447
 3097TIP3   OH2 9235   6.880   2.955   2.069
 3097TIP3    H1 9236   6.973   2.973   2.081
 3097TIP3    H2 9237   6.835   3.032   2.103
 3098TIP3   OH2 9238   7.821   3.172   2.238
 3098TIP3    H1 9239   7.835   3.262   2.269
 3098TIP3    H2 9240   7.761   3.133   2.302
 3099TIP3   OH2 9241   7.604   3.297   1.211
 3099TIP3    H1 9242   7.577   3.293   1.119
 3099TIP3    H2 9243   7.575   3.384   1.240
 3100TIP3   OH2 9244   7.054   3.147   1.580
 3100TIP3    H1 9245   7.097   3.140   1.665
 3100TIP3    H2 9246   7.004   3.066   1.572
 3101TIP3   OH2 9247   7.859   3.239   1.116
 3101TIP3    H1 9248   7.780   3.267   1.161
 3101TIP3    H2 9249   7.894   3.169   1.170
 3102TIP3   OH2 9250   7.234   2.949   2.391
 3102TIP3    H1 9251   7.281   2.940   2.474
 3102TIP3    H2 9252   7.161   2.887   2.398
 3103TIP3   OH2 9253   7.606   1.745   2.238
 3103TIP3    H1 9254   7.523   1.726   2.195
 3103TIP3    H2 9255   7.592   1.829   2.283
 3104TIP3   OH2 9256   7.545   2.285   2.201
 3104TIP3    H1 9257   7.500   2.290   2.286
 3104TIP3    H2 9258   7.521   2.366   2.157
 3105TIP3   OH2 9259   7.423   2.182   1.787
 3105TIP3    H1 9260   7.340   2.142   1.810
 3105TIP3    H2 9261   7.429   2.172   1.692
 3106TIP3   OH2 9262   7.387   2.285   2.430
 3106TIP3    H1 9263   7.454   2.328   2.482
 3106TIP3    H2 9264   7.366   2.206   2.479
 3107TIP3   OH2 9265   7.481   1.669   1.208
 3107TIP3    H1 9266   7.509   1.652   1.298
 3107TIP3    H2 9267   7.449   1.759   1.209
 3108TIP3   OH2 9268   6.981   1.832   2.007
 3108TIP3    H1 9269   7.050   1.862   2.066
 3108TIP3    H2 9270   7.027   1.795   1.932
 3109TIP3   OH2 9271   6.925   1.845   1.566
 3109TIP3    H1 9272   6.972   1.904   1.507
 3109TIP3    H2 9273   6.833   1.871   1.558
 3110TIP3   OH2 9274   7.194   2.029   1.800
 3110TIP3    H1 9275   7.110   2.044   1.757
 3110TIP3    H2 9276   7.223   1.943   1.769
 3111TIP3   OH2 9277   7.424   2.132   1.525
 3111TIP3    H1 9278   7.503   2.082   1.505
 3111TIP3    H2 9279   7.385   2.149   1.439
 3112TIP3   OH2 9280   7.322   2.183   1.281
 3112TIP3    H1 9281   7.228   2.185   1.267
 3112TIP3    H2 9282   7.360   2.214   1.199
 3113TIP3   OH2 9283   7.388   2.871   2.626
 3113TIP3    H1 9284   7.469   2.889   2.674
 3113TIP3    H2 9285   7.319   2.875   2.693
 3114TIP3   OH2 9286   7.345   1.781   1.749
 3114TIP3    H1 9287   7.306   1.726   1.817
 3114TIP3    H2 9288   7.392   1.719   1.692
 3115TIP3   OH2 9289   7.810   2.204   2.202
 3115TIP3    H1 9290   7.716   2.221   2.192
 3115TIP3    H2 9291   7.850   2.290   2.207
 3116TIP3   OH2 9292   7.550   2.657   1.266
 3116TIP3    H1 9293   7.563   2.562   1.268
 3116TIP3    H2 9294   7.546   2.682   1.358
 3117TIP3   OH2 9295   7.950   2.913   2.321
 3117TIP3    H1 9296   8.011   2.948   2.386
 3117TIP3    H2 9297   7.917   2.991   2.276
 3118TIP3   OH2 9298   7.243   2.603   1.941
 3118TIP3    H1 9299   7.284   2.591   1.855
 3118TIP3    H2 9300   7.307   2.567   2.002
 3119TIP3   OH2 9301   7.665   2.766   1.038
 3119TIP3    H1 9302   7.643   2.858   1.056
 3119TIP3    H2 9303   7.642   2.720   1.119
 3120TIP3   OH2 9304   7.127   2.536   2.555
 3120TIP3    H1 9305   7.134   2.505   2.646
 3120TIP3    H2 9306   7.057   2.483   2.517
 3121TIP3   OH2 9307   7.867   2.667   2.586
 3121TIP3    H1 9308   7.802   2.621   2.533
 3121TIP3    H2 9309   7.947   2.663   2.533
 3122TIP3   OH2 9310   7.366   2.938   1.585
 3122TIP3    H1 9311   7.364   3.015   1.528
 3122TIP3    H2 9312   7.275   2.926   1.612
 3123TIP3   OH2 9313   6.802   2.301   1.328
 3123TIP3    H1 9314   6.881   2.351   1.346
 3123TIP3    H2 9315   6.737   2.336   1.390
 3124TIP3   OH2 9316   7.500   2.704   1.531
 3124TIP3    H1 9317   7.461   2.790   1.544
 3124TIP3    H2 9318   7.460   2.649   1.597
 3125TIP3   OH2 9319   7.645   3.259   2.039
 3125TIP3    H1 9320   7.682   3.336   1.995
 3125TIP3    H2 9321   7.717   3.226   2.093
 3126TIP3   OH2 9322   7.286   3.162   1.437
 3126TIP3    H1 9323   7.199   3.168   1.477
 3126TIP3    H2 9324   7.319   3.252   1.438
 3127TIP3   OH2 9325   7.336   2.040   2.568
 3127TIP3    H1 9326   7.241   2.048   2.573
 3127TIP3    H2 9327   7.360   1.979   2.637
 3128TIP3   OH2 9328   7.083   3.153   2.201
 3128TIP3    H1 9329   7.135   3.091   2.252
 3128TIP3    H2 9330   7.096   3.237   2.245
 3129TIP3   OH2 9331   7.362   2.838   0.905
 3129TIP3    H1 9332   7.428   2.777   0.873
 3129TIP3    H2 9333   7.358   2.823   1.000
 3130TIP3   OH2 9334   7.312   2.770   1.166
 3130TIP3    H1 9335   7.388   2.734   1.211
 3130TIP3    H2 9336   7.310   2.863   1.191
 3131TIP3   OH2 9337   7.005   2.484   1.393
 3131TIP3    H1 9338   6.947   2.537   1.448
 3131TIP3    H2 9339   7.033   2.543   1.323
 3132TIP3   OH2 9340   7.564   3.007   1.104
 3132TIP3    H1 9341   7.477   3.019   1.143
 3132TIP3    H2 9342   7.607   3.091   1.114
 3133TIP3   OH2 9343   7.308   3.047   1.190
 3133TIP3    H1 9344   7.283   3.114   1.126
 3133TIP3    H2 9345   7.297   3.090   1.275
 3134TIP3   OH2 9346   7.427   1.812   1.458
 3134TIP3    H1 9347   7.372   1.845   1.529
 3134TIP3    H2 9348   7.500   1.874   1.453
 3135TIP3   OH2 9349   7.017   2.715   1.208
 3135TIP3    H1 9350   7.073   2.790   1.227
 3135TIP3    H2 9351   7.055   2.675   1.130
 3136TIP3   OH2 9352   7.006   1.982   1.346
 3136TIP3    H1 9353   7.045   2.062   1.312
 3136TIP3    H2 9354   6.912   1.993   1.330
 3137TIP3   OH2 9355   7.342   1.673   2.170
 3137TIP3    H1 9356   7.320   1.641   2.082
 3137TIP3    H2 9357   7.344   1.594   2.224
 3138TIP3   OH2 9358   6.885   2.925   1.562
 3138TIP3    H1 9359   6.839   2.963   1.638
 3138TIP3    H2 9360   6.841   2.963   1.486
 3139TIP3   OH2 9361   7.083   3.459   2.625
 3139TIP3    H1 9362   7.164   3.463   2.676
 3139TIP3    H2 9363   7.067   3.365   2.613
 3140TIP3   OH2 9364   7.539   3.381   2.655
 3140TIP3    H1 9365   7.626   3.345   2.671
 3140TIP3    H2 9366   7.503   3.326   2.584
 3141TIP3   OH2 9367   7.537   3.027   0.800
 3141TIP3    H1 9368   7.483   2.972   0.858
 3141TIP3    H2 9369   7.599   2.966   0.761
 3142TIP3   OH2 9370   7.185   2.856   2.815
 3142TIP3    H1 9371   7.206   2.763   2.823
 3142TIP3    H2 9372   7.098   2.857   2.775
 3143TIP3   OH2 9373   7.177   2.509   1.088
 3143TIP3    H1 9374   7.218   2.513   1.175
 3143TIP3    H2 9375   7.211   2.586   1.042
 3144TIP3   OH2 9376   7.804   2.943   2.599
 3144TIP3    H1 9377   7.757   2.966   2.519
 3144TIP3    H2 9378   7.827   2.851   2.588
 3145TIP3   OH2 9379   7.845   2.678   0.846
 3145TIP3    H1 9380   7.792   2.731   0.905
 3145TIP3    H2 9381   7.891   2.616   0.903
 3146TIP3   OH2 9382   7.307   2.603   2.820
 3146TIP3    H1 9383   7.383   2.573   2.771
 3146TIP3    H2 9384   7.341   2.622   2.908
 3147TIP3   OH2 9385   7.313   2.463   1.319
 3147TIP3    H1 9386   7.292   2.484   1.410
 3147TIP3    H2 9387   7.309   2.368   1.315
 3148TIP3   OH2 9388   7.613   2.452   2.480
 3148TIP3    H1 9389   7.542   2.514   2.494
 3148TIP3    H2 9390   7.666   2.491   2.411
 3149TIP3   OH2 9391   7.619   2.166   1.110
 3149TIP3    H1 9392   7.569   2.123   1.041
 3149TIP3    H2 9393   7.703   2.122   1.110
 3150TIP3   OH2 9394   7.762   2.267   2.625
 3150TIP3    H1 9395   7.774   2.189   2.571
 3150TIP3    H2 9396   7.716   2.329   2.568
 3151TIP3   OH2 9397   7.766   2.067   2.439
 3151TIP3    H1 9398   7.801   2.094   2.354
 3151TIP3    H2 9399   7.686   2.019   2.418
 3152TIP3   OH2 9400   7.773   2.600   2.309
 3152TIP3    H1 9401   7.858   2.638   2.285
 3152TIP3    H2 9402   7.710   2.646   2.254
 3153TIP3   OH2 9403   7.634   2.346   2.853
 3153TIP3    H1 9404   7.567   2.279   2.862
 3153TIP3    H2 9405   7.676   2.328   2.769
 3154TIP3   OH2 9406   7.475   2.122   2.892
 3154TIP3    H1 9407   7.479   2.035   2.852
 3154TIP3    H2 9408   7.510   2.110   2.980
 3155TIP3   OH2 9409   7.302   3.252   0.997
 3155TIP3    H1 9410   7.397   3.259   0.982
 3155TIP3    H2 9411   7.263   3.305   0.928
 3156TIP3   OH2 9412   6.747   2.685   1.242
 3156TIP3    H1 9413   6.838   2.709   1.223
 3156TIP3    H2 9414   6.731   2.607   1.190
 3157TIP3   OH2 9415   6.682   3.233   1.637
 3157TIP3    H1 9416   6.617   3.179   1.592
 3157TIP3    H2 9417   6.726   3.173   1.697
 3158TIP3   OH2 9418   6.824   3.068   1.808
 3158TIP3    H1 9419   6.815   3.000   1.874
 3158TIP3    H2 9420   6.875   3.137   1.851
 3159TIP3   OH2 9421   6.995   2.499   2.181
 3159TIP3    H1 9422   6.987   2.465   2.092
 3159TIP3    H2 9423   7.089   2.495   2.200
 3160TIP3   OH2 9424   7.215   2.182   2.831
 3160TIP3    H1 9425   7.309   2.178   2.843
 3160TIP3    H2 9426   7.182   2.101   2.870
 3161TIP3   OH2 9427   7.177   1.890   2.196
 3161TIP3    H1 9428   7.232   1.812   2.197
 3161TIP3    H2 9429   7.239   1.963   2.185
 3162TIP3   OH2 9430   6.971   2.159   2.242
 3162TIP3    H1 9431   7.022   2.151   2.161
 3162TIP3    H2 9432   7.005   2.238   2.284
 3163TIP3   OH2 9433   6.959   1.659   1.759
 3163TIP3    H1 9434   6.870   1.644   1.791
 3163TIP3    H2 9435   6.949   1.728   1.693
 3164TIP3   OH2 9436   7.194   1.728   2.570
 3164TIP3    H1 9437   7.143   1.722   2.651
 3164TIP3    H2 9438   7.137   1.773   2.508
 3165TIP3   OH2 9439   7.214   3.177   2.638
 3165TIP3    H1 9440   7.121   3.157   2.631
 3165TIP3    H2 9441   7.233   3.169   2.732
 3166TIP3   OH2 9442   7.420   3.216   2.188
 3166TIP3    H1 9443   7.365   3.287   2.154
 3166TIP3    H2 9444   7.504   3.228   2.145
 3167TIP3   OH2 9445   7.841   3.445   2.312
 3167TIP3    H1 9446   7.875   3.440   2.401
 3167TIP3    H2 9447   7.903   3.503   2.266
 3168TIP3   OH2 9448   8.005   3.626   2.174
 3168TIP3    H1 9449   8.067   3.616   2.102
 3168TIP3    H2 9450   8.025   3.712   2.211
 3169TIP3   OH2 9451   7.082   3.463   2.239
 3169TIP3    H1 9452   6.991   3.482   2.216
 3169TIP3    H2 9453   7.105   3.530   2.303
 3170TIP3   OH2 9454   7.302   3.439   2.079
 3170TIP3    H1 9455   7.221   3.448   2.128
 3170TIP3    H2 9456   7.280   3.469   1.991
 3171TIP3   OH2 9457   7.711   3.480   1.883
 3171TIP3    H1 9458   7.636   3.494   1.825
 3171TIP3    H2 9459   7.721   3.563   1.930
 3172TIP3   OH2 9460   7.949   3.371   1.804
 3172TIP3    H1 9461   7.866   3.408   1.836
 3172TIP3    H2 9462   8.014   3.397   1.869
 3173TIP3   OH2 9463   6.996   3.247   1.953
 3173TIP3    H1 9464   7.020   3.222   2.042
 3173TIP3    H2 9465   7.067   3.213   1.898
 3174TIP3   OH2 9466   7.196   3.129   1.814
 3174TIP3    H1 9467   7.206   3.047   1.862
 3174TIP3    H2 9468   7.283   3.169   1.819
 3175TIP3   OH2 9469   7.461   3.219   1.834
 3175TIP3    H1 9470   7.477   3.125   1.823
 3175TIP3    H2 9471   7.516   3.244   1.909
 3176TIP3   OH2 9472   7.261   1.581   1.920
 3176TIP3    H1 9473   7.173   1.543   1.930
 3176TIP3    H2 9474   7.320   1.506   1.919
 3177TIP3   OH2 9475   7.117   1.474   1.624
 3177TIP3    H1 9476   7.128   1.514   1.538
 3177TIP3    H2 9477   7.062   1.537   1.672
 3178TIP3   OH2 9478   6.766   3.038   1.342
 3178TIP3    H1 9479   6.686   2.996   1.311
 3178TIP3    H2 9480   6.758   3.129   1.312
 3179TIP3   OH2 9481   7.263   1.540   1.384
 3179TIP3    H1 9482   7.266   1.456   1.340
 3179TIP3    H2 9483   7.268   1.605   1.314
 3180TIP3   OH2 9484   7.575   3.256   0.943
 3180TIP3    H1 9485   7.663   3.285   0.919
 3180TIP3    H2 9486   7.562   3.177   0.891
 3181TIP3   OH2 9487   7.479   1.849   2.805
 3181TIP3    H1 9488   7.443   1.775   2.854
 3181TIP3    H2 9489   7.570   1.856   2.834
 3182TIP3   OH2 9490   7.717   1.852   2.947
 3182TIP3    H1 9491   7.798   1.826   2.903
 3182TIP3    H2 9492   7.704   1.787   3.016
 3183TIP3   OH2 9493   6.852   3.059   1.025
 3183TIP3    H1 9494   6.840   3.083   1.117
 3183TIP3    H2 9495   6.938   3.017   1.022
 3184TIP3   OH2 9496   0.418   3.392   3.168
 3184TIP3    H1 9497   0.381   3.478   3.153
 3184TIP3    H2 9498   0.350   3.331   3.140
 3185TIP3   OH2 9499   0.445   3.369   3.583
 3185TIP3    H1 9500   0.497   3.354   3.662
 3185TIP3    H2 9501   0.403   3.286   3.565
 3186TIP3   OH2 9502   8.329   3.297   3.745
 3186TIP3    H1 9503   8.288   3.212   3.761
 3186TIP3    H2 9504   8.364   3.323   3.830
 3187TIP3   OH2 9505   0.682   3.692   3.258
 3187TIP3    H1 9506   0.674   3.625   3.326
 3187TIP3    H2 9507   0.706   3.772   3.305
 3188TIP3   OH2 9508   8.261   3.568   3.624
 3188TIP3    H1 9509   8.166   3.564   3.615
 3188TIP3    H2 9510   8.279   3.657   3.653
 3189TIP3   OH2 9511   7.948   3.148   3.643
 3189TIP3    H1 9512   8.030   3.099   3.653
 3189TIP3    H2 9513   7.945   3.172   3.551
 3190TIP3   OH2 9514   0.348   4.112   3.290
 3190TIP3    H1 9515   0.372   4.056   3.216
 3190TIP3    H2 9516   0.371   4.061   3.368
 3191TIP3   OH2 9517   0.262   3.564   3.624
 3191TIP3    H1 9518   0.322   3.493   3.601
 3191TIP3    H2 9519   0.318   3.640   3.638
 3192TIP3   OH2 9520   1.261   2.924   3.605
 3192TIP3    H1 9521   1.277   3.008   3.647
 3192TIP3    H2 9522   1.289   2.937   3.514
 3193TIP3   OH2 9523   0.650   3.098   3.626
 3193TIP3    H1 9524   0.681   3.010   3.649
 3193TIP3    H2 9525   0.600   3.085   3.545
 3194TIP3   OH2 9526   8.506   2.757   3.572
 3194TIP3    H1 9527   8.482   2.831   3.516
 3194TIP3    H2 9528   8.453   2.684   3.539
 3195TIP3   OH2 9529   0.688   2.847   3.222
 3195TIP3    H1 9530   0.751   2.843   3.294
 3195TIP3    H2 9531   0.737   2.885   3.149
 3196TIP3   OH2 9532   8.195   3.030   3.687
 3196TIP3    H1 9533   8.253   2.978   3.743
 3196TIP3    H2 9534   8.182   2.976   3.609
 3197TIP3   OH2 9535   1.310   3.136   3.780
 3197TIP3    H1 9536   1.232   3.188   3.766
 3197TIP3    H2 9537   1.355   3.179   3.853
 3198TIP3   OH2 9538   8.521   2.749   4.004
 3198TIP3    H1 9539   8.461   2.791   3.942
 3198TIP3    H2 9540   8.475   2.755   4.088
 3199TIP3   OH2 9541   0.271   3.602   3.063
 3199TIP3    H1 9542   0.270   3.593   2.967
 3199TIP3    H2 9543   0.229   3.686   3.079
 3200TIP3   OH2 9544   0.032   3.504   3.761
 3200TIP3    H1 9545   0.031   3.544   3.848
 3200TIP3    H2 9546   0.118   3.527   3.725
 3201TIP3   OH2 9547   0.848   2.877   3.441
 3201TIP3    H1 9548   0.808   2.857   3.526
 3201TIP3    H2 9549   0.905   2.952   3.458
 3202TIP3   OH2 9550   8.399   2.875   3.792
 3202TIP3    H1 9551   8.456   2.951   3.805
 3202TIP3    H2 9552   8.441   2.826   3.721
 3203TIP3   OH2 9553   8.459   3.701   3.941
 3203TIP3    H1 9554   8.440   3.733   3.853
 3203TIP3    H2 9555   8.378   3.660   3.970
 3204TIP3   OH2 9556   0.717   3.943   3.400
 3204TIP3    H1 9557   0.626   3.936   3.429
 3204TIP3    H2 9558   0.719   4.024   3.349
 3205TIP3   OH2 9559   1.059   2.815   3.772
 3205TIP3    H1 9560   0.973   2.845   3.741
 3205TIP3    H2 9561   1.120   2.844   3.704
 3206TIP3   OH2 9562   0.322   2.438   3.758
 3206TIP3    H1 9563   0.319   2.346   3.784
 3206TIP3    H2 9564   0.244   2.476   3.797
 3207TIP3   OH2 9565   0.431   3.970   3.064
 3207TIP3    H1 9566   0.481   3.890   3.051
 3207TIP3    H2 9567   0.488   4.041   3.034
 3208TIP3   OH2 9568   0.571   3.747   3.010
 3208TIP3    H1 9569   0.593   3.678   2.946
 3208TIP3    H2 9570   0.612   3.718   3.091
 3209TIP3   OH2 9571   0.956   3.831   3.742
 3209TIP3    H1 9572   0.943   3.757   3.683
 3209TIP3    H2 9573   0.940   3.909   3.688
 3210TIP3   OH2 9574   0.248   3.234   3.013
 3210TIP3    H1 9575   0.170   3.288   2.997
 3210TIP3    H2 9576   0.295   3.236   2.931
 3211TIP3   OH2 9577   0.242   3.025   2.726
 3211TIP3    H1 9578   0.306   3.081   2.770
 3211TIP3    H2 9579   0.294   2.959   2.681
 3212TIP3   OH2 9580   1.141   3.485   3.612
 3212TIP3    H1 9581   1.058   3.533   3.610
 3212TIP3    H2 9582   1.181   3.502   3.527
 3213TIP3   OH2 9583   0.608   3.332   2.980
 3213TIP3    H1 9584   0.553   3.356   3.054
 3213TIP3    H2 9585   0.690   3.303   3.020
 3214TIP3   OH2 9586   0.840   3.350   3.922
 3214TIP3    H1 9587   0.837   3.434   3.967
 3214TIP3    H2 9588   0.758   3.347   3.872
 3215TIP3   OH2 9589   8.390   3.233   3.395
 3215TIP3    H1 9590   8.354   3.222   3.307
 3215TIP3    H2 9591   8.422   3.147   3.420
 3216TIP3   OH2 9592   0.027   3.500   3.482
 3216TIP3    H1 9593   0.008   3.591   3.459
 3216TIP3    H2 9594   0.121   3.499   3.502
 3217TIP3   OH2 9595   0.467   3.931   3.516
 3217TIP3    H1 9596   0.474   4.009   3.571
 3217TIP3    H2 9597   0.466   3.858   3.577
 3218TIP3   OH2 9598   0.106   3.864   4.102
 3218TIP3    H1 9599   0.081   3.952   4.072
 3218TIP3    H2 9600   0.053   3.804   4.050
 3219TIP3   OH2 9601   0.446   3.187   2.814
 3219TIP3    H1 9602   0.504   3.247   2.860
 3219TIP3    H2 9603   0.468   3.199   2.721
 3220TIP3   OH2 9604   8.323   3.416   4.202
 3220TIP3    H1 9605   8.357   3.503   4.223
 3220TIP3    H2 9606   8.228   3.426   4.204
 3221TIP3   OH2 9607   0.172   3.882   3.085
 3221TIP3    H1 9608   0.265   3.906   3.085
 3221TIP3    H2 9609   0.134   3.936   3.016
 3222TIP3   OH2 9610   8.348   4.127   4.169
 3222TIP3    H1 9611   8.355   4.084   4.084
 3222TIP3    H2 9612   8.327   4.057   4.230
 3223TIP3   OH2 9613   0.951   2.418   2.864
 3223TIP3    H1 9614   0.870   2.437   2.912
 3223TIP3    H2 9615   0.963   2.493   2.806
 3224TIP3   OH2 9616   8.230   3.157   3.178
 3224TIP3    H1 9617   8.172   3.232   3.167
 3224TIP3    H2 9618   8.171   3.081   3.172
 3225TIP3   OH2 9619   0.767   3.791   2.412
 3225TIP3    H1 9620   0.773   3.883   2.387
 3225TIP3    H2 9621   0.856   3.758   2.404
 3226TIP3   OH2 9622   1.189   4.186   3.811
 3226TIP3    H1 9623   1.192   4.092   3.824
 3226TIP3    H2 9624   1.110   4.214   3.858
 3227TIP3   OH2 9625   0.314   3.946   3.928
 3227TIP3    H1 9626   0.322   4.040   3.943
 3227TIP3    H2 9627   0.243   3.918   3.986
 3228TIP3   OH2 9628   0.076   4.049   2.886
 3228TIP3    H1 9629   0.045   4.041   2.796
 3228TIP3    H2 9630   0.066   4.142   2.907
 3229TIP3   OH2 9631   0.293   4.002   2.521
 3229TIP3    H1 9632   0.341   3.929   2.482
 3229TIP3    H2 9633   0.330   4.011   2.609
 3230TIP3   OH2 9634   0.337   4.026   2.793
 3230TIP3    H1 9635   0.250   4.028   2.834
 3230TIP3    H2 9636   0.395   3.997   2.863
 3231TIP3   OH2 9637   1.072   3.314   4.095
 3231TIP3    H1 9638   0.995   3.322   4.039
 3231TIP3    H2 9639   1.095   3.221   4.091
 3232TIP3   OH2 9640   0.087   2.520   3.873
 3232TIP3    H1 9641  -0.001   2.493   3.848
 3232TIP3    H2 9642   0.075   2.605   3.916
 3233TIP3   OH2 9643   0.625   2.665   4.092
 3233TIP3    H1 9644   0.697   2.637   4.148
 3233TIP3    H2 9645   0.546   2.642   4.141
 3234TIP3   OH2 9646   0.839   3.080   3.995
 3234TIP3    H1 9647   0.804   3.075   4.084
 3234TIP3    H2 9648   0.828   3.171   3.970
 3235TIP3   OH2 9649   0.504   3.193   2.549
 3235TIP3    H1 9650   0.467   3.177   2.461
 3235TIP3    H2 9651   0.589   3.232   2.532
 3236TIP3   OH2 9652   0.224   2.550   2.863
 3236TIP3    H1 9653   0.195   2.555   2.954
 3236TIP3    H2 9654   0.145   2.571   2.813
 3237TIP3   OH2 9655   0.052   3.091   3.862
 3237TIP3    H1 9656   0.020   3.079   3.951
 3237TIP3    H2 9657   0.046   3.185   3.846
 3238TIP3   OH2 9658   8.405   2.959   3.419
 3238TIP3    H1 9659   8.315   2.931   3.431
 3238TIP3    H2 9660   8.427   2.930   3.330
 3239TIP3   OH2 9661   0.386   3.032   3.142
 3239TIP3    H1 9662   0.334   3.103   3.103
 3239TIP3    H2 9663   0.448   3.008   3.073
 3240TIP3   OH2 9664   0.579   3.294   4.220
 3240TIP3    H1 9665   0.551   3.228   4.283
 3240TIP3    H2 9666   0.671   3.308   4.240
 3241TIP3   OH2 9667   0.546   3.040   3.374
 3241TIP3    H1 9668   0.483   3.066   3.307
 3241TIP3    H2 9669   0.592   2.965   3.336
 3242TIP3   OH2 9670   8.445   3.057   4.111
 3242TIP3    H1 9671   8.393   3.102   4.178
 3242TIP3    H2 9672   8.465   2.972   4.149
 3243TIP3   OH2 9673   7.946   2.568   3.716
 3243TIP3    H1 9674   8.021   2.623   3.735
 3243TIP3    H2 9675   7.930   2.581   3.622
 3244TIP3   OH2 9676   0.588   3.288   3.808
 3244TIP3    H1 9677   0.617   3.225   3.741
 3244TIP3    H2 9678   0.551   3.234   3.878
 3245TIP3   OH2 9679   0.269   2.761   3.476
 3245TIP3    H1 9680   0.187   2.758   3.525
 3245TIP3    H2 9681   0.337   2.745   3.542
 3246TIP3   OH2 9682   8.175   2.813   3.447
 3246TIP3    H1 9683   8.138   2.805   3.358
 3246TIP3    H2 9684   8.221   2.730   3.461
 3247TIP3   OH2 9685   8.433   2.835   3.179
 3247TIP3    H1 9686   8.527   2.847   3.162
 3247TIP3    H2 9687   8.392   2.857   3.095
 3248TIP3   OH2 9688   0.709   2.832   3.683
 3248TIP3    H1 9689   0.685   2.850   3.773
 3248TIP3    H2 9690   0.645   2.767   3.653
 3249TIP3   OH2 9691   8.300   2.884   2.946
 3249TIP3    H1 9692   8.214   2.920   2.926
 3249TIP3    H2 9693   8.353   2.900   2.868
 3250TIP3   OH2 9694   0.908   4.535   3.898
 3250TIP3    H1 9695   0.898   4.555   3.805
 3250TIP3    H2 9696   0.986   4.584   3.925
 3251TIP3   OH2 9697   8.376   3.670   4.281
 3251TIP3    H1 9698   8.452   3.628   4.320
 3251TIP3    H2 9699   8.305   3.654   4.344
 3252TIP3   OH2 9700   0.341   3.113   3.585
 3252TIP3    H1 9701   0.374   3.054   3.518
 3252TIP3    H2 9702   0.331   3.057   3.663
 3253TIP3   OH2 9703   8.321   2.580   3.465
 3253TIP3    H1 9704   8.294   2.499   3.510
 3253TIP3    H2 9705   8.340   2.553   3.376
 3254TIP3   OH2 9706   0.306   2.995   3.839
 3254TIP3    H1 9707   0.219   3.034   3.843
 3254TIP3    H2 9708   0.361   3.053   3.892
 3255TIP3   OH2 9709   8.527   3.407   2.956
 3255TIP3    H1 9710   8.472   3.332   2.933
 3255TIP3    H2 9711   8.503   3.428   3.046
 3256TIP3   OH2 9712   0.907   3.626   3.565
 3256TIP3    H1 9713   0.945   3.674   3.492
 3256TIP3    H2 9714   0.829   3.584   3.529
 3257TIP3   OH2 9715   0.471   2.714   2.869
 3257TIP3    H1 9716   0.450   2.734   2.777
 3257TIP3    H2 9717   0.507   2.796   2.903
 3258TIP3   OH2 9718   0.406   3.678   3.967
 3258TIP3    H1 9719   0.465   3.677   4.042
 3258TIP3    H2 9720   0.378   3.769   3.959
 3259TIP3   OH2 9721   0.562   2.961   2.935
 3259TIP3    H1 9722   0.657   2.968   2.945
 3259TIP3    H2 9723   0.539   3.036   2.880
 3260TIP3   OH2 9724   0.196   3.531   2.782
 3260TIP3    H1 9725   0.152   3.616   2.776
 3260TIP3    H2 9726   0.140   3.480   2.841
 3261TIP3   OH2 9727   0.365   3.465   4.274
 3261TIP3    H1 9728   0.300   3.399   4.247
 3261TIP3    H2 9729   0.448   3.429   4.242
 3262TIP3   OH2 9730   0.583   3.982   3.855
 3262TIP3    H1 9731   0.488   3.969   3.860
 3262TIP3    H2 9732   0.604   4.031   3.935
 3263TIP3   OH2 9733   0.958   3.046   2.757
 3263TIP3    H1 9734   0.894   3.000   2.703
 3263TIP3    H2 9735   0.964   3.133   2.718
 3264TIP3   OH2 9736   1.201   3.902   3.838
 3264TIP3    H1 9737   1.107   3.892   3.827
 3264TIP3    H2 9738   1.238   3.877   3.753
 3265TIP3   OH2 9739   0.680   3.855   2.670
 3265TIP3    H1 9740   0.664   3.774   2.719
 3265TIP3    H2 9741   0.707   3.825   2.583
 3266TIP3   OH2 9742   0.680   3.490   3.462
 3266TIP3    H1 9743   0.591   3.467   3.489
 3266TIP3    H2 9744   0.716   3.410   3.423
 3267TIP3   OH2 9745   8.279   3.676   3.265
 3267TIP3    H1 9746   8.323   3.701   3.183
 3267TIP3    H2 9747   8.234   3.755   3.293
 3268TIP3   OH2 9748   7.517   1.358   1.387
 3268TIP3    H1 9749   7.612   1.369   1.385
 3268TIP3    H2 9750   7.488   1.411   1.461
 3269TIP3   OH2 9751   8.436   3.449   3.208
 3269TIP3    H1 9752   8.382   3.524   3.234
 3269TIP3    H2 9753   8.463   3.409   3.290
 3270TIP3   OH2 9754   0.129   4.035   3.704
 3270TIP3    H1 9755   0.169   4.108   3.658
 3270TIP3    H2 9756   0.202   3.994   3.752
 3271TIP3   OH2 9757   8.240   3.975   3.105
 3271TIP3    H1 9758   8.168   3.993   3.165
 3271TIP3    H2 9759   8.285   4.059   3.096
 3272TIP3   OH2 9760   0.485   3.713   3.699
 3272TIP3    H1 9761   0.466   3.697   3.791
 3272TIP3    H2 9762   0.575   3.684   3.687
 3273TIP3   OH2 9763   0.464   3.592   2.597
 3273TIP3    H1 9764   0.519   3.579   2.675
 3273TIP3    H2 9765   0.378   3.559   2.622
 3274TIP3   OH2 9766   0.725   4.223   3.747
 3274TIP3    H1 9767   0.650   4.164   3.750
 3274TIP3    H2 9768   0.709   4.277   3.670
 3275TIP3   OH2 9769   0.799   4.067   2.375
 3275TIP3    H1 9770   0.842   4.145   2.339
 3275TIP3    H2 9771   0.717   4.100   2.411
 3276TIP3   OH2 9772   8.414   2.813   4.248
 3276TIP3    H1 9773   8.332   2.775   4.218
 3276TIP3    H2 9774   8.442   2.756   4.320
 3277TIP3   OH2 9775   0.636   3.550   2.812
 3277TIP3    H1 9776   0.617   3.475   2.868
 3277TIP3    H2 9777   0.729   3.541   2.789
 3278TIP3   OH2 9778   8.356   3.526   2.558
 3278TIP3    H1 9779   8.402   3.451   2.521
 3278TIP3    H2 9780   8.269   3.492   2.579
 3279TIP3   OH2 9781   8.265   3.574   2.819
 3279TIP3    H1 9782   8.331   3.557   2.752
 3279TIP3    H2 9783   8.255   3.670   2.819
 3280TIP3   OH2 9784   7.950   3.290   3.126
 3280TIP3    H1 9785   7.960   3.373   3.172
 3280TIP3    H2 9786   8.007   3.297   3.049
 3281TIP3   OH2 9787   0.639   2.896   3.943
 3281TIP3    H1 9788   0.720   2.939   3.969
 3281TIP3    H2 9789   0.636   2.818   3.999
 3282TIP3   OH2 9790   0.534   2.639   3.134
 3282TIP3    H1 9791   0.502   2.674   3.051
 3282TIP3    H2 9792   0.584   2.710   3.173
 3283TIP3   OH2 9793   0.054   3.759   2.793
 3283TIP3    H1 9794   0.031   3.790   2.881
 3283TIP3    H2 9795   0.049   3.837   2.738
 3284TIP3   OH2 9796   0.212   2.832   3.212
 3284TIP3    H1 9797   0.271   2.903   3.186
 3284TIP3    H2 9798   0.229   2.820   3.306
 3285TIP3   OH2 9799   0.486   3.129   4.004
 3285TIP3    H1 9800   0.516   3.174   4.083
 3285TIP3    H2 9801   0.536   3.048   4.003
 3286TIP3   OH2 9802   0.359   2.545   3.324
 3286TIP3    H1 9803   0.340   2.624   3.374
 3286TIP3    H2 9804   0.426   2.571   3.261
 3287TIP3   OH2 9805   8.225   3.843   2.861
 3287TIP3    H1 9806   8.229   3.895   2.781
 3287TIP3    H2 9807   8.223   3.907   2.932
 3288TIP3   OH2 9808   8.384   2.563   3.199
 3288TIP3    H1 9809   8.383   2.658   3.188
 3288TIP3    H2 9810   8.468   2.536   3.163
 3289TIP3   OH2 9811   1.110   3.053   3.999
 3289TIP3    H1 9812   1.015   3.041   3.995
 3289TIP3    H2 9813   1.139   3.043   3.908
 3290TIP3   OH2 9814   0.769   3.233   3.376
 3290TIP3    H1 9815   0.692   3.177   3.389
 3290TIP3    H2 9816   0.837   3.193   3.431
 3291TIP3   OH2 9817   7.919   3.492   2.882
 3291TIP3    H1 9818   7.936   3.572   2.931
 3291TIP3    H2 9819   7.837   3.509   2.835
 3292TIP3   OH2 9820   0.744   4.205   3.301
 3292TIP3    H1 9821   0.709   4.260   3.230
 3292TIP3    H2 9822   0.839   4.215   3.294
 3293TIP3   OH2 9823   8.312   2.469   3.852
 3293TIP3    H1 9824   8.289   2.429   3.768
 3293TIP3    H2 9825   8.323   2.395   3.912
 3294TIP3   OH2 9826   0.087   4.213   4.275
 3294TIP3    H1 9827   0.154   4.145   4.282
 3294TIP3    H2 9828   0.014   4.170   4.231
 3295TIP3   OH2 9829   8.478   3.759   2.481
 3295TIP3    H1 9830   8.434   3.682   2.516
 3295TIP3    H2 9831   8.555   3.725   2.436
 3296TIP3   OH2 9832   0.635   4.098   4.096
 3296TIP3    H1 9833   0.633   4.025   4.158
 3296TIP3    H2 9834   0.713   4.149   4.121
 3297TIP3   OH2 9835   0.412   3.787   2.402
 3297TIP3    H1 9836   0.450   3.727   2.466
 3297TIP3    H2 9837   0.470   3.782   2.326
 3298TIP3   OH2 9838   8.176   3.324   2.634
 3298TIP3    H1 9839   8.192   3.291   2.722
 3298TIP3    H2 9840   8.242   3.281   2.580
 3299TIP3   OH2 9841   0.273   3.731   4.288
 3299TIP3    H1 9842   0.222   3.748   4.208
 3299TIP3    H2 9843   0.310   3.643   4.275
 3300TIP3   OH2 9844   0.172   3.467   2.517
 3300TIP3    H1 9845   0.174   3.485   2.611
 3300TIP3    H2 9846   0.166   3.371   2.511
 3301TIP3   OH2 9847   0.735   3.756   3.887
 3301TIP3    H1 9848   0.815   3.782   3.843
 3301TIP3    H2 9849   0.676   3.831   3.877
 3302TIP3   OH2 9850   8.361   3.348   4.516
 3302TIP3    H1 9851   8.281   3.349   4.464
 3302TIP3    H2 9852   8.351   3.419   4.579
 3303TIP3   OH2 9853   8.390   3.179   2.919
 3303TIP3    H1 9854   8.340   3.148   2.995
 3303TIP3    H2 9855   8.401   3.102   2.864
 3304TIP3   OH2 9856   0.171   3.285   4.174
 3304TIP3    H1 9857   0.114   3.353   4.211
 3304TIP3    H2 9858   0.201   3.321   4.091
 3305TIP3   OH2 9859   8.468   2.965   2.745
 3305TIP3    H1 9860   8.466   2.924   2.659
 3305TIP3    H2 9861   8.560   2.991   2.756
 3306TIP3   OH2 9862   0.628   3.640   4.254
 3306TIP3    H1 9863   0.702   3.608   4.202
 3306TIP3    H2 9864   0.628   3.585   4.332
 3307TIP3   OH2 9865   0.735   3.297   2.444
 3307TIP3    H1 9866   0.736   3.250   2.360
 3307TIP3    H2 9867   0.714   3.387   2.420
 3308TIP3   OH2 9868   0.249   3.036   4.268
 3308TIP3    H1 9869   0.256   2.965   4.204
 3308TIP3    H2 9870   0.224   3.113   4.216
 3309TIP3   OH2 9871   0.267   2.840   4.069
 3309TIP3    H1 9872   0.302   2.875   3.987
 3309TIP3    H2 9873   0.181   2.805   4.045
 3310TIP3   OH2 9874   0.290   3.392   3.950
 3310TIP3    H1 9875   0.362   3.344   3.911
 3310TIP3    H2 9876   0.313   3.484   3.940
 3311TIP3   OH2 9877   0.842   3.324   4.324
 3311TIP3    H1 9878   0.881   3.237   4.331
 3311TIP3    H2 9879   0.914   3.382   4.299
 3312TIP3   OH2 9880   0.861   3.593   4.065
 3312TIP3    H1 9881   0.807   3.651   4.011
 3312TIP3    H2 9882   0.950   3.609   4.034
 3313TIP3   OH2 9883   0.130   3.130   4.498
 3313TIP3    H1 9884   0.084   3.048   4.515
 3313TIP3    H2 9885   0.164   3.120   4.409
 3314TIP3   OH2 9886   0.366   2.603   4.176
 3314TIP3    H1 9887   0.329   2.684   4.140
 3314TIP3    H2 9888   0.301   2.536   4.156
 3315TIP3   OH2 9889   0.498   3.086   4.379
 3315TIP3    H1 9890   0.493   3.073   4.474
 3315TIP3    H2 9891   0.412   3.059   4.347
 3316TIP3   OH2 9892   0.735   3.036   4.240
 3316TIP3    H1 9893   0.657   3.039   4.296
 3316TIP3    H2 9894   0.806   3.011   4.299
 3317TIP3   OH2 9895   0.959   2.997   4.400
 3317TIP3    H1 9896   0.977   2.903   4.405
 3317TIP3    H2 9897   0.955   3.026   4.491
 3318TIP3   OH2 9898   0.012   2.897   4.572
 3318TIP3    H1 9899   0.006   2.816   4.521
 3318TIP3    H2 9900   0.041   2.868   4.659
 3319TIP3   OH2 9901   0.430   2.582   4.439
 3319TIP3    H1 9902   0.498   2.515   4.434
 3319TIP3    H2 9903   0.399   2.593   4.349
 3320TIP3   OH2 9904   0.521   2.801   4.581
 3320TIP3    H1 9905   0.493   2.729   4.524
 3320TIP3    H2 9906   0.448   2.863   4.579
 3321TIP3   OH2 9907   8.264   3.991   2.636
 3321TIP3    H1 9908   8.356   4.011   2.619
 3321TIP3    H2 9909   8.216   4.056   2.583
 3322TIP3   OH2 9910   1.015   4.256   3.306
 3322TIP3    H1 9911   1.035   4.293   3.392
 3322TIP3    H2 9912   1.064   4.311   3.245
 3323TIP3   OH2 9913   1.026   4.297   3.589
 3323TIP3    H1 9914   0.982   4.212   3.580
 3323TIP3    H2 9915   1.099   4.280   3.649
 3324TIP3   OH2 9916   1.076   3.987   4.168
 3324TIP3    H1 9917   1.009   3.997   4.236
 3324TIP3    H2 9918   1.123   4.070   4.168
 3325TIP3   OH2 9919   0.905   3.505   2.773
 3325TIP3    H1 9920   0.966   3.571   2.740
 3325TIP3    H2 9921   0.952   3.463   2.845
 3326TIP3   OH2 9922   1.035   3.361   2.971
 3326TIP3    H1 9923   0.967   3.324   3.027
 3326TIP3    H2 9924   1.099   3.398   3.031
 3327TIP3   OH2 9925   1.083   3.763   3.401
 3327TIP3    H1 9926   1.137   3.696   3.359
 3327TIP3    H2 9927   1.086   3.837   3.341
 3328TIP3   OH2 9928   0.889   4.052   3.593
 3328TIP3    H1 9929   0.822   4.096   3.645
 3328TIP3    H2 9930   0.840   4.012   3.520
 3329TIP3   OH2 9931   0.949   3.281   2.615
 3329TIP3    H1 9932   0.878   3.281   2.550
 3329TIP3    H2 9933   0.934   3.361   2.666
 3330TIP3   OH2 9934   0.776   2.924   2.598
 3330TIP3    H1 9935   0.734   2.952   2.517
 3330TIP3    H2 9936   0.760   2.830   2.602
 3331TIP3   OH2 9937   0.832   3.224   3.107
 3331TIP3    H1 9938   0.842   3.130   3.094
 3331TIP3    H2 9939   0.815   3.233   3.201
 3332TIP3   OH2 9940   1.117   3.643   3.969
 3332TIP3    H1 9941   1.180   3.573   3.950
 3332TIP3    H2 9942   1.140   3.712   3.907
 3333TIP3   OH2 9943   1.284   3.425   3.957
 3333TIP3    H1 9944   1.213   3.386   4.009
 3333TIP3    H2 9945   1.360   3.371   3.977
 3334TIP3   OH2 9946   0.732   2.648   2.593
 3334TIP3    H1 9947   0.818   2.632   2.630
 3334TIP3    H2 9948   0.738   2.614   2.503
 3335TIP3   OH2 9949   0.838   2.950   2.997
 3335TIP3    H1 9950   0.882   2.865   3.009
 3335TIP3    H2 9951   0.883   2.989   2.922
 3336TIP3   OH2 9952   0.985   3.110   3.513
 3336TIP3    H1 9953   1.065   3.129   3.465
 3336TIP3    H2 9954   0.998   3.150   3.599
 3337TIP3   OH2 9955   1.057   3.259   3.744
 3337TIP3    H1 9956   0.984   3.290   3.797
 3337TIP3    H2 9957   1.089   3.337   3.699
 3338TIP3   OH2 9958   8.163   2.879   4.667
 3338TIP3    H1 9959   8.211   2.951   4.625
 3338TIP3    H2 9960   8.087   2.865   4.610
 3339TIP3   OH2 9961   1.520   2.845   4.280
 3339TIP3    H1 9962   1.584   2.796   4.229
 3339TIP3    H2 9963   1.478   2.903   4.216
 3340TIP3   OH2 9964   0.940   2.694   3.044
 3340TIP3    H1 9965   0.986   2.679   3.127
 3340TIP3    H2 9966   0.879   2.621   3.037
 3341TIP3   OH2 9967   8.183   2.696   3.766
 3341TIP3    H1 9968   8.229   2.614   3.782
 3341TIP3    H2 9969   8.249   2.764   3.782
 3342TIP3   OH2 9970   1.364   2.976   4.098
 3342TIP3    H1 9971   1.285   3.021   4.127
 3342TIP3    H2 9972   1.332   2.905   4.041
 3343TIP3   OH2 9973   0.996   2.612   2.670
 3343TIP3    H1 9974   1.046   2.552   2.615
 3343TIP3    H2 9975   1.051   2.691   2.674
 3344TIP3   OH2 9976   0.564   4.180   2.954
 3344TIP3    H1 9977   0.614   4.166   2.874
 3344TIP3    H2 9978   0.611   4.248   3.001
 3345TIP3   OH2 9979   8.017   2.540   4.383
 3345TIP3    H1 9980   7.931   2.505   4.406
 3345TIP3    H2 9981   8.045   2.488   4.308
 3346TIP3   OH2 9982   8.322   3.976   3.931
 3346TIP3    H1 9983   8.338   4.059   3.887
 3346TIP3    H2 9984   8.350   3.909   3.868
 3347TIP3   OH2 9985   0.354   4.212   3.978
 3347TIP3    H1 9986   0.372   4.221   4.071
 3347TIP3    H2 9987   0.419   4.268   3.935
 3348TIP3   OH2 9988   0.528   4.392   3.873
 3348TIP3    H1 9989   0.605   4.347   3.838
 3348TIP3    H2 9990   0.563   4.453   3.938
 3349TIP3   OH2 9991   1.253   2.750   3.971
 3349TIP3    H1 9992   1.177   2.779   3.920
 3349TIP3    H2 9993   1.251   2.655   3.962
 3350TIP3   OH2 9994   8.360   4.191   3.770
 3350TIP3    H1 9995   8.280   4.242   3.774
 3350TIP3    H2 9996   8.362   4.157   3.680
 3351TIP3   OH2 9997   0.221   4.246   3.551
 3351TIP3    H1 9998   0.249   4.280   3.465
 3351TIP3    H2 9999   0.207   4.324   3.604
 3352TIP3   OH210000   0.476   4.181   3.622
 3352TIP3    H110001   0.385   4.207   3.611
 3352TIP3    H210002   0.526   4.251   3.581
 3353TIP3   OH210003   0.661   4.358   3.515
 3353TIP3    H110004   0.653   4.448   3.482
 3353TIP3    H210005   0.688   4.307   3.439
 3354TIP3   OH210006   8.182   3.888   3.403
 3354TIP3    H110007   8.098   3.874   3.446
 3354TIP3    H210008   8.230   3.946   3.462
 3355TIP3   OH210009   8.411   4.048   3.531
 3355TIP3    H110010   8.438   4.011   3.448
 3355TIP3    H210011   8.487   4.035   3.589
 3356TIP3   OH210012   0.490   2.643   3.610
 3356TIP3    H110013   0.449   2.570   3.657
 3356TIP3    H210014   0.558   2.601   3.557
 3357TIP3   OH210015   1.002   2.559   3.508
 3357TIP3    H110016   1.036   2.609   3.433
 3357TIP3    H210017   0.910   2.583   3.514
 3358TIP3   OH210018   1.099   2.643   3.266
 3358TIP3    H110019   1.166   2.584   3.232
 3358TIP3    H210020   1.136   2.731   3.256
 3359TIP3   OH210021   8.240   2.359   3.611
 3359TIP3    H110022   8.150   2.332   3.628
 3359TIP3    H210023   8.289   2.277   3.603
 3360TIP3   OH210024   0.202   2.400   3.505
 3360TIP3    H110025   0.251   2.456   3.444
 3360TIP3    H210026   0.240   2.418   3.590
 3361TIP3   OH210027   0.708   2.522   3.483
 3361TIP3    H110028   0.742   2.484   3.402
 3361TIP3    H210029   0.708   2.449   3.545
 3362TIP3   OH210030   0.748   2.482   3.044
 3362TIP3    H110031   0.673   2.531   3.077
 3362TIP3    H210032   0.739   2.395   3.083
 3363TIP3   OH210033   0.159   2.576   3.127
 3363TIP3    H110034   0.211   2.533   3.195
 3363TIP3    H210035   0.168   2.669   3.146
 3364TIP3   OH210036   0.039   3.985   2.618
 3364TIP3    H110037   0.123   4.012   2.583
 3364TIP3    H210038   0.012   3.912   2.562
 3365TIP3   OH210039   0.706   4.123   2.723
 3365TIP3    H110040   0.702   4.028   2.711
 3365TIP3    H210041   0.677   4.159   2.639
 3366TIP3   OH210042   8.489   2.640   4.460
 3366TIP3    H110043   8.418   2.626   4.522
 3366TIP3    H210044   8.569   2.622   4.509
 3367TIP3   OH210045   0.220   2.624   4.618
 3367TIP3    H110046   0.294   2.614   4.558
 3367TIP3    H210047   0.223   2.546   4.674
 3368TIP3   OH210048   1.031   2.727   4.403
 3368TIP3    H110049   1.045   2.700   4.494
 3368TIP3    H210050   1.116   2.713   4.361
 3369TIP3   OH210051   0.944   4.262   3.915
 3369TIP3    H110052   0.871   4.233   3.860
 3369TIP3    H210053   0.936   4.358   3.918
 3370TIP3   OH210054   2.219   3.651   2.650
 3370TIP3    H110055   2.189   3.738   2.624
 3370TIP3    H210056   2.148   3.592   2.625
 3371TIP3   OH210057   2.213   3.642   3.070
 3371TIP3    H110058   2.264   3.626   3.149
 3371TIP3    H210059   2.170   3.559   3.051
 3372TIP3   OH210060   1.515   3.504   3.422
 3372TIP3    H110061   1.553   3.450   3.492
 3372TIP3    H210062   1.590   3.530   3.369
 3373TIP3   OH210063   2.479   3.951   2.745
 3373TIP3    H110064   2.470   3.884   2.813
 3373TIP3    H210065   2.503   4.031   2.793
 3374TIP3   OH210066   1.504   3.936   3.114
 3374TIP3    H110067   1.487   3.842   3.118
 3374TIP3    H210068   1.599   3.943   3.101
 3375TIP3   OH210069   1.189   3.136   2.897
 3375TIP3    H110070   1.150   3.221   2.920
 3375TIP3    H210071   1.119   3.090   2.850
 3376TIP3   OH210072   1.264   3.442   3.113
 3376TIP3    H110073   1.315   3.365   3.138
 3376TIP3    H210074   1.328   3.504   3.078
 3377TIP3   OH210075   2.138   4.384   2.757
 3377TIP3    H110076   2.166   4.318   2.694
 3377TIP3    H210077   2.137   4.338   2.841
 3378TIP3   OH210078   2.020   3.864   3.079
 3378TIP3    H110079   2.064   3.785   3.049
 3378TIP3    H210080   2.091   3.921   3.110
 3379TIP3   OH210081   3.054   3.188   3.088
 3379TIP3    H110082   3.073   3.270   3.134
 3379TIP3    H210083   3.078   3.206   2.997
 3380TIP3   OH210084   2.427   3.357   3.113
 3380TIP3    H110085   2.465   3.274   3.142
 3380TIP3    H210086   2.392   3.337   3.026
 3381TIP3   OH210087   1.783   3.009   3.070
 3381TIP3    H110088   1.762   3.086   3.017
 3381TIP3    H210089   1.723   2.941   3.037
 3382TIP3   OH210090   2.480   3.112   2.706
 3382TIP3    H110091   2.543   3.104   2.777
 3382TIP3    H210092   2.530   3.147   2.632
 3383TIP3   OH210093   1.408   3.222   3.203
 3383TIP3    H110094   1.491   3.204   3.247
 3383TIP3    H210095   1.413   3.172   3.121
 3384TIP3   OH210096   1.829   3.427   3.017
 3384TIP3    H110097   1.924   3.411   3.022
 3384TIP3    H210098   1.793   3.345   2.983
 3385TIP3   OH210099   3.112   3.404   3.255
 3385TIP3    H110100   3.022   3.438   3.253
 3385TIP3    H210101   3.150   3.440   3.335
 3386TIP3   OH210102   1.774   3.010   3.526
 3386TIP3    H110103   1.719   3.041   3.454
 3386TIP3    H210104   1.721   3.024   3.605
 3387TIP3   OH210105   2.118   3.868   2.509
 3387TIP3    H110106   2.077   3.841   2.426
 3387TIP3    H210107   2.064   3.942   2.538
 3388TIP3   OH210108   1.862   3.788   3.294
 3388TIP3    H110109   1.807   3.859   3.328
 3388TIP3    H210110   1.910   3.827   3.221
 3389TIP3   OH210111   2.642   3.133   2.924
 3389TIP3    H110112   2.601   3.113   3.009
 3389TIP3    H210113   2.699   3.207   2.942
 3390TIP3   OH210114   1.654   3.115   3.296
 3390TIP3    H110115   1.709   3.190   3.320
 3390TIP3    H210116   1.702   3.073   3.225
 3391TIP3   OH210117   1.703   3.991   3.396
 3391TIP3    H110118   1.687   4.080   3.363
 3391TIP3    H210119   1.626   3.971   3.449
 3392TIP3   OH210120   1.085   3.683   2.663
 3392TIP3    H110121   1.055   3.698   2.573
 3392TIP3    H210122   1.113   3.769   2.694
 3393TIP3   OH210123   2.519   4.198   2.885
 3393TIP3    H110124   2.432   4.190   2.924
 3393TIP3    H210125   2.517   4.283   2.840
 3394TIP3   OH210126   2.839   3.104   3.253
 3394TIP3    H110127   2.756   3.126   3.210
 3394TIP3    H210128   2.905   3.124   3.187
 3395TIP3   OH210129   2.133   2.749   3.246
 3395TIP3    H110130   2.102   2.690   3.177
 3395TIP3    H210131   2.054   2.774   3.293
 3396TIP3   OH210132   2.226   4.231   2.541
 3396TIP3    H110133   2.278   4.151   2.532
 3396TIP3    H210134   2.284   4.301   2.512
 3397TIP3   OH210135   2.365   4.000   2.499
 3397TIP3    H110136   2.292   3.939   2.497
 3397TIP3    H210137   2.415   3.977   2.577
 3398TIP3   OH210138   2.752   4.091   3.229
 3398TIP3    H110139   2.737   4.015   3.172
 3398TIP3    H210140   2.738   4.167   3.171
 3399TIP3   OH210141   2.047   3.489   2.501
 3399TIP3    H110142   1.966   3.537   2.484
 3399TIP3    H210143   2.093   3.489   2.418
 3400TIP3   OH210144   2.018   3.297   2.196
 3400TIP3    H110145   2.082   3.348   2.245
 3400TIP3    H210146   2.069   3.229   2.152
 3401TIP3   OH210147   2.932   3.739   3.095
 3401TIP3    H110148   2.850   3.788   3.093
 3401TIP3    H210149   2.974   3.759   3.011
 3402TIP3   OH210150   2.403   3.580   2.461
 3402TIP3    H110151   2.349   3.609   2.534
 3402TIP3    H210152   2.486   3.554   2.501
 3403TIP3   OH210153   2.630   3.604   3.403
 3403TIP3    H110154   2.632   3.689   3.448
 3403TIP3    H210155   2.548   3.604   3.355
 3404TIP3   OH210156   1.626   3.559   2.869
 3404TIP3    H110157   1.589   3.499   2.804
 3404TIP3    H210158   1.700   3.510   2.906
 3405TIP3   OH210159   1.764   3.982   3.008
 3405TIP3    H110160   1.739   3.966   2.917
 3405TIP3    H210161   1.851   3.943   3.017
 3406TIP3   OH210162   1.729   3.553   3.244
 3406TIP3    H110163   1.768   3.518   3.163
 3406TIP3    H210164   1.778   3.634   3.261
 3407TIP3   OH210165   2.282   4.190   3.017
 3407TIP3    H110166   2.270   4.270   3.069
 3407TIP3    H210167   2.267   4.119   3.080
 3408TIP3   OH210168   1.902   4.093   3.561
 3408TIP3    H110169   1.841   4.151   3.609
 3408TIP3    H210170   1.845   4.041   3.504
 3409TIP3   OH210171   2.236   3.441   2.293
 3409TIP3    H110172   2.296   3.499   2.341
 3409TIP3    H210173   2.264   3.448   2.202
 3410TIP3   OH210174   1.662   3.650   3.697
 3410TIP3    H110175   1.662   3.743   3.721
 3410TIP3    H210176   1.569   3.628   3.688
 3411TIP3   OH210177   1.981   4.105   2.555
 3411TIP3    H110178   2.061   4.157   2.558
 3411TIP3    H210179   1.918   4.160   2.507
 3412TIP3   OH210180   1.690   4.251   3.646
 3412TIP3    H110181   1.666   4.260   3.554
 3412TIP3    H210182   1.607   4.236   3.691
 3413TIP3   OH210183   2.744   2.666   2.349
 3413TIP3    H110184   2.667   2.686   2.402
 3413TIP3    H210185   2.757   2.743   2.294
 3414TIP3   OH210186   1.499   3.400   2.668
 3414TIP3    H110187   1.425   3.448   2.632
 3414TIP3    H210188   1.467   3.310   2.679
 3415TIP3   OH210189   2.564   4.040   1.901
 3415TIP3    H110190   2.561   4.134   1.885
 3415TIP3    H210191   2.654   4.015   1.881
 3416TIP3   OH210192   1.283   3.806   3.598
 3416TIP3    H110193   1.216   3.787   3.532
 3416TIP3    H210194   1.319   3.721   3.622
 3417TIP3   OH210195   1.130   3.997   3.247
 3417TIP3    H110196   1.224   4.014   3.248
 3417TIP3    H210197   1.091   4.077   3.282
 3418TIP3   OH210198   2.983   4.443   3.298
 3418TIP3    H110199   2.989   4.348   3.313
 3418TIP3    H210200   2.904   4.470   3.346
 3419TIP3   OH210201   2.091   4.235   3.422
 3419TIP3    H110202   2.084   4.326   3.452
 3419TIP3    H210203   2.024   4.188   3.472
 3420TIP3   OH210204   1.870   4.339   2.376
 3420TIP3    H110205   1.816   4.318   2.300
 3420TIP3    H210206   1.834   4.422   2.408
 3421TIP3   OH210207   1.308   4.189   2.760
 3421TIP3    H110208   1.349   4.183   2.846
 3421TIP3    H210209   1.256   4.109   2.753
 3422TIP3   OH210210   2.071   4.264   2.004
 3422TIP3    H110211   2.123   4.191   1.970
 3422TIP3    H210212   2.104   4.277   2.093
 3423TIP3   OH210213   2.122   4.307   2.274
 3423TIP3    H110214   2.036   4.313   2.314
 3423TIP3    H210215   2.178   4.270   2.342
 3424TIP3   OH210216   2.873   3.560   3.572
 3424TIP3    H110217   2.792   3.568   3.521
 3424TIP3    H210218   2.894   3.467   3.570
 3425TIP3   OH210219   1.488   3.989   3.569
 3425TIP3    H110220   1.537   3.976   3.650
 3425TIP3    H210221   1.414   3.928   3.575
 3426TIP3   OH210222   1.889   2.802   3.374
 3426TIP3    H110223   1.805   2.763   3.349
 3426TIP3    H210224   1.865   2.872   3.435
 3427TIP3   OH210225   2.410   2.910   3.570
 3427TIP3    H110226   2.480   2.892   3.634
 3427TIP3    H210227   2.329   2.905   3.621
 3428TIP3   OH210228   2.629   3.341   3.492
 3428TIP3    H110229   2.590   3.338   3.579
 3428TIP3    H210230   2.617   3.431   3.463
 3429TIP3   OH210231   2.311   3.424   2.029
 3429TIP3    H110232   2.269   3.426   1.943
 3429TIP3    H210233   2.393   3.472   2.017
 3430TIP3   OH210234   2.021   2.843   2.347
 3430TIP3    H110235   1.985   2.850   2.435
 3430TIP3    H210236   1.987   2.760   2.313
 3431TIP3   OH210237   1.807   3.328   3.385
 3431TIP3    H110238   1.764   3.335   3.471
 3431TIP3    H210239   1.785   3.409   3.340
 3432TIP3   OH210240   1.688   3.212   2.912
 3432TIP3    H110241   1.599   3.190   2.936
 3432TIP3    H210242   1.699   3.178   2.824
 3433TIP3   OH210243   2.171   3.285   2.637
 3433TIP3    H110244   2.124   3.358   2.597
 3433TIP3    H210245   2.230   3.253   2.568
 3434TIP3   OH210246   2.358   3.553   3.710
 3434TIP3    H110247   2.330   3.486   3.772
 3434TIP3    H210248   2.450   3.570   3.731
 3435TIP3   OH210249   2.336   3.298   2.862
 3435TIP3    H110250   2.269   3.321   2.797
 3435TIP3    H210251   2.383   3.225   2.823
 3436TIP3   OH210252   1.646   3.337   3.611
 3436TIP3    H110253   1.689   3.394   3.675
 3436TIP3    H210254   1.631   3.255   3.658
 3437TIP3   OH210255   1.688   2.822   2.327
 3437TIP3    H110256   1.675   2.826   2.421
 3437TIP3    H210257   1.612   2.866   2.290
 3438TIP3   OH210258   1.231   2.866   3.196
 3438TIP3    H110259   1.306   2.900   3.246
 3438TIP3    H210260   1.265   2.854   3.108
 3439TIP3   OH210261   1.144   2.849   2.690
 3439TIP3    H110262   1.186   2.880   2.610
 3439TIP3    H210263   1.082   2.919   2.713
 3440TIP3   OH210264   2.372   3.556   3.288
 3440TIP3    H110265   2.398   3.489   3.224
 3440TIP3    H210266   2.332   3.506   3.359
 3441TIP3   OH210267   2.048   2.991   2.959
 3441TIP3    H110268   1.974   3.006   3.017
 3441TIP3    H210269   2.125   2.995   3.016
 3442TIP3   OH210270   1.449   3.086   2.969
 3442TIP3    H110271   1.361   3.092   2.934
 3442TIP3    H210272   1.477   2.996   2.949
 3443TIP3   OH210273   1.707   3.086   2.670
 3443TIP3    H110274   1.801   3.098   2.657
 3443TIP3    H210275   1.667   3.106   2.585
 3444TIP3   OH210276   2.508   3.097   3.166
 3444TIP3    H110277   2.489   3.110   3.259
 3444TIP3    H210278   2.436   3.041   3.136
 3445TIP3   OH210279   1.590   3.115   2.428
 3445TIP3    H110280   1.524   3.068   2.376
 3445TIP3    H210281   1.645   3.157   2.362
 3446TIP3   OH210282   2.698   4.793   3.391
 3446TIP3    H110283   2.697   4.809   3.297
 3446TIP3    H210284   2.777   4.839   3.422
 3447TIP3   OH210285   1.638   3.908   3.803
 3447TIP3    H110286   1.720   3.928   3.849
 3447TIP3    H210287   1.570   3.914   3.870
 3448TIP3   OH210288   2.102   3.369   3.064
 3448TIP3    H110289   2.174   3.325   3.019
 3448TIP3    H210290   2.101   3.332   3.151
 3449TIP3   OH210291   1.597   2.838   2.948
 3449TIP3    H110292   1.565   2.763   2.998
 3449TIP3    H210293   1.609   2.804   2.860
 3450TIP3   OH210294   2.076   3.279   3.329
 3450TIP3    H110295   1.989   3.309   3.354
 3450TIP3    H210296   2.136   3.329   3.385
 3451TIP3   OH210297   1.818   3.636   2.450
 3451TIP3    H110298   1.746   3.575   2.431
 3451TIP3    H210299   1.792   3.676   2.533
 3452TIP3   OH210300   2.699   3.885   3.053
 3452TIP3    H110301   2.736   3.932   2.978
 3452TIP3    H210302   2.620   3.843   3.019
 3453TIP3   OH210303   2.273   2.949   2.343
 3453TIP3    H110304   2.180   2.928   2.344
 3453TIP3    H210305   2.276   3.043   2.361
 3454TIP3   OH210306   2.215   3.964   3.461
 3454TIP3    H110307   2.267   3.952   3.541
 3454TIP3    H210308   2.177   4.051   3.471
 3455TIP3   OH210309   2.334   3.210   2.419
 3455TIP3    H110310   2.429   3.213   2.431
 3455TIP3    H210311   2.313   3.289   2.370
 3456TIP3   OH210312   1.500   3.648   3.099
 3456TIP3    H110313   1.536   3.629   3.012
 3456TIP3    H210314   1.567   3.616   3.160
 3457TIP3   OH210315   1.963   3.793   2.284
 3457TIP3    H110316   1.916   3.877   2.284
 3457TIP3    H210317   1.910   3.736   2.339
 3458TIP3   OH210318   1.389   3.587   3.737
 3458TIP3    H110319   1.413   3.576   3.829
 3458TIP3    H210320   1.319   3.523   3.722
 3459TIP3   OH210321   2.128   3.712   3.743
 3459TIP3    H110322   2.063   3.655   3.702
 3459TIP3    H210323   2.213   3.673   3.719
 3460TIP3   OH210324   2.360   4.253   3.341
 3460TIP3    H110325   2.266   4.239   3.348
 3460TIP3    H210326   2.385   4.292   3.425
 3461TIP3   OH210327   2.753   3.297   2.239
 3461TIP3    H110328   2.696   3.251   2.177
 3461TIP3    H210329   2.758   3.387   2.206
 3462TIP3   OH210330   3.000   4.160   3.323
 3462TIP3    H110331   2.905   4.149   3.315
 3462TIP3    H210332   3.034   4.133   3.238
 3463TIP3   OH210333   2.488   4.113   2.171
 3463TIP3    H110334   2.460   4.046   2.234
 3463TIP3    H210335   2.504   4.064   2.090
 3464TIP3   OH210336   2.470   3.749   2.949
 3464TIP3    H110337   2.380   3.727   2.974
 3464TIP3    H210338   2.505   3.668   2.913
 3465TIP3   OH210339   1.616   3.983   2.763
 3465TIP3    H110340   1.614   4.060   2.706
 3465TIP3    H210341   1.525   3.968   2.786
 3466TIP3   OH210342   1.183   3.258   2.465
 3466TIP3    H110343   1.226   3.342   2.480
 3466TIP3    H210344   1.103   3.263   2.517
 3467TIP3   OH210345   1.720   3.741   2.678
 3467TIP3    H110346   1.695   3.830   2.705
 3467TIP3    H210347   1.688   3.685   2.749
 3468TIP3   OH210348   1.905   4.306   3.217
 3468TIP3    H110349   1.941   4.379   3.167
 3468TIP3    H210350   1.978   4.273   3.268
 3469TIP3   OH210351   1.538   4.209   2.612
 3469TIP3    H110352   1.452   4.213   2.652
 3469TIP3    H210353   1.571   4.299   2.616
 3470TIP3   OH210354   2.258   3.967   3.188
 3470TIP3    H110355   2.244   3.963   3.283
 3470TIP3    H210356   2.336   3.915   3.173
 3471TIP3   OH210357   2.248   3.847   2.061
 3471TIP3    H110358   2.302   3.820   2.135
 3471TIP3    H210359   2.162   3.809   2.078
 3472TIP3   OH210360   2.514   4.469   3.230
 3472TIP3    H110361   2.443   4.406   3.244
 3472TIP3    H210362   2.483   4.524   3.158
 3473TIP3   OH210363   2.569   4.315   1.869
 3473TIP3    H110364   2.603   4.385   1.812
 3473TIP3    H210365   2.494   4.355   1.913
 3474TIP3   OH210366   1.610   3.082   3.743
 3474TIP3    H110367   1.516   3.080   3.756
 3474TIP3    H210368   1.646   3.033   3.817
 3475TIP3   OH210369   2.427   3.760   2.249
 3475TIP3    H110370   2.410   3.709   2.328
 3475TIP3    H210371   2.522   3.769   2.245
 3476TIP3   OH210372   1.332   4.203   3.377
 3476TIP3    H110373   1.385   4.141   3.428
 3476TIP3    H210374   1.350   4.288   3.416
 3477TIP3   OH210375   1.591   3.818   2.069
 3477TIP3    H110376   1.598   3.727   2.040
 3477TIP3    H210377   1.577   3.813   2.163
 3478TIP3   OH210378   1.545   3.838   2.342
 3478TIP3    H110379   1.606   3.808   2.409
 3478TIP3    H210380   1.546   3.933   2.349
 3479TIP3   OH210381   1.277   3.513   2.548
 3479TIP3    H110382   1.213   3.558   2.602
 3479TIP3    H210383   1.291   3.573   2.474
 3480TIP3   OH210384   2.442   3.147   3.428
 3480TIP3    H110385   2.518   3.193   3.462
 3480TIP3    H210386   2.435   3.068   3.482
 3481TIP3   OH210387   2.331   2.895   2.613
 3481TIP3    H110388   2.313   2.915   2.521
 3481TIP3    H210389   2.375   2.973   2.646
 3482TIP3   OH210390   1.821   4.024   2.284
 3482TIP3    H110391   1.735   4.044   2.321
 3482TIP3    H210392   1.840   4.097   2.225
 3483TIP3   OH210393   1.986   3.093   2.706
 3483TIP3    H110394   2.048   3.162   2.682
 3483TIP3    H210395   2.008   3.072   2.796
 3484TIP3   OH210396   2.281   3.388   3.487
 3484TIP3    H110397   2.307   3.433   3.568
 3484TIP3    H210398   2.332   3.307   3.488
 3485TIP3   OH210399   2.147   2.786   2.790
 3485TIP3    H110400   2.126   2.862   2.845
 3485TIP3    H210401   2.216   2.818   2.732
 3486TIP3   OH210402   1.570   4.110   2.359
 3486TIP3    H110403   1.546   4.181   2.299
 3486TIP3    H210404   1.556   4.146   2.446
 3487TIP3   OH210405   1.662   2.815   2.609
 3487TIP3    H110406   1.651   2.906   2.634
 3487TIP3    H210407   1.757   2.801   2.610
 3488TIP3   OH210408   2.894   3.286   3.474
 3488TIP3    H110409   2.800   3.296   3.486
 3488TIP3    H210410   2.902   3.231   3.396
 3489TIP3   OH210411   2.562   3.491   2.862
 3489TIP3    H110412   2.485   3.435   2.876
 3489TIP3    H210413   2.630   3.452   2.916
 3490TIP3   OH210414   1.295   3.707   2.344
 3490TIP3    H110415   1.365   3.772   2.351
 3490TIP3    H210416   1.328   3.642   2.282
 3491TIP3   OH210417   1.214   2.975   2.459
 3491TIP3    H110418   1.216   3.070   2.453
 3491TIP3    H210419   1.190   2.946   2.371
 3492TIP3   OH210420   2.541   4.467   2.804
 3492TIP3    H110421   2.500   4.517   2.734
 3492TIP3    H210422   2.635   4.478   2.790
 3493TIP3   OH210423   1.622   2.712   3.331
 3493TIP3    H110424   1.587   2.684   3.246
 3493TIP3    H210425   1.620   2.633   3.385
 3494TIP3   OH210426   1.146   3.951   2.739
 3494TIP3    H110427   1.092   3.992   2.807
 3494TIP3    H210428   1.110   3.986   2.657
 3495TIP3   OH210429   1.334   4.504   3.802
 3495TIP3    H110430   1.416   4.511   3.850
 3495TIP3    H210431   1.324   4.411   3.784
 3496TIP3   OH210432   1.796   4.417   3.840
 3496TIP3    H110433   1.887   4.389   3.851
 3496TIP3    H210434   1.763   4.363   3.768
 3497TIP3   OH210435   1.760   4.008   1.962
 3497TIP3    H110436   1.707   3.942   2.007
 3497TIP3    H210437   1.835   3.960   1.928
 3498TIP3   OH210438   2.416   4.360   3.587
 3498TIP3    H110439   2.423   4.287   3.648
 3498TIP3    H210440   2.492   4.415   3.606
 3499TIP3   OH210441   2.203   4.054   1.887
 3499TIP3    H110442   2.232   3.990   1.951
 3499TIP3    H210443   2.266   4.046   1.814
 3500TIP3   OH210444   1.433   3.899   3.992
 3500TIP3    H110445   1.453   3.806   4.002
 3500TIP3    H210446   1.347   3.900   3.950
 3501TIP3   OH210447   1.450   3.529   2.213
 3501TIP3    H110448   1.510   3.502   2.283
 3501TIP3    H210449   1.505   3.532   2.134
 3502TIP3   OH210450   2.055   3.987   3.765
 3502TIP3    H110451   2.012   4.007   3.682
 3502TIP3    H210452   2.093   3.900   3.753
 3503TIP3   OH210453   1.978   3.736   2.016
 3503TIP3    H110454   1.961   3.749   2.110
 3503TIP3    H210455   1.964   3.643   2.002
 3504TIP3   OH210456   2.529   4.027   3.378
 3504TIP3    H110457   2.607   4.056   3.331
 3504TIP3    H210458   2.464   4.096   3.362
 3505TIP3   OH210459   1.548   3.638   3.985
 3505TIP3    H110460   1.628   3.628   3.933
 3505TIP3    H210461   1.578   3.658   4.073
 3506TIP3   OH210462   1.623   3.448   2.415
 3506TIP3    H110463   1.588   3.418   2.499
 3506TIP3    H210464   1.661   3.369   2.376
 3507TIP3   OH210465   1.895   3.512   3.642
 3507TIP3    H110466   1.820   3.570   3.658
 3507TIP3    H210467   1.937   3.549   3.564
 3508TIP3   OH210468   1.749   3.257   2.256
 3508TIP3    H110469   1.714   3.271   2.168
 3508TIP3    H210470   1.843   3.267   2.247
 3509TIP3   OH210471   2.413   3.900   3.743
 3509TIP3    H110472   2.485   3.862   3.692
 3509TIP3    H210473   2.412   3.849   3.824
 3510TIP3   OH210474   2.532   3.557   1.925
 3510TIP3    H110475   2.520   3.515   1.840
 3510TIP3    H210476   2.506   3.648   1.911
 3511TIP3   OH210477   2.016   3.300   3.762
 3511TIP3    H110478   2.024   3.229   3.699
 3511TIP3    H210479   1.978   3.373   3.713
 3512TIP3   OH210480   2.028   3.108   3.557
 3512TIP3    H110481   2.055   3.145   3.472
 3512TIP3    H210482   1.938   3.079   3.543
 3513TIP3   OH210483   2.033   3.631   3.442
 3513TIP3    H110484   2.122   3.661   3.423
 3513TIP3    H210485   1.977   3.690   3.391
 3514TIP3   OH210486   2.625   3.586   3.810
 3514TIP3    H110487   2.667   3.501   3.826
 3514TIP3    H210488   2.698   3.645   3.791
 3515TIP3   OH210489   2.659   3.849   3.537
 3515TIP3    H110490   2.603   3.910   3.489
 3515TIP3    H210491   2.747   3.867   3.506
 3516TIP3   OH210492   1.894   3.394   3.996
 3516TIP3    H110493   1.829   3.328   4.020
 3516TIP3    H210494   1.929   3.365   3.912
 3517TIP3   OH210495   2.146   2.881   3.659
 3517TIP3    H110496   2.111   2.966   3.631
 3517TIP3    H210497   2.092   2.817   3.613
 3518TIP3   OH210498   2.274   3.343   3.863
 3518TIP3    H110499   2.268   3.332   3.958
 3518TIP3    H210500   2.186   3.321   3.832
 3519TIP3   OH210501   2.515   3.291   3.730
 3519TIP3    H110502   2.439   3.294   3.787
 3519TIP3    H210503   2.588   3.267   3.788
 3520TIP3   OH210504   2.753   3.252   3.876
 3520TIP3    H110505   2.767   3.158   3.887
 3520TIP3    H210506   2.747   3.285   3.966
 3521TIP3   OH210507   1.726   3.188   4.078
 3521TIP3    H110508   1.730   3.101   4.039
 3521TIP3    H210509   1.766   3.178   4.164
 3522TIP3   OH210510   2.205   2.846   3.925
 3522TIP3    H110511   2.278   2.785   3.919
 3522TIP3    H210512   2.178   2.862   3.835
 3523TIP3   OH210513   2.302   3.061   4.072
 3523TIP3    H110514   2.271   2.990   4.015
 3523TIP3    H210515   2.230   3.124   4.072
 3524TIP3   OH210516   1.564   4.320   2.175
 3524TIP3    H110517   1.651   4.294   2.145
 3524TIP3    H210518   1.524   4.364   2.100
 3525TIP3   OH210519   1.023   3.692   2.393
 3525TIP3    H110520   1.112   3.712   2.365
 3525TIP3    H210521   1.001   3.611   2.347
 3526TIP3   OH210522   0.970   4.214   2.743
 3526TIP3    H110523   0.875   4.206   2.741
 3526TIP3    H210524   0.993   4.192   2.833
 3527TIP3   OH210525   1.070   4.115   2.983
 3527TIP3    H110526   1.061   4.050   3.053
 3527TIP3    H210527   1.117   4.188   3.025
 3528TIP3   OH210528   2.812   4.520   2.793
 3528TIP3    H110529   2.834   4.547   2.882
 3528TIP3    H210530   2.872   4.570   2.737
 3529TIP3   OH210531   2.835   4.546   3.075
 3529TIP3    H110532   2.785   4.465   3.067
 3529TIP3    H210533   2.903   4.527   3.139
 3530TIP3   OH210534   2.877   4.252   3.643
 3530TIP3    H110535   2.807   4.258   3.707
 3530TIP3    H210536   2.923   4.336   3.650
 3531TIP3   OH210537   2.706   3.762   2.254
 3531TIP3    H110538   2.765   3.832   2.225
 3531TIP3    H210539   2.749   3.723   2.330
 3532TIP3   OH210540   2.832   3.619   2.456
 3532TIP3    H110541   2.765   3.581   2.513
 3532TIP3    H210542   2.897   3.655   2.517
 3533TIP3   OH210543   2.876   4.019   2.886
 3533TIP3    H110544   2.930   3.950   2.849
 3533TIP3    H210545   2.880   4.090   2.821
 3534TIP3   OH210546   2.688   4.312   3.076
 3534TIP3    H110547   2.620   4.354   3.129
 3534TIP3    H210548   2.639   4.269   3.005
 3535TIP3   OH210549   2.742   3.536   2.101
 3535TIP3    H110550   2.669   3.536   2.039
 3535TIP3    H210551   2.727   3.613   2.155
 3536TIP3   OH210552   2.599   3.189   2.040
 3536TIP3    H110553   2.550   3.222   1.965
 3536TIP3    H210554   2.592   3.094   2.035
 3537TIP3   OH210555   2.629   3.481   2.593
 3537TIP3    H110556   2.634   3.386   2.581
 3537TIP3    H210557   2.611   3.492   2.686
 3538TIP3   OH210558   1.252   3.542   3.368
 3538TIP3    H110559   1.242   3.511   3.278
 3538TIP3    H210560   1.346   3.540   3.385
 3539TIP3   OH210561   2.919   3.903   3.456
 3539TIP3    H110562   2.979   3.830   3.439
 3539TIP3    H210563   2.944   3.970   3.392
 3540TIP3   OH210564   3.079   3.683   3.439
 3540TIP3    H110565   3.010   3.638   3.488
 3540TIP3    H210566   3.159   3.633   3.459
 3541TIP3   OH210567   2.558   2.920   2.018
 3541TIP3    H110568   2.624   2.890   2.080
 3541TIP3    H210569   2.477   2.876   2.046
 3542TIP3   OH210570   2.622   3.203   2.476
 3542TIP3    H110571   2.666   3.119   2.489
 3542TIP3    H210572   2.666   3.243   2.401
 3543TIP3   OH210573   2.776   3.365   2.999
 3543TIP3    H110574   2.857   3.383   2.952
 3543TIP3    H210575   2.790   3.405   3.085
 3544TIP3   OH210576   2.849   3.513   3.227
 3544TIP3    H110577   2.778   3.543   3.284
 3544TIP3    H210578   2.882   3.593   3.185
 3545TIP3   OH210579   1.462   3.218   4.003
 3545TIP3    H110580   1.555   3.225   4.023
 3545TIP3    H210581   1.433   3.138   4.046
 3546TIP3   OH210582   3.313   3.123   3.767
 3546TIP3    H110583   3.373   3.062   3.726
 3546TIP3    H210584   3.275   3.173   3.694
 3547TIP3   OH210585   2.735   2.954   2.525
 3547TIP3    H110586   2.782   2.940   2.607
 3547TIP3    H210587   2.674   2.881   2.519
 3548TIP3   OH210588   1.447   2.930   3.363
 3548TIP3    H110589   1.504   2.853   3.365
 3548TIP3    H210590   1.506   3.003   3.345
 3549TIP3   OH210591   1.227   3.204   3.419
 3549TIP3    H110592   1.279   3.193   3.339
 3549TIP3    H210593   1.250   3.291   3.450
 3550TIP3   OH210594   3.161   3.243   3.577
 3550TIP3    H110595   3.086   3.284   3.619
 3550TIP3    H210596   3.124   3.176   3.520
 3551TIP3   OH210597   2.787   2.870   2.170
 3551TIP3    H110598   2.833   2.809   2.112
 3551TIP3    H210599   2.844   2.947   2.173
 3552TIP3   OH210600   1.216   2.727   2.924
 3552TIP3    H110601   1.129   2.708   2.960
 3552TIP3    H210602   1.199   2.777   2.844
 3553TIP3   OH210603   2.371   4.429   2.432
 3553TIP3    H110604   2.429   4.418   2.357
 3553TIP3    H210605   2.414   4.496   2.486
 3554TIP3   OH210606   1.431   2.753   3.746
 3554TIP3    H110607   1.390   2.769   3.831
 3554TIP3    H210608   1.382   2.809   3.685
 3555TIP3   OH210609   1.463   4.227   3.810
 3555TIP3    H110610   1.370   4.202   3.804
 3555TIP3    H210611   1.485   4.214   3.902
 3556TIP3   OH210612   1.675   4.268   3.364
 3556TIP3    H110613   1.624   4.342   3.331
 3556TIP3    H210614   1.760   4.276   3.321
 3557TIP3   OH210615   2.078   4.501   3.503
 3557TIP3    H110616   2.116   4.493   3.591
 3557TIP3    H210617   2.142   4.554   3.455
 3558TIP3   OH210618   2.270   4.655   3.375
 3558TIP3    H110619   2.332   4.599   3.329
 3558TIP3    H210620   2.324   4.712   3.429
 3559TIP3   OH210621   3.071   2.999   3.466
 3559TIP3    H110622   2.979   2.984   3.441
 3559TIP3    H210623   3.113   2.914   3.453
 3560TIP3   OH210624   1.340   4.507   3.415
 3560TIP3    H110625   1.250   4.525   3.389
 3560TIP3    H210626   1.361   4.575   3.479
 3561TIP3   OH210627   1.568   4.500   3.259
 3561TIP3    H110628   1.485   4.504   3.307
 3561TIP3    H210629   1.545   4.523   3.169
 3562TIP3   OH210630   1.984   4.516   3.052
 3562TIP3    H110631   1.911   4.527   2.991
 3562TIP3    H210632   1.994   4.602   3.093
 3563TIP3   OH210633   2.249   4.455   3.101
 3563TIP3    H110634   2.158   4.473   3.082
 3563TIP3    H210635   2.298   4.523   3.055
 3564TIP3   OH210636   2.454   4.632   3.007
 3564TIP3    H110637   2.449   4.718   2.965
 3564TIP3    H210638   2.483   4.573   2.937
 3565TIP3   OH210639   1.242   4.293   3.129
 3565TIP3    H110640   1.268   4.269   3.218
 3565TIP3    H210641   1.314   4.261   3.074
 3566TIP3   OH210642   1.450   4.177   2.997
 3566TIP3    H110643   1.461   4.093   3.041
 3566TIP3    H210644   1.537   4.217   2.998
 3567TIP3   OH210645   1.719   4.260   3.012
 3567TIP3    H110646   1.737   4.167   2.997
 3567TIP3    H210647   1.773   4.283   3.088
 3568TIP3   OH210648   2.289   2.933   3.089
 3568TIP3    H110649   2.251   2.869   3.150
 3568TIP3    H210650   2.353   2.883   3.038
 3569TIP3   OH210651   2.779   2.818   2.971
 3569TIP3    H110652   2.819   2.869   2.900
 3569TIP3    H210653   2.691   2.854   2.979
 3570TIP3   OH210654   2.897   2.906   2.742
 3570TIP3    H110655   2.966   2.845   2.716
 3570TIP3    H210656   2.936   2.993   2.730
 3571TIP3   OH210657   1.519   2.613   3.092
 3571TIP3    H110658   1.428   2.584   3.097
 3571TIP3    H210659   1.570   2.533   3.083
 3572TIP3   OH210660   1.335   2.523   2.763
 3572TIP3    H110661   1.368   2.567   2.685
 3572TIP3    H210662   1.302   2.594   2.818
 3573TIP3   OH210663   1.998   2.665   3.003
 3573TIP3    H110664   2.052   2.685   2.926
 3573TIP3    H210665   1.952   2.747   3.021
 3574TIP3   OH210666   2.488   2.794   2.958
 3574TIP3    H110667   2.513   2.758   2.873
 3574TIP3    H210668   2.491   2.719   3.018
 3575TIP3   OH210669   2.551   2.742   2.532
 3575TIP3    H110670   2.472   2.789   2.556
 3575TIP3    H210671   2.540   2.655   2.571
 3576TIP3   OH210672   1.038   4.069   2.517
 3576TIP3    H110673   0.957   4.055   2.468
 3576TIP3    H210674   1.019   4.141   2.576
 3577TIP3   OH210675   1.457   2.639   2.537
 3577TIP3    H110676   1.498   2.583   2.472
 3577TIP3    H210677   1.526   2.699   2.565
 3578TIP3   OH210678   1.936   2.842   2.609
 3578TIP3    H110679   1.999   2.791   2.661
 3578TIP3    H210680   1.951   2.933   2.637
 3579TIP3   OH210681   1.814   4.237   2.101
 3579TIP3    H110682   1.899   4.264   2.065
 3579TIP3    H210683   1.786   4.164   2.046
 3580TIP3   OH210684   2.524   4.382   2.204
 3580TIP3    H110685   2.516   4.287   2.198
 3580TIP3    H210686   2.479   4.415   2.126
 3581TIP3   OH210687   1.733   2.933   3.975
 3581TIP3    H110688   1.696   2.853   4.011
 3581TIP3    H210689   1.826   2.929   3.997
 3582TIP3   OH210690   1.984   2.900   4.094
 3582TIP3    H110691   2.064   2.881   4.044
 3582TIP3    H210692   1.975   2.826   4.154
 3583TIP3   OH210693   1.112   4.086   2.166
 3583TIP3    H110694   1.104   4.090   2.261
 3583TIP3    H210695   1.193   4.037   2.151
 3584TIP3   OH210696   2.821   2.978   3.890
 3584TIP3    H110697   2.838   2.946   3.978
 3584TIP3    H210698   2.907   2.979   3.847
 3585TIP3   OH210699   2.735   4.518   3.397
 3585TIP3    H110700   2.660   4.489   3.345
 3585TIP3    H210701   2.723   4.613   3.405
 3586TIP3   OH210702   4.015   3.908   2.134
 3586TIP3    H110703   3.984   3.995   2.109
 3586TIP3    H210704   3.943   3.850   2.110
 3587TIP3   OH210705   4.010   3.898   2.558
 3587TIP3    H110706   4.061   3.882   2.638
 3587TIP3    H210707   3.966   3.815   2.540
 3588TIP3   OH210708   3.308   3.766   2.908
 3588TIP3    H110709   3.342   3.711   2.979
 3588TIP3    H210710   3.386   3.800   2.865
 3589TIP3   OH210711   4.277   4.207   2.233
 3589TIP3    H110712   4.266   4.140   2.301
 3589TIP3    H210713   4.299   4.287   2.281
 3590TIP3   OH210714   3.298   4.188   2.595
 3590TIP3    H110715   3.282   4.094   2.603
 3590TIP3    H210716   3.393   4.196   2.589
 3591TIP3   OH210717   2.987   3.395   2.376
 3591TIP3    H110718   2.948   3.478   2.402
 3591TIP3    H210719   2.914   3.345   2.339
 3592TIP3   OH210720   3.063   3.702   2.596
 3592TIP3    H110721   3.112   3.624   2.624
 3592TIP3    H210722   3.130   3.765   2.571
 3593TIP3   OH210723   3.932   4.642   2.244
 3593TIP3    H110724   3.961   4.575   2.182
 3593TIP3    H210725   3.933   4.597   2.329
 3594TIP3   OH210726   3.818   4.123   2.566
 3594TIP3    H110727   3.861   4.042   2.537
 3594TIP3    H210728   3.889   4.179   2.597
 3595TIP3   OH210729   4.848   3.443   2.582
 3595TIP3    H110730   4.867   3.525   2.627
 3595TIP3    H210731   4.866   3.461   2.490
 3596TIP3   OH210732   4.226   3.610   2.599
 3596TIP3    H110733   4.261   3.526   2.628
 3596TIP3    H210734   4.189   3.592   2.513
 3597TIP3   OH210735   3.581   3.269   2.560
 3597TIP3    H110736   3.559   3.342   2.503
 3597TIP3    H210737   3.525   3.197   2.530
 3598TIP3   OH210738   4.277   3.368   2.193
 3598TIP3    H110739   4.340   3.361   2.264
 3598TIP3    H210740   4.327   3.403   2.119
 3599TIP3   OH210741   3.203   3.482   2.689
 3599TIP3    H110742   3.286   3.466   2.733
 3599TIP3    H210743   3.208   3.430   2.608
 3600TIP3   OH210744   3.628   3.683   2.498
 3600TIP3    H110745   3.722   3.666   2.507
 3600TIP3    H210746   3.592   3.600   2.465
 3601TIP3   OH210747   4.908   3.662   2.745
 3601TIP3    H110748   4.818   3.695   2.742
 3601TIP3    H210749   4.943   3.696   2.828
 3602TIP3   OH210750   3.561   3.269   3.011
 3602TIP3    H110751   3.509   3.306   2.939
 3602TIP3    H210752   3.507   3.285   3.089
 3603TIP3   OH210753   3.913   4.126   1.995
 3603TIP3    H110754   3.873   4.097   1.913
 3603TIP3    H210755   3.859   4.200   2.022
 3604TIP3   OH210756   3.659   4.047   2.780
 3604TIP3    H110757   3.605   4.117   2.816
 3604TIP3    H210758   3.707   4.088   2.708
 3605TIP3   OH210759   4.440   3.389   2.411
 3605TIP3    H110760   4.397   3.367   2.494
 3605TIP3    H210761   4.495   3.465   2.432
 3606TIP3   OH210762   3.450   3.378   2.781
 3606TIP3    H110763   3.504   3.454   2.805
 3606TIP3    H210764   3.497   3.336   2.710
 3607TIP3   OH210765   3.499   4.248   2.885
 3607TIP3    H110766   3.484   4.338   2.855
 3607TIP3    H210767   3.422   4.227   2.937
 3608TIP3   OH210768   2.879   3.950   2.136
 3608TIP3    H110769   2.842   3.971   2.050
 3608TIP3    H210770   2.903   4.036   2.172
 3609TIP3   OH210771   4.315   4.455   2.372
 3609TIP3    H110772   4.229   4.446   2.412
 3609TIP3    H210773   4.313   4.539   2.328
 3610TIP3   OH210774   4.649   3.331   2.750
 3610TIP3    H110775   4.563   3.356   2.716
 3610TIP3    H210776   4.711   3.360   2.683
 3611TIP3   OH210777   3.904   2.964   2.739
 3611TIP3    H110778   3.895   2.872   2.765
 3611TIP3    H210779   3.828   3.007   2.780
 3612TIP3   OH210780   4.023   4.487   2.030
 3612TIP3    H110781   4.075   4.407   2.020
 3612TIP3    H210782   4.081   4.557   2.001
 3613TIP3   OH210783   4.162   4.257   1.987
 3613TIP3    H110784   4.089   4.195   1.984
 3613TIP3    H210785   4.211   4.232   2.065
 3614TIP3   OH210786   4.551   4.347   2.715
 3614TIP3    H110787   4.534   4.271   2.660
 3614TIP3    H210788   4.535   4.422   2.658
 3615TIP3   OH210789   3.840   3.746   1.987
 3615TIP3    H110790   3.757   3.791   1.968
 3615TIP3    H210791   3.887   3.745   1.904
 3616TIP3   OH210792   3.806   3.553   1.680
 3616TIP3    H110793   3.872   3.600   1.730
 3616TIP3    H210794   3.856   3.485   1.634
 3617TIP3   OH210795   4.735   4.002   2.583
 3617TIP3    H110796   4.651   4.047   2.583
 3617TIP3    H210797   4.769   4.016   2.494
 3618TIP3   OH210798   4.199   3.834   1.947
 3618TIP3    H110799   4.145   3.864   2.020
 3618TIP3    H210800   4.282   3.809   1.987
 3619TIP3   OH210801   4.427   3.865   2.890
 3619TIP3    H110802   4.426   3.948   2.938
 3619TIP3    H210803   4.344   3.864   2.843
 3620TIP3   OH210804   3.427   3.817   2.355
 3620TIP3    H110805   3.391   3.756   2.291
 3620TIP3    H210806   3.500   3.770   2.395
 3621TIP3   OH210807   3.562   4.240   2.496
 3621TIP3    H110808   3.540   4.222   2.404
 3621TIP3    H210809   3.649   4.201   2.508
 3622TIP3   OH210810   3.529   3.811   2.726
 3622TIP3    H110811   3.569   3.776   2.646
 3622TIP3    H210812   3.579   3.891   2.744
 3623TIP3   OH210813   4.079   4.445   2.505
 3623TIP3    H110814   4.067   4.525   2.556
 3623TIP3    H210815   4.065   4.374   2.568
 3624TIP3   OH210816   3.700   4.348   3.051
 3624TIP3    H110817   3.640   4.405   3.098
 3624TIP3    H210818   3.643   4.295   2.995
 3625TIP3   OH210819   4.029   3.696   1.781
 3625TIP3    H110820   4.089   3.753   1.828
 3625TIP3    H210821   4.057   3.702   1.689
 3626TIP3   OH210822   3.463   3.908   3.161
 3626TIP3    H110823   3.465   3.997   3.196
 3626TIP3    H210824   3.370   3.885   3.159
 3627TIP3   OH210825   3.775   4.365   2.036
 3627TIP3    H110826   3.857   4.414   2.044
 3627TIP3    H210827   3.716   4.424   1.991
 3628TIP3   OH210828   3.486   4.505   3.133
 3628TIP3    H110829   3.461   4.514   3.041
 3628TIP3    H210830   3.404   4.492   3.180
 3629TIP3   OH210831   4.540   2.922   1.837
 3629TIP3    H110832   4.463   2.942   1.891
 3629TIP3    H210833   4.551   3.000   1.782
 3630TIP3   OH210834   3.301   3.659   2.153
 3630TIP3    H110835   3.222   3.705   2.122
 3630TIP3    H210836   3.270   3.572   2.176
 3631TIP3   OH210837   4.361   4.295   1.392
 3631TIP3    H110838   4.357   4.389   1.373
 3631TIP3    H210839   4.451   4.270   1.369
 3632TIP3   OH210840   3.079   4.059   3.083
 3632TIP3    H110841   3.010   4.037   3.020
 3632TIP3    H210842   3.114   3.974   3.110
 3633TIP3   OH210843   2.935   4.246   2.724
 3633TIP3    H110844   3.030   4.254   2.728
 3633TIP3    H210845   2.903   4.323   2.771
 3634TIP3   OH210846   4.782   4.706   2.785
 3634TIP3    H110847   4.787   4.611   2.797
 3634TIP3    H210848   4.702   4.731   2.832
 3635TIP3   OH210849   3.886   4.492   2.907
 3635TIP3    H110850   3.880   4.582   2.939
 3635TIP3    H210851   3.821   4.444   2.959
 3636TIP3   OH210852   3.666   4.592   1.864
 3636TIP3    H110853   3.619   4.573   1.783
 3636TIP3    H210854   3.629   4.676   1.894
 3637TIP3   OH210855   3.101   4.446   2.245
 3637TIP3    H110856   3.145   4.439   2.329
 3637TIP3    H210857   3.052   4.364   2.236
 3638TIP3   OH210858   3.867   4.520   1.492
 3638TIP3    H110859   3.918   4.447   1.457
 3638TIP3    H210860   3.901   4.533   1.580
 3639TIP3   OH210861   3.919   4.565   1.762
 3639TIP3    H110862   3.833   4.568   1.803
 3639TIP3    H210863   3.977   4.529   1.829
 3640TIP3   OH210864   4.679   3.821   3.053
 3640TIP3    H110865   4.591   3.828   3.016
 3640TIP3    H210866   4.696   3.727   3.057
 3641TIP3   OH210867   3.279   4.245   3.053
 3641TIP3    H110868   3.330   4.233   3.133
 3641TIP3    H210869   3.208   4.182   3.060
 3642TIP3   OH210870   3.668   3.055   2.867
 3642TIP3    H110871   3.584   3.024   2.833
 3642TIP3    H210872   3.646   3.136   2.914
 3643TIP3   OH210873   4.207   3.171   3.065
 3643TIP3    H110874   4.277   3.150   3.127
 3643TIP3    H210875   4.127   3.158   3.114
 3644TIP3   OH210876   4.431   3.602   2.978
 3644TIP3    H110877   4.387   3.595   3.062
 3644TIP3    H210878   4.416   3.692   2.949
 3645TIP3   OH210879   4.109   3.683   1.519
 3645TIP3    H110880   4.065   3.683   1.434
 3645TIP3    H210881   4.190   3.731   1.503
 3646TIP3   OH210882   3.817   3.099   1.833
 3646TIP3    H110883   3.782   3.106   1.922
 3646TIP3    H210884   3.781   3.018   1.799
 3647TIP3   OH210885   3.602   3.589   2.874
 3647TIP3    H110886   3.557   3.597   2.958
 3647TIP3    H210887   3.581   3.669   2.827
 3648TIP3   OH210888   3.486   3.466   2.395
 3648TIP3    H110889   3.397   3.443   2.421
 3648TIP3    H210890   3.495   3.432   2.306
 3649TIP3   OH210891   3.966   3.542   2.123
 3649TIP3    H110892   3.918   3.615   2.083
 3649TIP3    H210893   4.024   3.510   2.054
 3650TIP3   OH210894   4.151   3.806   3.195
 3650TIP3    H110895   4.124   3.740   3.258
 3650TIP3    H210896   4.244   3.821   3.214
 3651TIP3   OH210897   4.134   3.556   2.347
 3651TIP3    H110898   4.065   3.578   2.285
 3651TIP3    H210899   4.180   3.482   2.307
 3652TIP3   OH210900   3.439   3.600   3.095
 3652TIP3    H110901   3.466   3.659   3.166
 3652TIP3    H210902   3.420   3.517   3.139
 3653TIP3   OH210903   3.482   3.080   1.809
 3653TIP3    H110904   3.473   3.082   1.904
 3653TIP3    H210905   3.404   3.125   1.776
 3654TIP3   OH210906   3.030   3.128   2.670
 3654TIP3    H110907   3.101   3.163   2.725
 3654TIP3    H210908   3.073   3.106   2.587
 3655TIP3   OH210909   2.944   3.101   2.181
 3655TIP3    H110910   2.990   3.136   2.104
 3655TIP3    H210911   2.881   3.170   2.205
 3656TIP3   OH210912   4.171   3.810   2.774
 3656TIP3    H110913   4.197   3.743   2.711
 3656TIP3    H210914   4.130   3.761   2.845
 3657TIP3   OH210915   3.847   3.259   2.447
 3657TIP3    H110916   3.769   3.259   2.503
 3657TIP3    H210917   3.920   3.251   2.507
 3658TIP3   OH210918   3.247   3.343   2.456
 3658TIP3    H110919   3.159   3.347   2.419
 3658TIP3    H210920   3.275   3.252   2.440
 3659TIP3   OH210921   3.499   3.342   2.150
 3659TIP3    H110922   3.594   3.353   2.139
 3659TIP3    H210923   3.462   3.361   2.064
 3660TIP3   OH210924   4.300   3.345   2.649
 3660TIP3    H110925   4.285   3.360   2.742
 3660TIP3    H210926   4.229   3.286   2.622
 3661TIP3   OH210927   3.381   3.369   1.904
 3661TIP3    H110928   3.317   3.320   1.852
 3661TIP3    H210929   3.436   3.414   1.839
 3662TIP3   OH210930   4.496   5.050   2.879
 3662TIP3    H110931   4.494   5.066   2.785
 3662TIP3    H210932   4.574   5.096   2.910
 3663TIP3   OH210933   3.434   4.163   3.284
 3663TIP3    H110934   3.515   4.182   3.332
 3663TIP3    H210935   3.366   4.163   3.351
 3664TIP3   OH210936   3.898   3.626   2.555
 3664TIP3    H110937   3.967   3.577   2.510
 3664TIP3    H210938   3.895   3.589   2.643
 3665TIP3   OH210939   3.392   3.094   2.442
 3665TIP3    H110940   3.362   3.019   2.493
 3665TIP3    H210941   3.419   3.058   2.358
 3666TIP3   OH210942   3.871   3.534   2.821
 3666TIP3    H110943   3.784   3.566   2.844
 3666TIP3    H210944   3.932   3.585   2.875
 3667TIP3   OH210945   3.603   3.884   1.930
 3667TIP3    H110946   3.529   3.828   1.908
 3667TIP3    H210947   3.579   3.924   2.013
 3668TIP3   OH210948   4.498   4.139   2.541
 3668TIP3    H110949   4.532   4.188   2.466
 3668TIP3    H210950   4.418   4.098   2.508
 3669TIP3   OH210951   4.070   3.202   1.831
 3669TIP3    H110952   3.977   3.181   1.830
 3669TIP3    H210953   4.073   3.297   1.847
 3670TIP3   OH210954   4.016   4.220   2.951
 3670TIP3    H110955   4.065   4.203   3.032
 3670TIP3    H210956   3.975   4.305   2.966
 3671TIP3   OH210957   4.129   3.465   1.906
 3671TIP3    H110958   4.224   3.469   1.918
 3671TIP3    H210959   4.108   3.543   1.856
 3672TIP3   OH210960   3.295   3.899   2.586
 3672TIP3    H110961   3.335   3.881   2.500
 3672TIP3    H210962   3.360   3.867   2.649
 3673TIP3   OH210963   3.757   4.045   1.772
 3673TIP3    H110964   3.709   4.129   1.771
 3673TIP3    H210965   3.702   3.988   1.826
 3674TIP3   OH210966   3.193   3.845   3.221
 3674TIP3    H110967   3.234   3.848   3.307
 3674TIP3    H210968   3.127   3.776   3.229
 3675TIP3   OH210969   3.919   3.965   3.224
 3675TIP3    H110970   3.853   3.901   3.196
 3675TIP3    H210971   4.002   3.925   3.201
 3676TIP3   OH210972   4.157   4.506   2.823
 3676TIP3    H110973   4.062   4.491   2.832
 3676TIP3    H210974   4.183   4.546   2.906
 3677TIP3   OH210975   4.549   3.551   1.725
 3677TIP3    H110976   4.494   3.505   1.662
 3677TIP3    H210977   4.553   3.641   1.692
 3678TIP3   OH210978   4.796   4.424   2.808
 3678TIP3    H110979   4.702   4.410   2.802
 3678TIP3    H210980   4.830   4.395   2.723
 3679TIP3   OH210981   4.286   4.369   1.660
 3679TIP3    H110982   4.257   4.302   1.721
 3679TIP3    H210983   4.302   4.322   1.578
 3680TIP3   OH210984   4.266   4.005   2.437
 3680TIP3    H110985   4.177   3.983   2.463
 3680TIP3    H210986   4.301   3.924   2.401
 3681TIP3   OH210987   3.418   4.240   2.248
 3681TIP3    H110988   3.414   4.316   2.190
 3681TIP3    H210989   3.328   4.228   2.279
 3682TIP3   OH210990   2.977   3.526   1.957
 3682TIP3    H110991   3.021   3.607   1.980
 3682TIP3    H210992   2.897   3.526   2.010
 3683TIP3   OH210993   3.510   3.995   2.157
 3683TIP3    H110994   3.491   4.085   2.186
 3683TIP3    H210995   3.484   3.940   2.231
 3684TIP3   OH210996   3.700   4.564   2.704
 3684TIP3    H110997   3.738   4.636   2.654
 3684TIP3    H210998   3.773   4.530   2.756
 3685TIP3   OH210999   3.333   4.465   2.096
 3685TIP3    H111000   3.247   4.470   2.138
 3685TIP3    H211001   3.367   4.554   2.102
 3686TIP3   OH211002   4.054   4.223   2.678
 3686TIP3    H111003   4.041   4.220   2.772
 3686TIP3    H211004   4.132   4.170   2.663
 3687TIP3   OH211005   4.044   4.104   1.547
 3687TIP3    H111006   4.098   4.077   1.622
 3687TIP3    H211007   3.959   4.063   1.563
 3688TIP3   OH211008   4.310   4.723   2.717
 3688TIP3    H111009   4.241   4.659   2.732
 3688TIP3    H211010   4.277   4.779   2.647
 3689TIP3   OH211011   4.360   4.569   1.353
 3689TIP3    H111012   4.377   4.629   1.280
 3689TIP3    H211013   4.290   4.610   1.403
 3690TIP3   OH211014   3.390   3.349   3.217
 3690TIP3    H111015   3.295   3.356   3.223
 3690TIP3    H211016   3.418   3.315   3.303
 3691TIP3   OH211017   4.222   4.018   1.737
 3691TIP3    H111018   4.206   3.965   1.815
 3691TIP3    H211019   4.318   4.026   1.732
 3692TIP3   OH211020   3.127   4.449   2.868
 3692TIP3    H111021   3.177   4.384   2.918
 3692TIP3    H211022   3.144   4.531   2.914
 3693TIP3   OH211023   3.397   4.070   1.557
 3693TIP3    H111024   3.409   3.979   1.532
 3693TIP3    H211025   3.382   4.067   1.652
 3694TIP3   OH211026   3.341   4.087   1.830
 3694TIP3    H111027   3.406   4.059   1.894
 3694TIP3    H211028   3.340   4.183   1.836
 3695TIP3   OH211029   3.074   3.775   2.039
 3695TIP3    H111030   3.010   3.822   2.092
 3695TIP3    H211031   3.093   3.835   1.967
 3696TIP3   OH211032   4.250   3.397   2.910
 3696TIP3    H111033   4.319   3.449   2.951
 3696TIP3    H211034   4.236   3.324   2.971
 3697TIP3   OH211035   4.128   3.152   2.102
 3697TIP3    H111036   4.108   3.171   2.010
 3697TIP3    H211037   4.171   3.231   2.134
 3698TIP3   OH211038   3.611   4.273   1.768
 3698TIP3    H111039   3.526   4.297   1.806
 3698TIP3    H211040   3.634   4.348   1.713
 3699TIP3   OH211041   3.780   3.351   2.193
 3699TIP3    H111042   3.842   3.419   2.168
 3699TIP3    H211043   3.801   3.331   2.284
 3700TIP3   OH211044   4.078   3.645   2.976
 3700TIP3    H111045   4.100   3.695   3.054
 3700TIP3    H211046   4.129   3.564   2.984
 3701TIP3   OH211047   3.942   3.050   2.282
 3701TIP3    H111048   3.920   3.127   2.334
 3701TIP3    H211049   4.011   3.080   2.223
 3702TIP3   OH211050   3.360   4.360   1.844
 3702TIP3    H111051   3.339   4.431   1.784
 3702TIP3    H211052   3.349   4.398   1.931
 3703TIP3   OH211053   3.456   3.070   2.087
 3703TIP3    H111054   3.445   3.160   2.117
 3703TIP3    H211055   3.550   3.054   2.093
 3704TIP3   OH211056   4.695   3.541   2.958
 3704TIP3    H111057   4.601   3.555   2.973
 3704TIP3    H211058   4.698   3.480   2.884
 3705TIP3   OH211059   4.358   3.747   2.348
 3705TIP3    H111060   4.280   3.692   2.362
 3705TIP3    H211061   4.425   3.708   2.403
 3706TIP3   OH211062   3.094   3.956   1.824
 3706TIP3    H111063   3.166   4.020   1.834
 3706TIP3    H211064   3.127   3.893   1.761
 3707TIP3   OH211065   3.007   3.248   1.958
 3707TIP3    H111066   3.019   3.343   1.965
 3707TIP3    H211067   2.940   3.237   1.891
 3708TIP3   OH211068   4.338   4.723   2.292
 3708TIP3    H111069   4.296   4.773   2.222
 3708TIP3    H211070   4.432   4.734   2.277
 3709TIP3   OH211071   3.406   2.973   2.820
 3709TIP3    H111072   3.377   2.941   2.735
 3709TIP3    H211073   3.398   2.898   2.879
 3710TIP3   OH211074   2.929   4.221   2.218
 3710TIP3    H111075   2.882   4.256   2.294
 3710TIP3    H211076   2.887   4.264   2.143
 3711TIP3   OH211077   3.129   4.763   3.290
 3711TIP3    H111078   3.210   4.771   3.340
 3711TIP3    H211079   3.117   4.669   3.276
 3712TIP3   OH211080   3.590   4.678   3.322
 3712TIP3    H111081   3.680   4.649   3.338
 3712TIP3    H211082   3.559   4.621   3.252
 3713TIP3   OH211083   3.555   4.270   1.448
 3713TIP3    H111084   3.508   4.200   1.494
 3713TIP3    H211085   3.630   4.226   1.408
 3714TIP3   OH211086   4.219   4.617   3.064
 3714TIP3    H111087   4.219   4.544   3.126
 3714TIP3    H211088   4.292   4.672   3.090
 3715TIP3   OH211089   3.996   4.310   1.372
 3715TIP3    H111090   4.028   4.246   1.435
 3715TIP3    H211091   4.057   4.303   1.298
 3716TIP3   OH211092   3.232   4.161   3.478
 3716TIP3    H111093   3.247   4.072   3.508
 3716TIP3    H211094   3.146   4.159   3.436
 3717TIP3   OH211095   3.221   3.766   1.675
 3717TIP3    H111096   3.272   3.742   1.752
 3717TIP3    H211097   3.287   3.779   1.606
 3718TIP3   OH211098   3.850   4.240   3.258
 3718TIP3    H111099   3.806   4.262   3.176
 3718TIP3    H211100   3.886   4.153   3.243
 3719TIP3   OH211101   3.778   3.989   1.505
 3719TIP3    H111102   3.760   4.000   1.598
 3719TIP3    H211103   3.764   3.896   1.489
 3720TIP3   OH211104   4.328   4.280   2.867
 3720TIP3    H111105   4.405   4.312   2.820
 3720TIP3    H211106   4.261   4.347   2.850
 3721TIP3   OH211107   3.352   3.873   3.448
 3721TIP3    H111108   3.441   3.851   3.422
 3721TIP3    H211109   3.357   3.887   3.542
 3722TIP3   OH211110   3.395   3.706   1.887
 3722TIP3    H111111   3.374   3.676   1.975
 3722TIP3    H211112   3.442   3.632   1.847
 3723TIP3   OH211113   3.706   3.776   3.129
 3723TIP3    H111114   3.625   3.826   3.139
 3723TIP3    H211115   3.743   3.806   3.046
 3724TIP3   OH211116   3.533   3.519   1.731
 3724TIP3    H111117   3.504   3.523   1.640
 3724TIP3    H211118   3.629   3.527   1.726
 3725TIP3   OH211119   4.201   4.157   3.221
 3725TIP3    H111120   4.279   4.121   3.178
 3725TIP3    H211121   4.194   4.108   3.302
 3726TIP3   OH211122   4.330   3.813   1.410
 3726TIP3    H111123   4.316   3.771   1.325
 3726TIP3    H211124   4.304   3.904   1.397
 3727TIP3   OH211125   3.822   3.551   3.237
 3727TIP3    H111126   3.825   3.479   3.173
 3727TIP3    H211127   3.785   3.624   3.189
 3728TIP3   OH211128   3.823   3.349   3.039
 3728TIP3    H111129   3.848   3.390   2.956
 3728TIP3    H211130   3.731   3.326   3.028
 3729TIP3   OH211131   3.832   3.879   2.912
 3729TIP3    H111132   3.920   3.916   2.904
 3729TIP3    H211133   3.775   3.942   2.868
 3730TIP3   OH211134   4.410   3.833   3.301
 3730TIP3    H111135   4.437   3.766   3.363
 3730TIP3    H211136   4.488   3.887   3.288
 3731TIP3   OH211137   4.456   4.107   3.034
 3731TIP3    H111138   4.401   4.167   2.984
 3731TIP3    H211139   4.545   4.124   3.003
 3732TIP3   OH211140   3.684   3.639   3.460
 3732TIP3    H111141   3.620   3.571   3.483
 3732TIP3    H211142   3.724   3.607   3.379
 3733TIP3   OH211143   3.941   3.120   3.147
 3733TIP3    H111144   3.902   3.200   3.111
 3733TIP3    H211145   3.874   3.054   3.134
 3734TIP3   OH211146   4.071   3.599   3.354
 3734TIP3    H111147   4.060   3.593   3.448
 3734TIP3    H211148   3.985   3.575   3.318
 3735TIP3   OH211149   4.299   3.533   3.203
 3735TIP3    H111150   4.230   3.544   3.268
 3735TIP3    H211151   4.378   3.514   3.254
 3736TIP3   OH211152   4.557   3.493   3.320
 3736TIP3    H111153   4.568   3.402   3.350
 3736TIP3    H211154   4.535   3.541   3.400
 3737TIP3   OH211155   3.530   3.421   3.546
 3737TIP3    H111156   3.537   3.328   3.522
 3737TIP3    H211157   3.560   3.425   3.636
 3738TIP3   OH211158   4.013   3.109   3.411
 3738TIP3    H111159   4.084   3.045   3.405
 3738TIP3    H211160   3.982   3.118   3.321
 3739TIP3   OH211161   4.091   3.327   3.567
 3739TIP3    H111162   4.065   3.259   3.504
 3739TIP3    H211163   4.019   3.391   3.564
 3740TIP3   OH211164   3.355   4.569   1.660
 3740TIP3    H111165   3.444   4.547   1.634
 3740TIP3    H211166   3.318   4.615   1.585
 3741TIP3   OH211167   2.821   3.951   1.843
 3741TIP3    H111168   2.916   3.963   1.840
 3741TIP3    H211169   2.807   3.863   1.806
 3742TIP3   OH211170   2.727   4.537   2.302
 3742TIP3    H111171   2.663   4.482   2.257
 3742TIP3    H211172   2.771   4.476   2.362
 3743TIP3   OH211173   2.870   4.370   2.471
 3743TIP3    H111174   2.860   4.301   2.536
 3743TIP3    H211175   2.921   4.438   2.515
 3744TIP3   OH211176   4.610   4.771   2.281
 3744TIP3    H111177   4.629   4.798   2.370
 3744TIP3    H211178   4.666   4.828   2.227
 3745TIP3   OH211179   4.630   4.803   2.561
 3745TIP3    H111180   4.580   4.722   2.555
 3745TIP3    H211181   4.698   4.785   2.626
 3746TIP3   OH211182   4.672   4.507   3.138
 3746TIP3    H111183   4.602   4.515   3.203
 3746TIP3    H211184   4.716   4.591   3.140
 3747TIP3   OH211185   4.502   4.018   1.740
 3747TIP3    H111186   4.560   4.088   1.712
 3747TIP3    H211187   4.545   3.980   1.816
 3748TIP3   OH211188   4.627   3.875   1.943
 3748TIP3    H111189   4.560   3.837   1.999
 3748TIP3    H211190   4.692   3.911   2.004
 3749TIP3   OH211191   4.674   4.278   2.374
 3749TIP3    H111192   4.727   4.208   2.335
 3749TIP3    H211193   4.675   4.349   2.310
 3750TIP3   OH211194   4.484   4.567   2.564
 3750TIP3    H111195   4.417   4.610   2.617
 3750TIP3    H211196   4.435   4.525   2.493
 3751TIP3   OH211197   4.538   3.791   1.588
 3751TIP3    H111198   4.466   3.792   1.525
 3751TIP3    H211199   4.523   3.869   1.642
 3752TIP3   OH211200   4.400   3.440   1.523
 3752TIP3    H111201   4.351   3.479   1.451
 3752TIP3    H211202   4.389   3.346   1.512
 3753TIP3   OH211203   4.425   3.736   2.080
 3753TIP3    H111204   4.430   3.641   2.067
 3753TIP3    H211205   4.406   3.747   2.173
 3754TIP3   OH211206   3.045   3.804   2.851
 3754TIP3    H111207   3.037   3.769   2.762
 3754TIP3    H211208   3.138   3.799   2.870
 3755TIP3   OH211209   4.716   4.160   2.945
 3755TIP3    H111210   4.779   4.090   2.930
 3755TIP3    H211211   4.735   4.225   2.878
 3756TIP3   OH211212   4.888   3.946   2.932
 3756TIP3    H111213   4.814   3.904   2.976
 3756TIP3    H211214   4.963   3.889   2.951
 3757TIP3   OH211215   4.355   3.169   1.495
 3757TIP3    H111216   4.419   3.145   1.562
 3757TIP3    H211217   4.272   3.132   1.526
 3758TIP3   OH211218   4.419   3.458   1.964
 3758TIP3    H111219   4.464   3.375   1.977
 3758TIP3    H211220   4.463   3.497   1.888
 3759TIP3   OH211221   4.572   3.623   2.486
 3759TIP3    H111222   4.654   3.641   2.439
 3759TIP3    H211223   4.585   3.663   2.572
 3760TIP3   OH211224   4.646   3.772   2.713
 3760TIP3    H111225   4.576   3.800   2.772
 3760TIP3    H211226   4.678   3.853   2.673
 3761TIP3   OH211227   3.264   3.480   3.481
 3761TIP3    H111228   3.355   3.488   3.508
 3761TIP3    H211229   3.233   3.401   3.526
 3762TIP3   OH211230   5.109   3.374   3.256
 3762TIP3    H111231   5.172   3.314   3.215
 3762TIP3    H211232   5.073   3.424   3.183
 3763TIP3   OH211233   4.535   3.208   2.015
 3763TIP3    H111234   4.580   3.194   2.098
 3763TIP3    H211235   4.472   3.137   2.009
 3764TIP3   OH211236   3.240   3.194   2.841
 3764TIP3    H111237   3.294   3.116   2.846
 3764TIP3    H211238   3.302   3.266   2.826
 3765TIP3   OH211239   3.020   3.453   2.904
 3765TIP3    H111240   3.074   3.451   2.824
 3765TIP3    H211241   3.047   3.533   2.949
 3766TIP3   OH211242   4.962   3.497   3.063
 3766TIP3    H111243   4.889   3.539   3.110
 3766TIP3    H211244   4.920   3.432   3.007
 3767TIP3   OH211245   4.581   3.125   1.654
 3767TIP3    H111246   4.628   3.064   1.598
 3767TIP3    H211247   4.639   3.202   1.659
 3768TIP3   OH211248   3.010   2.966   2.408
 3768TIP3    H111249   2.924   2.956   2.448
 3768TIP3    H211250   2.995   3.021   2.332
 3769TIP3   OH211251   4.167   4.685   1.920
 3769TIP3    H111252   4.225   4.674   1.845
 3769TIP3    H211253   4.209   4.753   1.973
 3770TIP3   OH211254   3.227   3.017   3.222
 3770TIP3    H111255   3.179   3.021   3.305
 3770TIP3    H211256   3.174   3.069   3.161
 3771TIP3   OH211257   3.258   4.484   3.295
 3771TIP3    H111258   3.165   4.459   3.291
 3771TIP3    H211259   3.283   4.468   3.386
 3772TIP3   OH211260   3.470   4.523   2.850
 3772TIP3    H111261   3.420   4.598   2.819
 3772TIP3    H211262   3.556   4.532   2.808
 3773TIP3   OH211263   3.876   4.758   2.989
 3773TIP3    H111264   3.914   4.747   3.076
 3773TIP3    H211265   3.940   4.811   2.942
 3774TIP3   OH211266   4.068   4.912   2.862
 3774TIP3    H111267   4.132   4.853   2.822
 3774TIP3    H211268   4.121   4.969   2.917
 3775TIP3   OH211269   4.868   3.249   2.950
 3775TIP3    H111270   4.782   3.246   2.908
 3775TIP3    H211271   4.900   3.159   2.944
 3776TIP3   OH211272   3.134   4.774   2.896
 3776TIP3    H111273   3.042   4.791   2.875
 3776TIP3    H211274   3.156   4.837   2.964
 3777TIP3   OH211275   3.364   4.756   2.747
 3777TIP3    H111276   3.282   4.762   2.795
 3777TIP3    H211277   3.342   4.780   2.657
 3778TIP3   OH211278   3.781   4.773   2.538
 3778TIP3    H111279   3.708   4.785   2.478
 3778TIP3    H211280   3.791   4.858   2.581
 3779TIP3   OH211281   4.047   4.710   2.585
 3779TIP3    H111282   3.955   4.729   2.567
 3779TIP3    H211283   4.094   4.781   2.542
 3780TIP3   OH211284   4.251   4.889   2.495
 3780TIP3    H111285   4.245   4.975   2.453
 3780TIP3    H211286   4.280   4.830   2.425
 3781TIP3   OH211287   3.046   4.545   2.619
 3781TIP3    H111288   3.070   4.519   2.708
 3781TIP3    H211289   3.117   4.512   2.564
 3782TIP3   OH211290   3.248   4.430   2.478
 3782TIP3    H111291   3.259   4.346   2.522
 3782TIP3    H211292   3.334   4.471   2.482
 3783TIP3   OH211293   3.515   4.517   2.499
 3783TIP3    H111294   3.535   4.424   2.485
 3783TIP3    H211295   3.568   4.541   2.575
 3784TIP3   OH211296   4.075   3.168   2.583
 3784TIP3    H111297   4.038   3.097   2.635
 3784TIP3    H211298   4.144   3.126   2.531
 3785TIP3   OH211299   4.581   3.074   2.471
 3785TIP3    H111300   4.618   3.125   2.399
 3785TIP3    H211301   4.489   3.101   2.475
 3786TIP3   OH211302   4.694   3.158   2.236
 3786TIP3    H111303   4.763   3.098   2.209
 3786TIP3    H211304   4.731   3.245   2.223
 3787TIP3   OH211305   3.317   2.866   2.582
 3787TIP3    H111306   3.227   2.834   2.590
 3787TIP3    H211307   3.371   2.787   2.575
 3788TIP3   OH211308   3.124   2.770   2.236
 3788TIP3    H111309   3.155   2.820   2.161
 3788TIP3    H211310   3.093   2.835   2.298
 3789TIP3   OH211311   3.793   2.908   2.479
 3789TIP3    H111312   3.841   2.955   2.411
 3789TIP3    H211313   3.833   2.937   2.561
 3790TIP3   OH211314   4.291   3.053   2.453
 3790TIP3    H111315   4.305   3.017   2.365
 3790TIP3    H211316   4.295   2.976   2.510
 3791TIP3   OH211317   4.348   2.998   2.021
 3791TIP3    H111318   4.268   3.045   2.045
 3791TIP3    H211319   4.337   2.912   2.060
 3792TIP3   OH211320   2.815   4.342   2.000
 3792TIP3    H111321   2.730   4.307   1.972
 3792TIP3    H211322   2.815   4.432   1.967
 3793TIP3   OH211323   3.242   2.905   2.003
 3793TIP3    H111324   3.287   2.843   1.946
 3793TIP3    H211325   3.311   2.961   2.038
 3794TIP3   OH211326   3.732   3.099   2.096
 3794TIP3    H111327   3.790   3.047   2.151
 3794TIP3    H211328   3.747   3.189   2.125
 3795TIP3   OH211329   3.611   4.495   1.593
 3795TIP3    H111330   3.695   4.522   1.556
 3795TIP3    H211331   3.582   4.423   1.537
 3796TIP3   OH211332   4.322   4.639   1.693
 3796TIP3    H111333   4.314   4.543   1.686
 3796TIP3    H211334   4.276   4.671   1.615
 3797TIP3   OH211335   3.544   3.146   3.467
 3797TIP3    H111336   3.506   3.080   3.525
 3797TIP3    H211337   3.635   3.152   3.494
 3798TIP3   OH211338   3.795   3.147   3.584
 3798TIP3    H111339   3.872   3.138   3.528
 3798TIP3    H211340   3.801   3.076   3.647
 3799TIP3   OH211341   2.917   4.339   1.652
 3799TIP3    H111342   2.918   4.346   1.747
 3799TIP3    H211343   2.998   4.293   1.630
 3800TIP3   OH211344   4.616   3.228   3.378
 3800TIP3    H111345   4.631   3.205   3.470
 3800TIP3    H211346   4.703   3.227   3.338
 3801TIP3   OH211347   4.532   4.775   2.883
 3801TIP3    H111348   4.457   4.745   2.833
 3801TIP3    H211349   4.518   4.869   2.894
 3802TIP3   OH211350   5.811   4.164   1.624
 3802TIP3    H111351   5.781   4.251   1.597
 3802TIP3    H211352   5.739   4.106   1.600
 3803TIP3   OH211353   5.806   4.155   2.045
 3803TIP3    H111354   5.857   4.139   2.124
 3803TIP3    H211355   5.762   4.072   2.027
 3804TIP3   OH211356   5.105   4.023   2.393
 3804TIP3    H111357   5.139   3.969   2.464
 3804TIP3    H211358   5.182   4.053   2.346
 3805TIP3   OH211359   6.071   4.465   1.717
 3805TIP3    H111360   6.062   4.397   1.784
 3805TIP3    H211361   6.094   4.544   1.767
 3806TIP3   OH211362   5.097   4.446   2.081
 3806TIP3    H111363   5.079   4.352   2.089
 3806TIP3    H211364   5.192   4.453   2.075
 3807TIP3   OH211365   4.783   3.651   1.863
 3807TIP3    H111366   4.743   3.734   1.889
 3807TIP3    H211367   4.710   3.601   1.825
 3808TIP3   OH211368   4.859   3.957   2.082
 3808TIP3    H111369   4.908   3.880   2.110
 3808TIP3    H211370   4.926   4.020   2.055
 3809TIP3   OH211371   5.727   4.902   1.733
 3809TIP3    H111372   5.758   4.834   1.673
 3809TIP3    H211373   5.727   4.859   1.819
 3810TIP3   OH211374   5.615   4.380   2.052
 3810TIP3    H111375   5.658   4.299   2.024
 3810TIP3    H211376   5.686   4.435   2.084
 3811TIP3   OH211377   6.644   3.699   2.067
 3811TIP3    H111378   6.662   3.783   2.109
 3811TIP3    H211379   6.668   3.713   1.975
 3812TIP3   OH211380   6.022   3.866   2.087
 3812TIP3    H111381   6.057   3.782   2.116
 3812TIP3    H211382   5.985   3.849   2.001
 3813TIP3   OH211383   5.377   3.526   2.046
 3813TIP3    H111384   5.355   3.599   1.989
 3813TIP3    H211385   5.321   3.455   2.017
 3814TIP3   OH211386   6.072   3.624   1.681
 3814TIP3    H111387   6.135   3.617   1.752
 3814TIP3    H211388   6.122   3.659   1.607
 3815TIP3   OH211389   5.000   3.739   2.176
 3815TIP3    H111390   5.083   3.721   2.220
 3815TIP3    H211391   5.004   3.687   2.095
 3816TIP3   OH211392   5.424   3.939   1.986
 3816TIP3    H111393   5.518   3.922   1.995
 3816TIP3    H211394   5.388   3.857   1.953
 3817TIP3   OH211395   6.703   3.918   2.233
 3817TIP3    H111396   6.614   3.953   2.228
 3817TIP3    H211397   6.738   3.953   2.315
 3818TIP3   OH211398   5.357   3.527   2.498
 3818TIP3    H111399   5.305   3.562   2.426
 3818TIP3    H211400   5.303   3.542   2.576
 3819TIP3   OH211401   5.710   4.382   1.482
 3819TIP3    H111402   5.668   4.354   1.402
 3819TIP3    H211403   5.656   4.455   1.513
 3820TIP3   OH211404   5.455   4.304   2.266
 3820TIP3    H111405   5.400   4.374   2.301
 3820TIP3    H211406   5.503   4.345   2.194
 3821TIP3   OH211407   6.235   3.647   1.899
 3821TIP3    H111408   6.193   3.624   1.982
 3821TIP3    H211409   6.291   3.722   1.920
 3822TIP3   OH211410   5.247   3.635   2.268
 3822TIP3    H111411   5.301   3.710   2.292
 3822TIP3    H211412   5.294   3.593   2.197
 3823TIP3   OH211413   5.295   4.504   2.370
 3823TIP3    H111414   5.279   4.594   2.340
 3823TIP3    H211415   5.218   4.483   2.423
 3824TIP3   OH211416   4.674   4.208   1.622
 3824TIP3    H111417   4.636   4.227   1.536
 3824TIP3    H211418   4.698   4.293   1.657
 3825TIP3   OH211419   6.111   4.710   1.860
 3825TIP3    H111420   6.024   4.702   1.899
 3825TIP3    H211421   6.110   4.795   1.816
 3826TIP3   OH211422   6.444   3.588   2.235
 3826TIP3    H111423   6.358   3.612   2.201
 3826TIP3    H211424   6.506   3.616   2.168
 3827TIP3   OH211425   5.699   3.220   2.226
 3827TIP3    H111426   5.691   3.128   2.252
 3827TIP3    H211427   5.623   3.262   2.266
 3828TIP3   OH211428   5.822   4.736   1.530
 3828TIP3    H111429   5.874   4.657   1.515
 3828TIP3    H211430   5.881   4.808   1.507
 3829TIP3   OH211431   5.964   4.511   1.467
 3829TIP3    H111432   5.892   4.447   1.464
 3829TIP3    H211433   6.013   4.489   1.546
 3830TIP3   OH211434   6.346   4.604   2.202
 3830TIP3    H111435   6.329   4.527   2.147
 3830TIP3    H211436   6.331   4.679   2.144
 3831TIP3   OH211437   5.635   4.002   1.478
 3831TIP3    H111438   5.554   4.048   1.455
 3831TIP3    H211439   5.684   3.998   1.395
 3832TIP3   OH211440   5.601   3.812   1.164
 3832TIP3    H111441   5.666   3.859   1.216
 3832TIP3    H211442   5.651   3.743   1.120
 3833TIP3   OH211443   6.531   4.258   2.070
 3833TIP3    H111444   6.447   4.303   2.070
 3833TIP3    H211445   6.566   4.273   1.982
 3834TIP3   OH211446   5.996   4.081   1.441
 3834TIP3    H111447   5.942   4.113   1.514
 3834TIP3    H211448   6.079   4.057   1.481
 3835TIP3   OH211449   6.224   4.120   2.378
 3835TIP3    H111450   6.222   4.204   2.424
 3835TIP3    H211451   6.141   4.118   2.330
 3836TIP3   OH211452   5.225   4.075   1.840
 3836TIP3    H111453   5.188   4.014   1.776
 3836TIP3    H211454   5.297   4.027   1.880
 3837TIP3   OH211455   5.360   4.497   1.981
 3837TIP3    H111456   5.338   4.478   1.890
 3837TIP3    H211457   5.447   4.458   1.993
 3838TIP3   OH211458   5.325   4.067   2.214
 3838TIP3    H111459   5.364   4.032   2.134
 3838TIP3    H211460   5.375   4.148   2.231
 3839TIP3   OH211461   5.873   4.702   1.991
 3839TIP3    H111462   5.863   4.782   2.043
 3839TIP3    H211463   5.860   4.631   2.054
 3840TIP3   OH211464   5.495   4.606   2.534
 3840TIP3    H111465   5.436   4.663   2.583
 3840TIP3    H211466   5.437   4.553   2.479
 3841TIP3   OH211467   5.821   3.953   1.273
 3841TIP3    H111468   5.883   4.008   1.321
 3841TIP3    H211469   5.851   3.957   1.182
 3842TIP3   OH211470   5.250   4.155   2.667
 3842TIP3    H111471   5.255   4.247   2.693
 3842TIP3    H211472   5.157   4.135   2.664
 3843TIP3   OH211473   5.571   4.618   1.531
 3843TIP3    H111474   5.652   4.668   1.541
 3843TIP3    H211475   5.511   4.679   1.488
 3844TIP3   OH211476   5.282   4.763   2.621
 3844TIP3    H111477   5.256   4.770   2.529
 3844TIP3    H211478   5.201   4.747   2.668
 3845TIP3   OH211479   6.336   3.180   1.326
 3845TIP3    H111480   6.259   3.199   1.379
 3845TIP3    H211481   6.346   3.258   1.271
 3846TIP3   OH211482   5.097   3.917   1.640
 3846TIP3    H111483   5.019   3.963   1.609
 3846TIP3    H211484   5.067   3.829   1.661
 3847TIP3   OH211485   6.147   4.520   0.997
 3847TIP3    H111486   6.159   4.601   0.948
 3847TIP3    H211487   6.220   4.464   0.970
 3848TIP3   OH211488   4.876   4.318   2.570
 3848TIP3    H111489   4.806   4.299   2.508
 3848TIP3    H211490   4.910   4.232   2.595
 3849TIP3   OH211491   4.723   4.509   2.215
 3849TIP3    H111492   4.817   4.524   2.227
 3849TIP3    H211493   4.682   4.586   2.254
 3850TIP3   OH211494   6.577   4.960   2.271
 3850TIP3    H111495   6.583   4.866   2.284
 3850TIP3    H211496   6.498   4.986   2.317
 3851TIP3   OH211497   5.682   4.749   2.393
 3851TIP3    H111498   5.677   4.839   2.425
 3851TIP3    H211499   5.617   4.701   2.444
 3852TIP3   OH211500   5.448   4.843   1.366
 3852TIP3    H111501   5.407   4.821   1.282
 3852TIP3    H211502   5.412   4.929   1.388
 3853TIP3   OH211503   4.896   4.703   1.731
 3853TIP3    H111504   4.939   4.695   1.816
 3853TIP3    H211505   4.845   4.622   1.723
 3854TIP3   OH211506   5.675   4.757   1.024
 3854TIP3    H111507   5.723   4.678   1.000
 3854TIP3    H211508   5.702   4.775   1.114
 3855TIP3   OH211509   5.708   4.825   1.286
 3855TIP3    H111510   5.620   4.827   1.323
 3855TIP3    H211511   5.763   4.788   1.356
 3856TIP3   OH211512   6.473   4.076   2.540
 3856TIP3    H111513   6.387   4.088   2.500
 3856TIP3    H211514   6.490   3.982   2.534
 3857TIP3   OH211515   5.077   4.503   2.540
 3857TIP3    H111516   5.128   4.491   2.620
 3857TIP3    H211517   5.005   4.440   2.548
 3858TIP3   OH211518   5.463   3.313   2.353
 3858TIP3    H111519   5.379   3.280   2.321
 3858TIP3    H211520   5.441   3.393   2.401
 3859TIP3   OH211521   6.005   3.430   2.552
 3859TIP3    H111522   6.074   3.407   2.614
 3859TIP3    H211523   5.923   3.415   2.600
 3860TIP3   OH211524   6.226   3.856   2.468
 3860TIP3    H111525   6.184   3.851   2.554
 3860TIP3    H211526   6.210   3.945   2.438
 3861TIP3   OH211527   5.903   3.935   1.014
 3861TIP3    H111528   5.852   3.939   0.933
 3861TIP3    H211529   5.979   3.990   0.997
 3862TIP3   OH211530   5.613   3.355   1.321
 3862TIP3    H111531   5.578   3.361   1.410
 3862TIP3    H211532   5.577   3.274   1.286
 3863TIP3   OH211533   5.399   3.845   2.362
 3863TIP3    H111534   5.353   3.852   2.446
 3863TIP3    H211535   5.378   3.926   2.316
 3864TIP3   OH211536   5.281   3.724   1.881
 3864TIP3    H111537   5.192   3.700   1.907
 3864TIP3    H211538   5.291   3.689   1.793
 3865TIP3   OH211539   5.762   3.798   1.611
 3865TIP3    H111540   5.715   3.871   1.571
 3865TIP3    H211541   5.821   3.766   1.542
 3866TIP3   OH211542   5.946   4.067   2.685
 3866TIP3    H111543   5.920   3.999   2.748
 3866TIP3    H211544   6.037   4.086   2.708
 3867TIP3   OH211545   5.930   3.813   1.835
 3867TIP3    H111546   5.861   3.834   1.772
 3867TIP3    H211547   5.976   3.739   1.796
 3868TIP3   OH211548   5.235   3.858   2.582
 3868TIP3    H111549   5.253   3.920   2.652
 3868TIP3    H211550   5.216   3.775   2.627
 3869TIP3   OH211551   5.278   3.336   1.296
 3869TIP3    H111552   5.269   3.338   1.391
 3869TIP3    H211553   5.200   3.380   1.263
 3870TIP3   OH211554   4.825   3.379   2.159
 3870TIP3    H111555   4.897   3.414   2.212
 3870TIP3    H211556   4.867   3.358   2.075
 3871TIP3   OH211557   4.740   3.356   1.667
 3871TIP3    H111558   4.785   3.391   1.591
 3871TIP3    H211559   4.677   3.424   1.692
 3872TIP3   OH211560   5.968   4.067   2.260
 3872TIP3    H111561   5.993   4.000   2.197
 3872TIP3    H211562   5.926   4.019   2.332
 3873TIP3   OH211563   5.643   3.515   1.933
 3873TIP3    H111564   5.565   3.515   1.989
 3873TIP3    H211565   5.716   3.506   1.994
 3874TIP3   OH211566   5.043   3.600   1.942
 3874TIP3    H111567   4.954   3.604   1.906
 3874TIP3    H211568   5.070   3.509   1.927
 3875TIP3   OH211569   5.296   3.598   1.637
 3875TIP3    H111570   5.390   3.610   1.626
 3875TIP3    H211571   5.258   3.617   1.551
 3876TIP3   OH211572   6.095   3.602   2.137
 3876TIP3    H111573   6.078   3.617   2.230
 3876TIP3    H211574   6.026   3.542   2.110
 3877TIP3   OH211575   5.178   3.625   1.391
 3877TIP3    H111576   5.114   3.576   1.339
 3877TIP3    H211577   5.232   3.670   1.327
 3878TIP3   OH211578   6.291   5.306   2.367
 3878TIP3    H111579   6.289   5.321   2.272
 3878TIP3    H211580   6.371   5.352   2.396
 3879TIP3   OH211581   5.235   4.419   2.772
 3879TIP3    H111582   5.315   4.437   2.820
 3879TIP3    H211583   5.166   4.423   2.838
 3880TIP3   OH211584   5.694   3.883   2.042
 3880TIP3    H111585   5.762   3.833   1.997
 3880TIP3    H211586   5.691   3.845   2.130
 3881TIP3   OH211587   5.188   3.351   1.930
 3881TIP3    H111588   5.159   3.276   1.982
 3881TIP3    H211589   5.215   3.314   1.846
 3882TIP3   OH211590   5.668   3.791   2.308
 3882TIP3    H111591   5.580   3.822   2.332
 3882TIP3    H211592   5.727   3.843   2.362
 3883TIP3   OH211593   5.406   4.146   1.410
 3883TIP3    H111594   5.332   4.089   1.389
 3883TIP3    H211595   5.382   4.186   1.493
 3884TIP3   OH211596   6.293   4.394   2.029
 3884TIP3    H111597   6.329   4.443   1.954
 3884TIP3    H211598   6.213   4.354   1.995
 3885TIP3   OH211599   5.866   3.460   1.315
 3885TIP3    H111600   5.772   3.438   1.316
 3885TIP3    H211601   5.868   3.554   1.333
 3886TIP3   OH211602   5.812   4.477   2.438
 3886TIP3    H111603   5.861   4.460   2.518
 3886TIP3    H211604   5.771   4.562   2.452
 3887TIP3   OH211605   5.926   3.720   1.395
 3887TIP3    H111606   6.021   3.724   1.406
 3887TIP3    H211607   5.905   3.799   1.345
 3888TIP3   OH211608   5.094   4.157   2.071
 3888TIP3    H111609   5.133   4.140   1.985
 3888TIP3    H211610   5.158   4.125   2.134
 3889TIP3   OH211611   5.563   4.305   1.249
 3889TIP3    H111612   5.513   4.387   1.253
 3889TIP3    H211613   5.511   4.243   1.301
 3890TIP3   OH211614   4.977   4.090   2.702
 3890TIP3    H111615   4.985   4.069   2.795
 3890TIP3    H211616   4.903   4.038   2.672
 3891TIP3   OH211617   5.712   4.222   2.721
 3891TIP3    H111618   5.645   4.159   2.695
 3891TIP3    H211619   5.795   4.181   2.696
 3892TIP3   OH211620   5.953   4.764   2.311
 3892TIP3    H111621   5.859   4.749   2.320
 3892TIP3    H211622   5.978   4.804   2.395
 3893TIP3   OH211623   6.346   3.802   1.220
 3893TIP3    H111624   6.291   3.756   1.156
 3893TIP3    H211625   6.352   3.892   1.187
 3894TIP3   OH211626   6.592   4.679   2.295
 3894TIP3    H111627   6.497   4.666   2.289
 3894TIP3    H211628   6.626   4.650   2.210
 3895TIP3   OH211629   6.026   4.638   1.215
 3895TIP3    H111630   6.012   4.580   1.290
 3895TIP3    H211631   6.061   4.581   1.147
 3896TIP3   OH211632   6.062   4.263   1.923
 3896TIP3    H111633   5.972   4.241   1.948
 3896TIP3    H211634   6.097   4.181   1.888
 3897TIP3   OH211635   5.214   4.496   1.733
 3897TIP3    H111636   5.208   4.574   1.678
 3897TIP3    H211637   5.125   4.484   1.766
 3898TIP3   OH211638   4.775   3.782   1.448
 3898TIP3    H111639   4.818   3.864   1.470
 3898TIP3    H211640   4.695   3.782   1.500
 3899TIP3   OH211641   5.308   4.253   1.639
 3899TIP3    H111642   5.287   4.341   1.669
 3899TIP3    H211643   5.282   4.197   1.712
 3900TIP3   OH211644   5.497   4.821   2.190
 3900TIP3    H111645   5.535   4.893   2.140
 3900TIP3    H211646   5.569   4.787   2.243
 3901TIP3   OH211647   5.127   4.726   1.586
 3901TIP3    H111648   5.040   4.724   1.627
 3901TIP3    H211649   5.152   4.819   1.588
 3902TIP3   OH211650   5.851   4.481   2.164
 3902TIP3    H111651   5.837   4.478   2.259
 3902TIP3    H211652   5.929   4.427   2.149
 3903TIP3   OH211653   5.805   4.359   1.099
 3903TIP3    H111654   5.877   4.342   1.160
 3903TIP3    H211655   5.726   4.341   1.150
 3904TIP3   OH211656   6.106   4.980   2.204
 3904TIP3    H111657   6.038   4.915   2.220
 3904TIP3    H211658   6.072   5.034   2.133
 3905TIP3   OH211659   6.139   4.811   0.923
 3905TIP3    H111660   6.161   4.833   0.833
 3905TIP3    H211661   6.087   4.885   0.954
 3906TIP3   OH211662   5.185   3.605   2.704
 3906TIP3    H111663   5.090   3.614   2.711
 3906TIP3    H211664   5.211   3.561   2.785
 3907TIP3   OH211665   6.013   4.277   1.248
 3907TIP3    H111666   6.007   4.215   1.321
 3907TIP3    H211667   6.107   4.288   1.234
 3908TIP3   OH211668   4.926   4.702   2.354
 3908TIP3    H111669   4.976   4.637   2.403
 3908TIP3    H211670   4.939   4.784   2.402
 3909TIP3   OH211671   5.190   4.325   1.047
 3909TIP3    H111672   5.206   4.235   1.020
 3909TIP3    H211673   5.174   4.319   1.142
 3910TIP3   OH211674   5.136   4.343   1.319
 3910TIP3    H111675   5.200   4.315   1.384
 3910TIP3    H211676   5.136   4.438   1.325
 3911TIP3   OH211677   4.871   4.033   1.527
 3911TIP3    H111678   4.806   4.080   1.580
 3911TIP3    H211679   4.889   4.092   1.454
 3912TIP3   OH211680   6.041   3.657   2.399
 3912TIP3    H111681   6.114   3.707   2.436
 3912TIP3    H211682   6.030   3.583   2.458
 3913TIP3   OH211683   5.923   3.408   1.587
 3913TIP3    H111684   5.904   3.428   1.495
 3913TIP3    H211685   5.966   3.487   1.620
 3914TIP3   OH211686   5.410   4.527   1.267
 3914TIP3    H111687   5.325   4.549   1.305
 3914TIP3    H211688   5.431   4.603   1.212
 3915TIP3   OH211689   5.576   3.607   1.680
 3915TIP3    H111690   5.638   3.675   1.655
 3915TIP3    H211691   5.597   3.587   1.771
 3916TIP3   OH211692   5.875   3.905   2.462
 3916TIP3    H111693   5.896   3.952   2.543
 3916TIP3    H211694   5.924   3.822   2.469
 3917TIP3   OH211695   5.739   3.305   1.768
 3917TIP3    H111696   5.717   3.382   1.821
 3917TIP3    H211697   5.808   3.336   1.709
 3918TIP3   OH211698   5.158   4.616   1.337
 3918TIP3    H111699   5.136   4.686   1.275
 3918TIP3    H211700   5.146   4.655   1.423
 3919TIP3   OH211701   5.253   3.326   1.574
 3919TIP3    H111702   5.241   3.415   1.604
 3919TIP3    H211703   5.347   3.310   1.580
 3920TIP3   OH211704   6.490   3.803   2.447
 3920TIP3    H111705   6.396   3.811   2.460
 3920TIP3    H211706   6.499   3.744   2.372
 3921TIP3   OH211707   6.153   4.004   1.839
 3921TIP3    H111708   6.076   3.948   1.851
 3921TIP3    H211709   6.221   3.964   1.893
 3922TIP3   OH211710   4.890   4.212   1.312
 3922TIP3    H111711   4.961   4.276   1.321
 3922TIP3    H211712   4.923   4.149   1.248
 3923TIP3   OH211713   4.800   3.504   1.444
 3923TIP3    H111714   4.814   3.598   1.453
 3923TIP3    H211715   4.730   3.496   1.380
 3924TIP3   OH211716   6.134   4.977   1.782
 3924TIP3    H111717   6.092   5.032   1.717
 3924TIP3    H211718   6.228   4.989   1.767
 3925TIP3   OH211719   5.203   3.225   2.312
 3925TIP3    H111720   5.173   3.193   2.227
 3925TIP3    H211721   5.193   3.151   2.371
 3926TIP3   OH211722   4.723   4.480   1.701
 3926TIP3    H111723   4.674   4.513   1.777
 3926TIP3    H211724   4.681   4.521   1.626
 3927TIP3   OH211725   4.922   5.018   2.775
 3927TIP3    H111726   5.004   5.022   2.824
 3927TIP3    H211727   4.904   4.924   2.766
 3928TIP3   OH211728   5.387   4.933   2.810
 3928TIP3    H111729   5.477   4.903   2.825
 3928TIP3    H211730   5.354   4.877   2.740
 3929TIP3   OH211731   5.370   4.514   0.962
 3929TIP3    H111732   5.314   4.450   1.005
 3929TIP3    H211733   5.445   4.463   0.931
 3930TIP3   OH211734   6.013   4.875   2.552
 3930TIP3    H111735   6.012   4.801   2.613
 3930TIP3    H211736   6.089   4.927   2.579
 3931TIP3   OH211737   5.798   4.547   0.900
 3931TIP3    H111738   5.823   4.482   0.965
 3931TIP3    H211739   5.861   4.535   0.829
 3932TIP3   OH211740   5.029   4.416   2.961
 3932TIP3    H111741   5.050   4.324   2.972
 3932TIP3    H211742   4.941   4.416   2.922
 3933TIP3   OH211743   5.018   4.022   1.165
 3933TIP3    H111744   5.069   3.999   1.242
 3933TIP3    H211745   5.083   4.034   1.096
 3934TIP3   OH211746   5.647   4.499   2.740
 3934TIP3    H111747   5.603   4.519   2.657
 3934TIP3    H211748   5.681   4.410   2.728
 3935TIP3   OH211749   5.522   4.244   0.978
 3935TIP3    H111750   5.535   4.255   1.072
 3935TIP3    H211751   5.526   4.149   0.964
 3936TIP3   OH211752   6.123   4.538   2.353
 3936TIP3    H111753   6.201   4.569   2.306
 3936TIP3    H211754   6.057   4.605   2.337
 3937TIP3   OH211755   5.145   4.162   2.966
 3937TIP3    H111756   5.224   4.131   2.921
 3937TIP3    H211757   5.175   4.179   3.055
 3938TIP3   OH211758   5.196   3.966   1.374
 3938TIP3    H111759   5.173   3.937   1.463
 3938TIP3    H211760   5.240   3.891   1.335
 3939TIP3   OH211761   5.503   4.039   2.624
 3939TIP3    H111762   5.420   4.084   2.633
 3939TIP3    H211763   5.537   4.068   2.540
 3940TIP3   OH211764   5.330   3.776   1.219
 3940TIP3    H111765   5.299   3.778   1.129
 3940TIP3    H211766   5.425   3.784   1.213
 3941TIP3   OH211767   5.998   4.414   2.712
 3941TIP3    H111768   6.075   4.377   2.668
 3941TIP3    H211769   5.992   4.366   2.794
 3942TIP3   OH211770   6.154   4.032   0.893
 3942TIP3    H111771   6.124   3.995   0.810
 3942TIP3    H211772   6.103   4.113   0.903
 3943TIP3   OH211773   5.609   3.811   2.734
 3943TIP3    H111774   5.612   3.740   2.670
 3943TIP3    H211775   5.574   3.885   2.686
 3944TIP3   OH211776   5.617   3.610   2.532
 3944TIP3    H111777   5.643   3.649   2.449
 3944TIP3    H211778   5.526   3.585   2.519
 3945TIP3   OH211779   5.625   4.136   2.401
 3945TIP3    H111780   5.714   4.170   2.393
 3945TIP3    H211781   5.570   4.199   2.355
 3946TIP3   OH211782   6.213   4.108   2.789
 3946TIP3    H111783   6.262   4.027   2.803
 3946TIP3    H211784   6.280   4.176   2.784
 3947TIP3   OH211785   6.253   4.363   2.517
 3947TIP3    H111786   6.196   4.424   2.469
 3947TIP3    H211787   6.341   4.381   2.485
 3948TIP3   OH211788   5.489   3.897   2.974
 3948TIP3    H111789   5.420   3.834   2.996
 3948TIP3    H211790   5.521   3.869   2.888
 3949TIP3   OH211791   5.739   3.377   2.631
 3949TIP3    H111792   5.698   3.458   2.599
 3949TIP3    H211793   5.671   3.310   2.619
 3950TIP3   OH211794   5.865   3.854   2.838
 3950TIP3    H111795   5.855   3.843   2.933
 3950TIP3    H211796   5.778   3.832   2.803
 3951TIP3   OH211797   6.106   3.804   2.704
 3951TIP3    H111798   6.029   3.807   2.760
 3951TIP3    H211799   6.179   3.783   2.763
 3952TIP3   OH211800   6.347   3.772   2.850
 3952TIP3    H111801   6.359   3.678   2.860
 3952TIP3    H211802   6.339   3.805   2.939
 3953TIP3   OH211803   5.326   3.676   3.038
 3953TIP3    H111804   5.331   3.587   3.006
 3953TIP3    H211805   5.363   3.672   3.127
 3954TIP3   OH211806   5.805   3.355   2.896
 3954TIP3    H111807   5.876   3.291   2.890
 3954TIP3    H211808   5.775   3.366   2.806
 3955TIP3   OH211809   5.896   3.573   3.038
 3955TIP3    H111810   5.863   3.502   2.984
 3955TIP3    H211811   5.824   3.636   3.041
 3956TIP3   OH211812   5.151   4.829   1.158
 3956TIP3    H111813   5.240   4.809   1.129
 3956TIP3    H211814   5.114   4.883   1.087
 3957TIP3   OH211815   4.616   4.206   1.327
 3957TIP3    H111816   4.711   4.218   1.325
 3957TIP3    H211817   4.602   4.119   1.290
 3958TIP3   OH211818   4.523   4.797   1.788
 3958TIP3    H111819   4.459   4.742   1.743
 3958TIP3    H211820   4.568   4.737   1.848
 3959TIP3   OH211821   4.666   4.630   1.957
 3959TIP3    H111822   4.655   4.560   2.022
 3959TIP3    H211823   4.718   4.696   2.003
 3960TIP3   OH211824   6.402   5.036   1.767
 3960TIP3    H111825   6.425   5.064   1.855
 3960TIP3    H211826   6.463   5.083   1.710
 3961TIP3   OH211827   6.426   5.061   2.048
 3961TIP3    H111828   6.376   4.979   2.040
 3961TIP3    H211829   6.494   5.041   2.112
 3962TIP3   OH211830   6.465   4.760   2.626
 3962TIP3    H111831   6.395   4.767   2.691
 3962TIP3    H211832   6.511   4.844   2.630
 3963TIP3   OH211833   6.291   4.263   1.241
 3963TIP3    H111834   6.352   4.333   1.219
 3963TIP3    H211835   6.332   4.218   1.315
 3964TIP3   OH211836   6.423   4.123   1.436
 3964TIP3    H111837   6.357   4.085   1.494
 3964TIP3    H211838   6.487   4.162   1.495
 3965TIP3   OH211839   6.469   4.530   1.863
 3965TIP3    H111840   6.523   4.461   1.824
 3965TIP3    H211841   6.474   4.602   1.800
 3966TIP3   OH211842   6.281   4.824   2.050
 3966TIP3    H111843   6.214   4.867   2.103
 3966TIP3    H211844   6.232   4.782   1.980
 3967TIP3   OH211845   6.344   4.041   1.087
 3967TIP3    H111846   6.277   4.035   1.019
 3967TIP3    H211847   6.323   4.120   1.136
 3968TIP3   OH211848   6.198   3.695   1.017
 3968TIP3    H111849   6.151   3.745   0.951
 3968TIP3    H211850   6.182   3.603   0.995
 3969TIP3   OH211851   6.222   3.988   1.572
 3969TIP3    H111852   6.227   3.893   1.560
 3969TIP3    H211853   6.203   3.999   1.665
 3970TIP3   OH211854   4.841   4.060   2.336
 3970TIP3    H111855   4.832   4.025   2.247
 3970TIP3    H211856   4.935   4.056   2.354
 3971TIP3   OH211857   6.511   4.415   2.426
 3971TIP3    H111858   6.575   4.346   2.411
 3971TIP3    H211859   6.532   4.482   2.361
 3972TIP3   OH211860   6.684   4.201   2.419
 3972TIP3    H111861   6.610   4.160   2.463
 3972TIP3    H211862   6.758   4.144   2.439
 3973TIP3   OH211863   6.152   3.421   0.978
 3973TIP3    H111864   6.213   3.404   1.050
 3973TIP3    H211865   6.068   3.387   1.010
 3974TIP3   OH211866   6.215   3.713   1.454
 3974TIP3    H111867   6.259   3.629   1.467
 3974TIP3    H211868   6.259   3.752   1.379
 3975TIP3   OH211869   6.369   3.880   1.974
 3975TIP3    H111870   6.450   3.898   1.926
 3975TIP3    H211871   6.382   3.919   2.060
 3976TIP3   OH211872   6.443   4.029   2.201
 3976TIP3    H111873   6.372   4.058   2.258
 3976TIP3    H211874   6.474   4.110   2.160
 3977TIP3   OH211875   5.063   3.738   2.976
 3977TIP3    H111876   5.157   3.737   2.997
 3977TIP3    H211877   5.029   3.658   3.017
 3978TIP3   OH211878   6.906   3.629   2.744
 3978TIP3    H111879   6.969   3.571   2.702
 3978TIP3    H211880   6.868   3.679   2.672
 3979TIP3   OH211881   6.330   3.464   1.503
 3979TIP3    H111882   6.375   3.449   1.586
 3979TIP3    H211883   6.267   3.392   1.497
 3980TIP3   OH211884   5.037   3.449   2.324
 3980TIP3    H111885   5.091   3.370   2.333
 3980TIP3    H211886   5.100   3.520   2.311
 3981TIP3   OH211887   4.819   3.708   2.392
 3981TIP3    H111888   4.870   3.704   2.311
 3981TIP3    H211889   4.848   3.787   2.436
 3982TIP3   OH211890   6.756   3.750   2.551
 3982TIP3    H111891   6.680   3.790   2.594
 3982TIP3    H211892   6.719   3.683   2.495
 3983TIP3   OH211893   6.373   3.385   1.145
 3983TIP3    H111894   6.419   3.323   1.089
 3983TIP3    H211895   6.432   3.461   1.150
 3984TIP3   OH211896   4.805   3.219   1.894
 3984TIP3    H111897   4.719   3.209   1.935
 3984TIP3    H211898   4.790   3.275   1.818
 3985TIP3   OH211899   5.962   4.946   1.440
 3985TIP3    H111900   6.017   4.931   1.363
 3985TIP3    H211901   6.006   5.016   1.488
 3986TIP3   OH211902   5.026   3.272   2.712
 3986TIP3    H111903   4.981   3.275   2.797
 3986TIP3    H211904   4.971   3.325   2.654
 3987TIP3   OH211905   5.058   4.735   2.786
 3987TIP3    H111906   4.964   4.715   2.779
 3987TIP3    H211907   5.079   4.719   2.878
 3988TIP3   OH211908   5.267   4.779   2.337
 3988TIP3    H111909   5.216   4.854   2.306
 3988TIP3    H211910   5.352   4.789   2.295
 3989TIP3   OH211911   5.673   5.015   2.476
 3989TIP3    H111912   5.710   5.004   2.564
 3989TIP3    H211913   5.738   5.067   2.429
 3990TIP3   OH211914   5.865   5.168   2.348
 3990TIP3    H111915   5.928   5.109   2.307
 3990TIP3    H211916   5.918   5.225   2.404
 3991TIP3   OH211917   6.663   3.503   2.438
 3991TIP3    H111918   6.577   3.499   2.397
 3991TIP3    H211919   6.697   3.414   2.432
 3992TIP3   OH211920   4.929   5.033   2.381
 3992TIP3    H111921   4.837   5.049   2.361
 3992TIP3    H211922   4.950   5.096   2.451
 3993TIP3   OH211923   5.160   5.013   2.234
 3993TIP3    H111924   5.078   5.020   2.283
 3993TIP3    H211925   5.137   5.036   2.145
 3994TIP3   OH211926   5.577   5.031   2.023
 3994TIP3    H111927   5.502   5.042   1.964
 3994TIP3    H211928   5.585   5.115   2.068
 3995TIP3   OH211929   5.842   4.968   2.073
 3995TIP3    H111930   5.750   4.987   2.054
 3995TIP3    H211931   5.891   5.038   2.030
 3996TIP3   OH211932   6.045   5.146   1.981
 3996TIP3    H111933   6.040   5.231   1.939
 3996TIP3    H211934   6.075   5.086   1.913
 3997TIP3   OH211935   4.844   4.802   2.105
 3997TIP3    H111936   4.867   4.775   2.194
 3997TIP3    H211937   4.915   4.768   2.051
 3998TIP3   OH211938   5.045   4.687   1.963
 3998TIP3    H111939   5.055   4.602   2.007
 3998TIP3    H211940   5.132   4.727   1.967
 3999TIP3   OH211941   5.313   4.774   1.985
 3999TIP3    H111942   5.332   4.681   1.970
 3999TIP3    H211943   5.365   4.797   2.061
 4000TIP3   OH211944   5.872   3.423   2.069
 4000TIP3    H111945   5.834   3.352   2.121
 4000TIP3    H211946   5.941   3.381   2.018
 4001TIP3   OH211947   6.377   3.330   1.957
 4001TIP3    H111948   6.414   3.380   1.885
 4001TIP3    H211949   6.285   3.356   1.961
 4002TIP3   OH211950   6.490   3.414   1.722
 4002TIP3    H111951   6.559   3.353   1.695
 4002TIP3    H211952   6.528   3.501   1.709
 4003TIP3   OH211953   5.114   3.123   2.070
 4003TIP3    H111954   5.024   3.090   2.080
 4003TIP3    H211955   5.167   3.044   2.063
 4004TIP3   OH211956   4.924   3.025   1.722
 4004TIP3    H111957   4.953   3.077   1.646
 4004TIP3    H211958   4.890   3.090   1.784
 4005TIP3   OH211959   5.589   3.163   1.965
 4005TIP3    H111960   5.638   3.211   1.898
 4005TIP3    H211961   5.629   3.191   2.048
 4006TIP3   OH211962   6.088   3.307   1.939
 4006TIP3    H111963   6.103   3.272   1.852
 4006TIP3    H211964   6.092   3.231   1.997
 4007TIP3   OH211965   6.143   3.254   1.509
 4007TIP3    H111966   6.063   3.301   1.532
 4007TIP3    H211967   6.133   3.168   1.548
 4008TIP3   OH211968   4.609   4.598   1.480
 4008TIP3    H111969   4.524   4.565   1.451
 4008TIP3    H211970   4.610   4.689   1.452
 4009TIP3   OH211971   5.039   3.160   1.488
 4009TIP3    H111972   5.085   3.098   1.430
 4009TIP3    H211973   5.108   3.216   1.523
 4010TIP3   OH211974   5.528   3.355   1.584
 4010TIP3    H111975   5.587   3.303   1.639
 4010TIP3    H211976   5.542   3.445   1.612
 4011TIP3   OH211977   5.407   4.751   1.094
 4011TIP3    H111978   5.494   4.778   1.065
 4011TIP3    H211979   5.385   4.677   1.039
 4012TIP3   OH211980   6.111   4.897   1.215
 4012TIP3    H111981   6.088   4.804   1.211
 4012TIP3    H211982   6.068   4.935   1.138
 4013TIP3   OH211983   5.337   3.405   2.951
 4013TIP3    H111984   5.300   3.339   3.011
 4013TIP3    H211985   5.429   3.412   2.977
 4014TIP3   OH211986   5.585   3.408   3.073
 4014TIP3    H111987   5.664   3.385   3.024
 4014TIP3    H211988   5.578   3.340   3.139
 4015TIP3   OH211989   4.712   4.589   1.144
 4015TIP3    H111990   4.710   4.595   1.240
 4015TIP3    H211991   4.793   4.544   1.124
 4016TIP3   OH211992   6.410   3.500   2.864
 4016TIP3    H111993   6.426   3.472   2.954
 4016TIP3    H211994   6.496   3.495   2.822
 4017TIP3   OH211995   6.329   5.032   2.369
 4017TIP3    H111996   6.253   5.001   2.319
 4017TIP3    H211997   6.314   5.125   2.380
 4018TIP3   OH211998   7.612   4.395   1.129
 4018TIP3    H111999   7.575   4.482   1.116
 4018TIP3    H212000   7.545   4.335   1.097
 4019TIP3   OH212001   7.573   4.409   1.512
 4019TIP3    H112002   7.601   4.395   1.602
 4019TIP3    H212003   7.537   4.324   1.485
 4020TIP3   OH212004   6.902   4.280   1.882
 4020TIP3    H112005   6.936   4.226   1.953
 4020TIP3    H212006   6.979   4.305   1.832
 4021TIP3   OH212007   7.883   4.700   1.251
 4021TIP3    H112008   7.865   4.640   1.323
 4021TIP3    H212009   7.913   4.780   1.294
 4022TIP3   OH212010   6.891   4.701   1.566
 4022TIP3    H112011   6.874   4.608   1.578
 4022TIP3    H212012   6.986   4.708   1.560
 4023TIP3   OH212013   6.579   3.904   1.352
 4023TIP3    H112014   6.540   3.988   1.377
 4023TIP3    H212015   6.507   3.853   1.316
 4024TIP3   OH212016   6.650   4.212   1.571
 4024TIP3    H112017   6.701   4.135   1.597
 4024TIP3    H212018   6.716   4.274   1.537
 4025TIP3   OH212019   7.484   5.172   1.283
 4025TIP3    H112020   7.511   5.088   1.248
 4025TIP3    H212021   7.452   5.153   1.371
 4026TIP3   OH212022   7.409   4.638   1.538
 4026TIP3    H112023   7.449   4.557   1.507
 4026TIP3    H212024   7.484   4.690   1.570
 4027TIP3   OH212025   7.791   4.145   1.574
 4027TIP3    H112026   7.822   4.055   1.585
 4027TIP3    H212027   7.733   4.141   1.498
 4028TIP3   OH212028   7.160   3.784   1.540
 4028TIP3    H112029   7.139   3.856   1.480
 4028TIP3    H212030   7.108   3.710   1.507
 4029TIP3   OH212031   7.863   3.887   1.186
 4029TIP3    H112032   7.922   3.843   1.248
 4029TIP3    H212033   7.916   3.958   1.151
 4030TIP3   OH212034   6.792   3.994   1.661
 4030TIP3    H112035   6.874   3.975   1.707
 4030TIP3    H212036   6.797   3.942   1.580
 4031TIP3   OH212037   7.214   4.190   1.484
 4031TIP3    H112038   7.309   4.176   1.491
 4031TIP3    H212039   7.181   4.109   1.446
 4032TIP3   OH212040   7.147   3.783   1.987
 4032TIP3    H112041   7.096   3.819   1.915
 4032TIP3    H212042   7.093   3.799   2.065
 4033TIP3   OH212043   7.484   4.612   1.015
 4033TIP3    H112044   7.465   4.580   0.927
 4033TIP3    H212045   7.399   4.639   1.050
 4034TIP3   OH212046   7.247   4.563   1.750
 4034TIP3    H112047   7.192   4.633   1.785
 4034TIP3    H212048   7.295   4.604   1.678
 4035TIP3   OH212049   7.034   3.891   1.760
 4035TIP3    H112050   7.089   3.966   1.782
 4035TIP3    H212051   7.080   3.849   1.688
 4036TIP3   OH212052   7.088   4.759   1.859
 4036TIP3    H112053   7.074   4.849   1.829
 4036TIP3    H212054   7.011   4.739   1.911
 4037TIP3   OH212055   6.486   4.443   1.163
 4037TIP3    H112056   6.441   4.451   1.079
 4037TIP3    H212057   6.507   4.533   1.188
 4038TIP3   OH212058   7.924   4.950   1.365
 4038TIP3    H112059   7.833   4.947   1.398
 4038TIP3    H212060   7.934   5.039   1.332
 4039TIP3   OH212061   7.479   3.476   1.714
 4039TIP3    H112062   7.473   3.384   1.740
 4039TIP3    H212063   7.402   3.517   1.755
 4040TIP3   OH212064   7.641   4.987   1.136
 4040TIP3    H112065   7.685   4.906   1.114
 4040TIP3    H212066   7.648   5.041   1.057
 4041TIP3   OH212067   7.730   4.740   1.034
 4041TIP3    H112068   7.648   4.691   1.034
 4041TIP3    H212069   7.778   4.706   1.110
 4042TIP3   OH212070   8.128   4.827   1.704
 4042TIP3    H112071   8.110   4.765   1.634
 4042TIP3    H212072   8.135   4.912   1.659
 4043TIP3   OH212073   7.445   4.251   0.963
 4043TIP3    H112074   7.355   4.284   0.961
 4043TIP3    H212075   7.478   4.266   0.874
 4044TIP3   OH212076   7.400   4.075   0.664
 4044TIP3    H112077   7.469   4.129   0.703
 4044TIP3    H212078   7.447   4.005   0.619
 4045TIP3   OH212079   7.796   4.310   0.947
 4045TIP3    H112080   7.740   4.344   1.016
 4045TIP3    H212081   7.867   4.265   0.994
 4046TIP3   OH212082   7.878   4.367   1.958
 4046TIP3    H112083   7.924   4.445   1.990
 4046TIP3    H212084   7.816   4.401   1.893
 4047TIP3   OH212085   6.994   4.302   1.356
 4047TIP3    H112086   6.966   4.245   1.284
 4047TIP3    H212087   7.072   4.260   1.391
 4048TIP3   OH212088   7.157   4.739   1.472
 4048TIP3    H112089   7.141   4.724   1.379
 4048TIP3    H212090   7.246   4.708   1.486
 4049TIP3   OH212091   7.118   4.325   1.707
 4049TIP3    H112092   7.155   4.288   1.627
 4049TIP3    H212093   7.167   4.406   1.721
 4050TIP3   OH212094   7.678   4.949   1.480
 4050TIP3    H112095   7.662   5.031   1.527
 4050TIP3    H212096   7.660   4.881   1.544
 4051TIP3   OH212097   7.286   4.862   2.024
 4051TIP3    H112098   7.225   4.920   2.071
 4051TIP3    H212099   7.231   4.809   1.968
 4052TIP3   OH212100   7.626   4.231   0.743
 4052TIP3    H112101   7.684   4.262   0.812
 4052TIP3    H212102   7.636   4.296   0.673
 4053TIP3   OH212103   7.044   4.412   2.157
 4053TIP3    H112104   7.048   4.505   2.181
 4053TIP3    H212105   6.951   4.392   2.153
 4054TIP3   OH212106   7.373   4.929   1.171
 4054TIP3    H112107   7.469   4.922   1.175
 4054TIP3    H212108   7.352   4.913   1.079
 4055TIP3   OH212109   7.077   5.020   2.111
 4055TIP3    H112110   7.052   5.027   2.019
 4055TIP3    H212111   6.994   5.004   2.157
 4056TIP3   OH212112   6.899   4.147   1.142
 4056TIP3    H112113   6.817   4.191   1.119
 4056TIP3    H212114   6.874   4.055   1.153
 4057TIP3   OH212115   6.672   4.574   2.057
 4057TIP3    H112116   6.602   4.554   1.994
 4057TIP3    H212117   6.707   4.489   2.082
 4058TIP3   OH212118   6.531   4.757   1.710
 4058TIP3    H112119   6.626   4.763   1.708
 4058TIP3    H212120   6.503   4.835   1.759
 4059TIP3   OH212121   7.473   5.001   1.880
 4059TIP3    H112122   7.471   5.091   1.912
 4059TIP3    H212123   7.407   4.956   1.933
 4060TIP3   OH212124   7.271   5.166   0.714
 4060TIP3    H112125   7.190   5.120   0.690
 4060TIP3    H212126   7.243   5.229   0.780
 4061TIP3   OH212127   6.663   4.960   1.244
 4061TIP3    H112128   6.715   4.956   1.324
 4061TIP3    H212129   6.616   4.877   1.241
 4062TIP3   OH212130   7.419   4.942   0.654
 4062TIP3    H112131   7.365   5.021   0.654
 4062TIP3    H212132   7.498   4.967   0.703
 4063TIP3   OH212133   6.871   4.761   2.029
 4063TIP3    H112134   6.922   4.748   2.108
 4063TIP3    H212135   6.800   4.698   2.035
 4064TIP3   OH212136   7.249   3.569   1.841
 4064TIP3    H112137   7.164   3.538   1.809
 4064TIP3    H212138   7.228   3.649   1.889
 4065TIP3   OH212139   7.754   3.693   2.053
 4065TIP3    H112140   7.826   3.670   2.113
 4065TIP3    H212141   7.675   3.674   2.103
 4066TIP3   OH212142   8.117   4.147   1.979
 4066TIP3    H112143   8.044   4.165   2.038
 4066TIP3    H212144   8.100   4.203   1.903
 4067TIP3   OH212145   7.419   3.611   0.813
 4067TIP3    H112146   7.386   3.621   0.902
 4067TIP3    H212147   7.378   3.531   0.780
 4068TIP3   OH212148   7.189   4.099   1.850
 4068TIP3    H112149   7.145   4.108   1.934
 4068TIP3    H212150   7.171   4.181   1.804
 4069TIP3   OH212151   7.075   3.981   1.372
 4069TIP3    H112152   6.985   3.957   1.395
 4069TIP3    H212153   7.087   3.947   1.283
 4070TIP3   OH212154   7.565   4.040   1.082
 4070TIP3    H112155   7.517   4.114   1.043
 4070TIP3    H212156   7.620   4.008   1.011
 4071TIP3   OH212157   7.691   4.342   2.177
 4071TIP3    H112158   7.688   4.272   2.243
 4071TIP3    H212159   7.784   4.347   2.152
 4072TIP3   OH212160   7.706   4.084   1.316
 4072TIP3    H112161   7.642   4.095   1.245
 4072TIP3    H212162   7.748   4.000   1.297
 4073TIP3   OH212163   7.029   4.115   2.072
 4073TIP3    H112164   7.051   4.177   2.143
 4073TIP3    H212165   7.011   4.033   2.118
 4074TIP3   OH212166   7.071   3.595   0.782
 4074TIP3    H112167   7.063   3.597   0.878
 4074TIP3    H212168   6.995   3.644   0.751
 4075TIP3   OH212169   6.622   3.636   1.646
 4075TIP3    H112170   6.691   3.672   1.702
 4075TIP3    H212171   6.665   3.617   1.563
 4076TIP3   OH212172   6.538   3.610   1.159
 4076TIP3    H112173   6.581   3.645   1.082
 4076TIP3    H212174   6.475   3.678   1.185
 4077TIP3   OH212175   7.671   4.330   1.755
 4077TIP3    H112176   7.722   4.272   1.697
 4077TIP3    H212177   7.644   4.273   1.827
 4078TIP3   OH212178   7.419   3.841   1.436
 4078TIP3    H112179   7.340   3.818   1.486
 4078TIP3    H212180   7.486   3.781   1.467
 4079TIP3   OH212181   6.838   3.854   1.429
 4079TIP3    H112182   6.750   3.859   1.393
 4079TIP3    H212183   6.866   3.764   1.412
 4080TIP3   OH212184   7.088   3.854   1.129
 4080TIP3    H112185   7.182   3.867   1.117
 4080TIP3    H212186   7.050   3.872   1.043
 4081TIP3   OH212187   7.865   3.877   1.576
 4081TIP3    H112188   7.853   3.865   1.670
 4081TIP3    H212189   7.882   3.789   1.543
 4082TIP3   OH212190   6.967   3.879   0.886
 4082TIP3    H112191   6.904   3.834   0.831
 4082TIP3    H212192   7.025   3.924   0.824
 4083TIP3   OH212193   8.079   5.577   1.874
 4083TIP3    H112194   8.104   5.587   1.782
 4083TIP3    H212195   8.162   5.574   1.921
 4084TIP3   OH212196   7.029   4.676   2.259
 4084TIP3    H112197   7.110   4.695   2.307
 4084TIP3    H212198   6.960   4.681   2.326
 4085TIP3   OH212199   7.481   4.130   1.530
 4085TIP3    H112200   7.507   4.055   1.476
 4085TIP3    H212201   7.481   4.096   1.619
 4086TIP3   OH212202   6.981   3.606   1.414
 4086TIP3    H112203   6.952   3.530   1.464
 4086TIP3    H212204   7.011   3.569   1.331
 4087TIP3   OH212205   7.452   4.037   1.796
 4087TIP3    H112206   7.362   4.064   1.815
 4087TIP3    H212207   7.505   4.087   1.859
 4088TIP3   OH212208   7.201   4.365   0.939
 4088TIP3    H112209   7.119   4.325   0.909
 4088TIP3    H212210   7.177   4.407   1.022
 4089TIP3   OH212211   8.079   4.631   1.522
 4089TIP3    H112212   8.133   4.615   1.445
 4089TIP3    H212213   7.995   4.590   1.500
 4090TIP3   OH212214   7.673   3.711   0.793
 4090TIP3    H112215   7.580   3.687   0.796
 4090TIP3    H212216   7.674   3.806   0.797
 4091TIP3   OH212217   7.607   4.738   1.921
 4091TIP3    H112218   7.643   4.722   2.008
 4091TIP3    H212219   7.562   4.823   1.928
 4092TIP3   OH212220   7.717   3.986   0.853
 4092TIP3    H112221   7.809   4.007   0.863
 4092TIP3    H212222   7.681   4.056   0.798
 4093TIP3   OH212223   6.883   4.421   1.574
 4093TIP3    H112224   6.915   4.389   1.490
 4093TIP3    H212225   6.947   4.389   1.638
 4094TIP3   OH212226   7.365   4.515   0.779
 4094TIP3    H112227   7.308   4.585   0.748
 4094TIP3    H212228   7.307   4.456   0.827
 4095TIP3   OH212229   6.772   4.347   2.190
 4095TIP3    H112230   6.779   4.323   2.283
 4095TIP3    H212231   6.698   4.295   2.158
 4096TIP3   OH212232   7.472   4.492   2.217
 4096TIP3    H112233   7.405   4.431   2.187
 4096TIP3    H212234   7.555   4.452   2.191
 4097TIP3   OH212235   7.741   5.008   1.796
 4097TIP3    H112236   7.646   4.996   1.792
 4097TIP3    H212237   7.757   5.045   1.883
 4098TIP3   OH212238   7.835   4.507   1.445
 4098TIP3    H112239   7.742   4.488   1.460
 4098TIP3    H212240   7.869   4.429   1.402
 4099TIP3   OH212241   7.005   4.724   1.229
 4099TIP3    H112242   6.989   4.811   1.194
 4099TIP3    H212243   6.927   4.704   1.282
 4100TIP3   OH212244   6.573   4.028   0.938
 4100TIP3    H112245   6.622   4.105   0.968
 4100TIP3    H212246   6.494   4.028   0.991
 4101TIP3   OH212247   7.125   4.468   1.181
 4101TIP3    H112248   7.096   4.559   1.189
 4101TIP3    H212249   7.076   4.422   1.249
 4102TIP3   OH212250   7.290   5.070   1.679
 4102TIP3    H112251   7.325   5.149   1.637
 4102TIP3    H212252   7.363   5.037   1.731
 4103TIP3   OH212253   6.909   4.974   1.133
 4103TIP3    H112254   6.820   4.974   1.167
 4103TIP3    H212255   6.925   5.066   1.109
 4104TIP3   OH212256   7.649   4.728   1.649
 4104TIP3    H112257   7.636   4.726   1.744
 4104TIP3    H212258   7.728   4.677   1.635
 4105TIP3   OH212259   7.900   5.217   1.700
 4105TIP3    H112260   7.838   5.146   1.718
 4105TIP3    H212261   7.859   5.268   1.631
 4106TIP3   OH212262   6.979   3.862   2.194
 4106TIP3    H112263   6.884   3.871   2.199
 4106TIP3    H212264   7.003   3.813   2.272
 4107TIP3   OH212265   7.815   4.481   0.733
 4107TIP3    H112266   7.811   4.430   0.814
 4107TIP3    H212267   7.908   4.481   0.709
 4108TIP3   OH212268   6.717   4.967   1.845
 4108TIP3    H112269   6.769   4.905   1.895
 4108TIP3    H212270   6.733   5.052   1.887
 4109TIP3   OH212271   7.103   4.446   0.630
 4109TIP3    H112272   7.112   4.369   0.573
 4109TIP3    H212273   7.064   4.512   0.573
 4110TIP3   OH212274   6.919   4.559   0.812
 4110TIP3    H112275   6.992   4.521   0.763
 4110TIP3    H212276   6.951   4.645   0.841
 4111TIP3   OH212277   6.667   4.263   1.054
 4111TIP3    H112278   6.606   4.312   1.109
 4111TIP3    H212279   6.679   4.317   0.976
 4112TIP3   OH212280   7.832   3.851   1.845
 4112TIP3    H112281   7.827   3.945   1.864
 4112TIP3    H212282   7.789   3.810   1.920
 4113TIP3   OH212283   7.688   3.691   1.078
 4113TIP3    H112284   7.694   3.690   0.983
 4113TIP3    H212285   7.742   3.765   1.105
 4114TIP3   OH212286   7.187   4.714   0.704
 4114TIP3    H112287   7.141   4.797   0.714
 4114TIP3    H212288   7.221   4.716   0.614
 4115TIP3   OH212289   7.365   3.870   1.165
 4115TIP3    H112290   7.434   3.928   1.132
 4115TIP3    H212291   7.382   3.864   1.259
 4116TIP3   OH212292   7.616   4.166   1.973
 4116TIP3    H112293   7.624   4.228   2.046
 4116TIP3    H212294   7.704   4.128   1.964
 4117TIP3   OH212295   7.532   3.559   1.257
 4117TIP3    H112296   7.556   3.602   1.339
 4117TIP3    H212297   7.585   3.603   1.191
 4118TIP3   OH212298   6.958   4.808   0.920
 4118TIP3    H112299   6.912   4.840   0.843
 4118TIP3    H212300   6.957   4.881   0.982
 4119TIP3   OH212301   7.052   3.583   1.063
 4119TIP3    H112302   7.039   3.672   1.093
 4119TIP3    H212303   7.146   3.569   1.068
 4120TIP3   OH212304   7.922   4.258   1.348
 4120TIP3    H112305   7.840   4.211   1.331
 4120TIP3    H212306   7.945   4.234   1.438
 4121TIP3   OH212307   6.703   4.402   0.819
 4121TIP3    H112308   6.781   4.456   0.826
 4121TIP3    H212309   6.727   4.333   0.757
 4122TIP3   OH212310   6.600   3.753   0.936
 4122TIP3    H112311   6.613   3.847   0.946
 4122TIP3    H212312   6.537   3.745   0.864
 4123TIP3   OH212313   7.979   5.226   1.343
 4123TIP3    H112314   7.914   5.239   1.274
 4123TIP3    H212315   8.063   5.234   1.297
 4124TIP3   OH212316   6.990   3.483   1.799
 4124TIP3    H112317   6.961   3.450   1.714
 4124TIP3    H212318   6.981   3.408   1.858
 4125TIP3   OH212319   6.535   4.714   1.235
 4125TIP3    H112320   6.489   4.743   1.313
 4125TIP3    H212321   6.480   4.742   1.162
 4126TIP3   OH212322   6.719   5.273   2.263
 4126TIP3    H112323   6.802   5.277   2.311
 4126TIP3    H212324   6.704   5.179   2.250
 4127TIP3   OH212325   7.183   5.190   2.299
 4127TIP3    H112326   7.273   5.160   2.311
 4127TIP3    H212327   7.149   5.134   2.229
 4128TIP3   OH212328   7.772   5.107   2.045
 4128TIP3    H112329   7.784   5.045   2.117
 4128TIP3    H212330   7.841   5.172   2.057
 4129TIP3   OH212331   6.824   4.672   2.449
 4129TIP3    H112332   6.845   4.579   2.460
 4129TIP3    H212333   6.737   4.673   2.410
 4130TIP3   OH212334   6.835   4.243   0.644
 4130TIP3    H112335   6.891   4.230   0.720
 4130TIP3    H212336   6.896   4.257   0.571
 4131TIP3   OH212337   7.443   4.766   2.228
 4131TIP3    H112338   7.395   4.787   2.147
 4131TIP3    H212339   7.465   4.673   2.219
 4132TIP3   OH212340   7.366   4.469   0.487
 4132TIP3    H112341   7.442   4.527   0.497
 4132TIP3    H212342   7.323   4.471   0.572
 4133TIP3   OH212343   7.920   4.807   1.875
 4133TIP3    H112344   7.993   4.816   1.814
 4133TIP3    H212345   7.852   4.864   1.840
 4134TIP3   OH212346   6.942   4.418   2.454
 4134TIP3    H112347   7.018   4.392   2.403
 4134TIP3    H212348   6.976   4.436   2.541
 4135TIP3   OH212349   6.982   4.207   0.875
 4135TIP3    H112350   6.963   4.177   0.964
 4135TIP3    H212351   7.036   4.136   0.838
 4136TIP3   OH212352   7.294   4.297   2.109
 4136TIP3    H112353   7.210   4.342   2.115
 4136TIP3    H212354   7.332   4.328   2.027
 4137TIP3   OH212355   7.128   4.027   0.723
 4137TIP3    H112356   7.094   4.026   0.634
 4137TIP3    H212357   7.223   4.039   0.712
 4138TIP3   OH212358   7.800   4.670   2.211
 4138TIP3    H112359   7.869   4.632   2.157
 4138TIP3    H212360   7.793   4.610   2.286
 4139TIP3   OH212361   7.393   4.068   2.226
 4139TIP3    H112362   7.402   3.996   2.163
 4139TIP3    H212363   7.364   4.142   2.174
 4140TIP3   OH212364   7.405   3.864   2.026
 4140TIP3    H112365   7.435   3.902   1.943
 4140TIP3    H212366   7.314   3.841   2.010
 4141TIP3   OH212367   7.417   4.403   1.892
 4141TIP3    H112368   7.503   4.412   1.851
 4141TIP3    H212369   7.362   4.467   1.846
 4142TIP3   OH212370   7.966   4.320   2.289
 4142TIP3    H112371   7.946   4.234   2.254
 4142TIP3    H212372   8.054   4.340   2.257
 4143TIP3   OH212373   7.996   4.599   2.028
 4143TIP3    H112374   7.965   4.669   1.971
 4143TIP3    H212375   8.076   4.567   1.987
 4144TIP3   OH212376   7.276   4.158   2.462
 4144TIP3    H112377   7.209   4.093   2.484
 4144TIP3    H212378   7.307   4.133   2.375
 4145TIP3   OH212379   7.501   3.627   2.138
 4145TIP3    H112380   7.463   3.707   2.103
 4145TIP3    H212381   7.436   3.559   2.118
 4146TIP3   OH212382   7.652   4.114   2.321
 4146TIP3    H112383   7.660   4.096   2.415
 4146TIP3    H212384   7.563   4.088   2.299
 4147TIP3   OH212385   7.876   4.094   2.160
 4147TIP3    H112386   7.790   4.091   2.202
 4147TIP3    H212387   7.929   4.031   2.210
 4148TIP3   OH212388   7.993   3.961   2.361
 4148TIP3    H112389   8.056   3.894   2.388
 4148TIP3    H212390   7.982   4.016   2.439
 4149TIP3   OH212391   7.120   3.933   2.527
 4149TIP3    H112392   7.127   3.845   2.491
 4149TIP3    H212393   7.157   3.926   2.615
 4150TIP3   OH212394   7.608   3.602   2.387
 4150TIP3    H112395   7.677   3.538   2.374
 4150TIP3    H212396   7.565   3.608   2.302
 4151TIP3   OH212397   7.678   3.821   2.536
 4151TIP3    H112398   7.657   3.749   2.476
 4151TIP3    H212399   7.603   3.879   2.531
 4152TIP3   OH212400   6.899   5.096   0.507
 4152TIP3    H112401   6.976   5.050   0.471
 4152TIP3    H212402   6.933   5.144   0.582
 4153TIP3   OH212403   6.378   4.386   0.910
 4153TIP3    H112404   6.430   4.449   0.861
 4153TIP3    H212405   6.382   4.306   0.859
 4154TIP3   OH212406   6.322   5.041   1.302
 4154TIP3    H112407   6.255   4.990   1.256
 4154TIP3    H212408   6.367   4.977   1.358
 4155TIP3   OH212409   6.463   4.871   1.464
 4155TIP3    H112410   6.455   4.807   1.535
 4155TIP3    H212411   6.513   4.943   1.503
 4156TIP3   OH212412   8.236   5.305   1.539
 4156TIP3    H112413   8.203   5.218   1.518
 4156TIP3    H212414   8.220   5.314   1.633
 4157TIP3   OH212415   8.179   5.116   2.066
 4157TIP3    H112416   8.114   5.051   2.093
 4157TIP3    H212417   8.263   5.078   2.092
 4158TIP3   OH212418   8.098   5.061   1.564
 4158TIP3    H112419   8.031   5.113   1.608
 4158TIP3    H212420   8.053   5.023   1.489
 4159TIP3   OH212421   7.997   4.185   1.094
 4159TIP3    H112422   8.089   4.207   1.079
 4159TIP3    H212423   7.978   4.218   1.181
 4160TIP3   OH212424   6.639   4.315   1.824
 4160TIP3    H112425   6.629   4.282   1.735
 4160TIP3    H212426   6.733   4.313   1.841
 4161TIP3   OH212427   6.857   3.993   2.466
 4161TIP3    H112428   6.951   3.990   2.485
 4161TIP3    H212429   6.823   3.913   2.506
 4162TIP3   OH212430   6.826   3.706   1.821
 4162TIP3    H112431   6.880   3.627   1.825
 4162TIP3    H212432   6.888   3.777   1.805
 4163TIP3   OH212433   6.613   3.968   1.879
 4163TIP3    H112434   6.664   3.962   1.798
 4163TIP3    H212435   6.643   4.049   1.920
 4164TIP3   OH212436   6.601   3.468   1.383
 4164TIP3    H112437   6.515   3.462   1.424
 4164TIP3    H212438   6.587   3.526   1.307
 4165TIP3   OH212439   7.672   5.223   0.950
 4165TIP3    H112440   7.678   5.154   0.884
 4165TIP3    H212441   7.753   5.273   0.940
 4166TIP3   OH212442   6.821   3.534   2.202
 4166TIP3    H112443   6.773   3.533   2.285
 4166TIP3    H212444   6.765   3.584   2.143
 4167TIP3   OH212445   6.852   4.993   2.276
 4167TIP3    H112446   6.759   4.971   2.267
 4167TIP3    H212447   6.872   4.977   2.368
 4168TIP3   OH212448   7.064   5.033   1.830
 4168TIP3    H112449   7.013   5.108   1.800
 4168TIP3    H212450   7.147   5.040   1.783
 4169TIP3   OH212451   7.467   5.269   1.963
 4169TIP3    H112452   7.500   5.262   2.052
 4169TIP3    H212453   7.536   5.316   1.915
 4170TIP3   OH212454   7.669   5.412   1.841
 4170TIP3    H112455   7.737   5.356   1.805
 4170TIP3    H212456   7.716   5.477   1.893
 4171TIP3   OH212457   6.721   5.277   1.879
 4171TIP3    H112458   6.631   5.297   1.854
 4171TIP3    H212459   6.744   5.345   1.943
 4172TIP3   OH212460   6.955   5.265   1.737
 4172TIP3    H112461   6.872   5.271   1.783
 4172TIP3    H212462   6.933   5.284   1.646
 4173TIP3   OH212463   7.376   5.292   1.538
 4173TIP3    H112464   7.296   5.309   1.489
 4173TIP3    H212465   7.393   5.372   1.587
 4174TIP3   OH212466   7.635   5.210   1.568
 4174TIP3    H112467   7.543   5.237   1.559
 4174TIP3    H212468   7.685   5.286   1.539
 4175TIP3   OH212469   7.825   5.397   1.491
 4175TIP3    H112470   7.857   5.487   1.484
 4175TIP3    H212471   7.891   5.346   1.445
 4176TIP3   OH212472   6.633   5.062   1.596
 4176TIP3    H112473   6.658   5.038   1.686
 4176TIP3    H212474   6.705   5.030   1.542
 4177TIP3   OH212475   6.831   4.943   1.457
 4177TIP3    H112476   6.842   4.857   1.499
 4177TIP3    H212477   6.918   4.982   1.460
 4178TIP3   OH212478   7.093   5.009   1.491
 4178TIP3    H112479   7.121   4.918   1.477
 4178TIP3    H212480   7.156   5.044   1.555
 4179TIP3   OH212481   7.594   3.641   1.512
 4179TIP3    H112482   7.573   3.592   1.591
 4179TIP3    H212483   7.688   3.625   1.498
 4180TIP3   OH212484   6.906   3.380   1.556
 4180TIP3    H112485   6.817   3.346   1.565
 4180TIP3    H212486   6.961   3.302   1.550
 4181TIP3   OH212487   6.717   3.276   1.210
 4181TIP3    H112488   6.748   3.327   1.136
 4181TIP3    H212489   6.683   3.340   1.272
 4182TIP3   OH212490   7.369   3.422   1.449
 4182TIP3    H112491   7.411   3.473   1.380
 4182TIP3    H212492   7.407   3.455   1.530
 4183TIP3   OH212493   7.848   3.568   1.429
 4183TIP3    H112494   7.867   3.550   1.337
 4183TIP3    H212495   7.869   3.486   1.474
 4184TIP3   OH212496   6.390   4.811   1.032
 4184TIP3    H112497   6.299   4.796   1.007
 4184TIP3    H212498   6.407   4.902   1.008
 4185TIP3   OH212499   6.836   3.418   0.986
 4185TIP3    H112500   6.881   3.355   0.928
 4185TIP3    H212501   6.906   3.474   1.019
 4186TIP3   OH212502   7.326   3.615   1.075
 4186TIP3    H112503   7.387   3.568   1.132
 4186TIP3    H212504   7.338   3.707   1.099
 4187TIP3   OH212505   7.134   3.662   2.441
 4187TIP3    H112506   7.099   3.596   2.501
 4187TIP3    H212507   7.227   3.669   2.465
 4188TIP3   OH212508   7.383   3.663   2.564
 4188TIP3    H112509   7.462   3.637   2.516
 4188TIP3    H212510   7.374   3.596   2.632
 4189TIP3   OH212511   6.455   4.789   0.541
 4189TIP3    H112512   6.447   4.875   0.583
 4189TIP3    H212513   6.532   4.749   0.582
 4190TIP3   OH212514   8.144   5.308   1.795
 4190TIP3    H112515   8.057   5.271   1.777
 4190TIP3    H212516   8.126   5.391   1.839
 4191TIP3   OH212517   0.088   5.219   2.848
 4191TIP3    H112518   0.052   5.307   2.834
 4191TIP3    H212519   0.024   5.160   2.808
 4192TIP3   OH212520   0.096   5.239   3.128
 4192TIP3    H112521   0.077   5.166   3.186
 4192TIP3    H212522   0.079   5.205   3.040
 4193TIP3   OH212523   0.325   5.519   2.870
 4193TIP3    H112524   0.331   5.448   2.934
 4193TIP3    H212525   0.356   5.597   2.916
 4194TIP3   OH212526   8.499   5.999   2.881
 4194TIP3    H112527   8.538   5.918   2.848
 4194TIP3    H212528   8.422   5.971   2.930
 4195TIP3   OH212529   8.369   5.344   3.243
 4195TIP3    H112530   8.444   5.310   3.195
 4195TIP3    H212531   8.403   5.419   3.292
 4196TIP3   OH212532   0.874   4.732   3.251
 4196TIP3    H112533   0.904   4.818   3.281
 4196TIP3    H212534   0.900   4.727   3.160
 4197TIP3   OH212535   0.306   4.893   3.267
 4197TIP3    H112536   0.352   4.811   3.286
 4197TIP3    H212537   0.292   4.891   3.172
 4198TIP3   OH212538   0.323   4.646   2.852
 4198TIP3    H112539   0.389   4.629   2.919
 4198TIP3    H212540   0.373   4.675   2.776
 4199TIP3   OH212541   0.959   4.955   3.417
 4199TIP3    H112542   0.878   5.003   3.401
 4199TIP3    H212543   0.999   4.999   3.492
 4200TIP3   OH212544   8.436   5.418   2.720
 4200TIP3    H112545   8.373   5.416   2.648
 4200TIP3    H212546   8.510   5.469   2.686
 4201TIP3   OH212547   0.519   4.659   3.040
 4201TIP3    H112548   0.547   4.727   3.102
 4201TIP3    H212549   0.598   4.637   2.992
 4202TIP3   OH212550   0.394   5.744   3.026
 4202TIP3    H112551   0.348   5.724   3.107
 4202TIP3    H212552   0.367   5.834   3.004
 4203TIP3   OH212553   0.677   4.613   3.412
 4203TIP3    H112554   0.590   4.635   3.379
 4203TIP3    H212555   0.738   4.652   3.348
 4204TIP3   OH212556   8.488   4.286   3.370
 4204TIP3    H112557   8.511   4.195   3.386
 4204TIP3    H212558   8.502   4.330   3.454
 4205TIP3   OH212559   0.059   5.778   2.710
 4205TIP3    H112560   0.088   5.687   2.699
 4205TIP3    H212561   0.130   5.830   2.673
 4206TIP3   OH212562   0.173   5.534   2.643
 4206TIP3    H112563   0.213   5.476   2.578
 4206TIP3    H212564   0.230   5.527   2.720
 4207TIP3   OH212565   0.630   5.650   3.425
 4207TIP3    H112566   0.549   5.603   3.448
 4207TIP3    H212567   0.605   5.707   3.352
 4208TIP3   OH212568   8.432   5.071   2.684
 4208TIP3    H112569   8.344   5.104   2.701
 4208TIP3    H212570   8.436   5.061   2.589
 4209TIP3   OH212571   8.407   4.792   2.367
 4209TIP3    H112572   8.454   4.855   2.420
 4209TIP3    H212573   8.476   4.743   2.322
 4210TIP3   OH212574   0.808   5.294   3.231
 4210TIP3    H112575   0.721   5.332   3.240
 4210TIP3    H212576   0.835   5.316   3.142
 4211TIP3   OH212577   0.240   5.137   2.626
 4211TIP3    H112578   0.195   5.168   2.704
 4211TIP3    H212579   0.324   5.105   2.658
 4212TIP3   OH212580   0.507   5.203   3.518
 4212TIP3    H112581   0.497   5.298   3.514
 4212TIP3    H212582   0.422   5.169   3.492
 4213TIP3   OH212583   0.085   5.772   3.129
 4213TIP3    H112584   0.091   5.867   3.143
 4213TIP3    H212585   0.158   5.736   3.178
 4214TIP3   OH212586   0.077   4.998   2.451
 4214TIP3    H112587   0.130   5.055   2.507
 4214TIP3    H212588   0.114   5.009   2.363
 4215TIP3   OH212589   0.595   4.215   2.482
 4215TIP3    H112590   0.521   4.231   2.540
 4215TIP3    H212591   0.606   4.297   2.433
 4216TIP3   OH212592   0.395   5.594   2.046
 4216TIP3    H112593   0.391   5.690   2.043
 4216TIP3    H212594   0.478   5.572   2.004
 4217TIP3   OH212595   0.843   6.032   3.443
 4217TIP3    H112596   0.853   5.936   3.446
 4217TIP3    H212597   0.763   6.049   3.491
 4218TIP3   OH212598   8.417   5.842   2.141
 4218TIP3    H112599   8.474   5.780   2.095
 4218TIP3    H212600   8.458   5.851   2.227
 4219TIP3   OH212601   0.024   5.845   2.396
 4219TIP3    H112602  -0.026   5.769   2.426
 4219TIP3    H212603   0.092   5.857   2.463
 4220TIP3   OH212604   0.714   5.140   3.719
 4220TIP3    H112605   0.641   5.162   3.661
 4220TIP3    H212606   0.731   5.048   3.702
 4221TIP3   OH212607   0.328   4.481   3.696
 4221TIP3    H112608   0.397   4.455   3.757
 4221TIP3    H212609   0.252   4.497   3.751
 4222TIP3   OH212610   0.489   4.911   3.602
 4222TIP3    H112611   0.464   4.903   3.694
 4222TIP3    H212612   0.450   4.994   3.574
 4223TIP3   OH212613   0.189   5.011   2.207
 4223TIP3    H112614   0.138   5.006   2.126
 4223TIP3    H212615   0.272   5.050   2.180
 4224TIP3   OH212616   8.372   4.416   2.443
 4224TIP3    H112617   8.373   4.427   2.538
 4224TIP3    H212618   8.355   4.323   2.430
 4225TIP3   OH212619   0.073   4.869   2.787
 4225TIP3    H112620   0.018   4.942   2.760
 4225TIP3    H212621   0.112   4.837   2.705
 4226TIP3   OH212622   0.279   5.095   3.815
 4226TIP3    H112623   0.335   5.023   3.846
 4226TIP3    H212624   0.332   5.173   3.825
 4227TIP3   OH212625   0.242   4.867   3.001
 4227TIP3    H112626   0.177   4.891   2.934
 4227TIP3    H212627   0.284   4.788   2.966
 4228TIP3   OH212628   0.269   5.082   3.457
 4228TIP3    H112629   0.289   5.018   3.389
 4228TIP3    H212630   0.178   5.107   3.439
 4229TIP3   OH212631   8.414   4.493   3.123
 4229TIP3    H112632   8.346   4.555   3.147
 4229TIP3    H212633   8.493   4.526   3.165
 4230TIP3   OH212634   0.390   4.635   3.330
 4230TIP3    H112635   0.348   4.658   3.413
 4230TIP3    H212636   0.326   4.581   3.285
 4231TIP3   OH212637   0.557   6.350   3.548
 4231TIP3    H112638   0.551   6.360   3.453
 4231TIP3    H212639   0.635   6.400   3.573
 4232TIP3   OH212640   0.015   4.810   3.155
 4232TIP3    H112641   0.102   4.828   3.117
 4232TIP3    H212642   0.033   4.785   3.245
 4233TIP3   OH212643   8.492   4.779   3.423
 4233TIP3    H112644   8.415   4.811   3.469
 4233TIP3    H212645   8.566   4.810   3.475
 4234TIP3   OH212646   0.570   5.413   3.208
 4234TIP3    H112647   0.597   5.489   3.157
 4234TIP3    H212648   0.484   5.389   3.173
 4235TIP3   OH212649   0.129   4.509   2.488
 4235TIP3    H112650   0.035   4.502   2.467
 4235TIP3    H212651   0.143   4.602   2.504
 4236TIP3   OH212652   0.054   5.491   3.707
 4236TIP3    H112653   0.083   5.436   3.634
 4236TIP3    H212654   0.045   5.579   3.668
 4237TIP3   OH212655   0.190   4.768   2.557
 4237TIP3    H112656   0.284   4.772   2.570
 4237TIP3    H212657   0.170   4.846   2.505
 4238TIP3   OH212658   8.231   5.348   2.532
 4238TIP3    H112659   8.154   5.388   2.489
 4238TIP3    H212660   8.197   5.313   2.614
 4239TIP3   OH212661   8.487   5.292   3.921
 4239TIP3    H112662   8.392   5.303   3.926
 4239TIP3    H212663   8.499   5.212   3.869
 4240TIP3   OH212664   0.223   5.871   3.487
 4240TIP3    H112665   0.146   5.820   3.511
 4240TIP3    H212666   0.271   5.884   3.569
 4241TIP3   OH212667   0.600   4.856   2.386
 4241TIP3    H112668   0.544   4.810   2.324
 4241TIP3    H212669   0.604   4.946   2.353
 4242TIP3   OH212670   0.875   5.759   3.462
 4242TIP3    H112671   0.785   5.729   3.479
 4242TIP3    H212672   0.900   5.715   3.381
 4243TIP3   OH212673   0.341   5.654   2.316
 4243TIP3    H112674   0.273   5.600   2.356
 4243TIP3    H212675   0.352   5.618   2.228
 4244TIP3   OH212676   0.348   5.326   3.068
 4244TIP3    H112677   0.258   5.310   3.099
 4244TIP3    H212678   0.381   5.240   3.044
 4245TIP3   OH212679   0.123   5.443   2.242
 4245TIP3    H112680   0.168   5.408   2.318
 4245TIP3    H212681   0.057   5.377   2.220
 4246TIP3   OH212682   0.389   6.041   3.355
 4246TIP3    H112683   0.318   5.986   3.389
 4246TIP3    H212684   0.346   6.099   3.292
 4247TIP3   OH212685   0.427   5.860   2.042
 4247TIP3    H112686   0.470   5.907   1.970
 4247TIP3    H212687   0.361   5.922   2.074
 4248TIP3   OH212688   0.270   5.351   2.455
 4248TIP3    H112689   0.248   5.275   2.509
 4248TIP3    H212690   0.362   5.338   2.432
 4249TIP3   OH212691   0.293   4.721   3.570
 4249TIP3    H112692   0.375   4.769   3.582
 4249TIP3    H212693   0.305   4.639   3.618
 4250TIP3   OH212694   0.207   4.421   2.736
 4250TIP3    H112695   0.179   4.444   2.647
 4250TIP3    H212696   0.260   4.496   2.764
 4251TIP3   OH212697   8.265   4.655   2.905
 4251TIP3    H112698   8.248   4.748   2.894
 4251TIP3    H212699   8.361   4.648   2.905
 4252TIP3   OH212700   0.126   4.917   3.654
 4252TIP3    H112701   0.181   4.995   3.653
 4252TIP3    H212702   0.185   4.846   3.630
 4253TIP3   OH212703   0.049   4.319   2.936
 4253TIP3    H112704   0.022   4.398   2.984
 4253TIP3    H212705   0.113   4.351   2.872
 4254TIP3   OH212706   0.757   4.878   3.627
 4254TIP3    H112707   0.662   4.872   3.614
 4254TIP3    H212708   0.793   4.863   3.540
 4255TIP3   OH212709   0.434   5.065   3.009
 4255TIP3    H112710   0.359   5.006   3.015
 4255TIP3    H212711   0.500   5.027   3.066
 4256TIP3   OH212712   0.387   6.026   2.970
 4256TIP3    H112713   0.349   6.060   2.889
 4256TIP3    H212714   0.482   6.031   2.956
 4257TIP3   OH212715   0.321   5.921   3.737
 4257TIP3    H112716   0.253   5.888   3.796
 4257TIP3    H212717   0.347   6.005   3.775
 4258TIP3   OH212718   0.072   5.631   2.048
 4258TIP3    H112719   0.095   5.573   2.120
 4258TIP3    H212720   0.143   5.620   1.985
 4259TIP3   OH212721   8.246   5.354   2.193
 4259TIP3    H112722   8.317   5.326   2.251
 4259TIP3    H212723   8.218   5.274   2.149
 4260TIP3   OH212724   8.023   4.874   2.411
 4260TIP3    H112725   8.008   4.891   2.318
 4260TIP3    H212726   8.092   4.935   2.436
 4261TIP3   OH212727   0.254   5.458   3.926
 4261TIP3    H112728   0.329   5.498   3.881
 4261TIP3    H212729   0.293   5.395   3.986
 4262TIP3   OH212730   0.399   5.123   2.071
 4262TIP3    H112731   0.382   5.072   1.992
 4262TIP3    H212732   0.362   5.210   2.051
 4263TIP3   OH212733   8.339   4.565   3.620
 4263TIP3    H112734   8.321   4.574   3.526
 4263TIP3    H212735   8.364   4.653   3.648
 4264TIP3   OH212736   8.353   5.234   3.518
 4264TIP3    H112737   8.442   5.256   3.492
 4264TIP3    H212738   8.305   5.317   3.515
 4265TIP3   OH212739   0.538   5.141   3.958
 4265TIP3    H112740   0.594   5.063   3.958
 4265TIP3    H212741   0.574   5.196   3.888
 4266TIP3   OH212742   0.526   5.374   3.768
 4266TIP3    H112743   0.456   5.402   3.708
 4266TIP3    H212744   0.607   5.393   3.721
 4267TIP3   OH212745   0.057   4.378   3.742
 4267TIP3    H112746   0.022   4.467   3.735
 4267TIP3    H212747  -0.019   4.323   3.761
 4268TIP3   OH212748   0.189   4.834   3.996
 4268TIP3    H112749   0.228   4.873   4.074
 4268TIP3    H212750   0.136   4.904   3.958
 4269TIP3   OH212751   0.420   4.854   3.855
 4269TIP3    H112752   0.342   4.819   3.897
 4269TIP3    H212753   0.492   4.832   3.914
 4270TIP3   OH212754   0.622   4.806   4.034
 4270TIP3    H112755   0.629   4.712   4.046
 4270TIP3    H212756   0.612   4.842   4.123
 4271TIP3   OH212757   0.213   4.447   3.965
 4271TIP3    H112758   0.253   4.360   3.969
 4271TIP3    H212759   0.142   4.439   3.901
 4272TIP3   OH212760   0.221   4.608   4.186
 4272TIP3    H112761   0.227   4.559   4.104
 4272TIP3    H212762   0.128   4.620   4.200
 4273TIP3   OH212763   0.658   6.074   2.947
 4273TIP3    H112764   0.678   6.095   3.038
 4273TIP3    H212765   0.706   6.140   2.897
 4274TIP3   OH212766   0.687   6.105   3.222
 4274TIP3    H112767   0.639   6.022   3.221
 4274TIP3    H212768   0.755   6.093   3.288
 4275TIP3   OH212769   0.734   5.809   3.797
 4275TIP3    H112770   0.662   5.814   3.860
 4275TIP3    H212771   0.776   5.895   3.800
 4276TIP3   OH212772   0.543   5.324   2.418
 4276TIP3    H112773   0.567   5.415   2.435
 4276TIP3    H212774   0.587   5.275   2.487
 4277TIP3   OH212775   0.672   5.180   2.610
 4277TIP3    H112776   0.607   5.137   2.665
 4277TIP3    H212777   0.740   5.208   2.670
 4278TIP3   OH212778   0.723   5.588   3.049
 4278TIP3    H112779   0.771   5.517   3.007
 4278TIP3    H212780   0.714   5.655   2.980
 4279TIP3   OH212781   0.563   5.858   3.228
 4279TIP3    H112782   0.487   5.897   3.271
 4279TIP3    H212783   0.526   5.806   3.157
 4280TIP3   OH212784   0.592   5.103   2.259
 4280TIP3    H112785   0.523   5.102   2.193
 4280TIP3    H212786   0.572   5.179   2.314
 4281TIP3   OH212787   0.443   4.750   2.189
 4281TIP3    H112788   0.399   4.775   2.108
 4281TIP3    H212789   0.441   4.654   2.189
 4282TIP3   OH212790   0.473   5.036   2.737
 4282TIP3    H112791   0.477   4.942   2.725
 4282TIP3    H212792   0.467   5.048   2.832
 4283TIP3   OH212793   0.740   5.454   3.606
 4283TIP3    H112794   0.805   5.399   3.563
 4283TIP3    H212795   0.705   5.509   3.536
 4284TIP3   OH212796   0.934   5.248   3.590
 4284TIP3    H112797   0.858   5.217   3.640
 4284TIP3    H212798   1.005   5.190   3.618
 4285TIP3   OH212799   0.409   4.480   2.163
 4285TIP3    H112800   0.481   4.452   2.220
 4285TIP3    H212801   0.334   4.429   2.194
 4286TIP3   OH212802   0.461   4.773   2.616
 4286TIP3    H112803   0.495   4.685   2.630
 4286TIP3    H212804   0.512   4.808   2.543
 4287TIP3   OH212805   0.620   4.928   3.161
 4287TIP3    H112806   0.701   4.942   3.113
 4287TIP3    H212807   0.635   4.965   3.247
 4288TIP3   OH212808   0.716   5.082   3.380
 4288TIP3    H112809   0.642   5.119   3.429
 4288TIP3    H212810   0.749   5.154   3.328
 4289TIP3   OH212811   1.155   4.675   3.917
 4289TIP3    H112812   1.218   4.618   3.873
 4289TIP3    H212813   1.115   4.725   3.846
 4290TIP3   OH212814   0.527   4.520   2.678
 4290TIP3    H112815   0.604   4.527   2.736
 4290TIP3    H212816   0.509   4.426   2.675
 4291TIP3   OH212817   1.004   4.791   3.722
 4291TIP3    H112818   0.921   4.836   3.739
 4291TIP3    H212819   0.980   4.717   3.667
 4292TIP3   OH212820   0.635   4.433   2.314
 4292TIP3    H112821   0.683   4.366   2.264
 4292TIP3    H212822   0.701   4.498   2.337
 4293TIP3   OH212823   0.224   5.946   2.579
 4293TIP3    H112824   0.288   5.944   2.509
 4293TIP3    H212825   0.255   6.015   2.638
 4294TIP3   OH212826   0.123   6.208   3.543
 4294TIP3    H112827   0.168   6.139   3.496
 4294TIP3    H212828   0.193   6.261   3.582
 4295TIP3   OH212829   0.909   4.554   3.606
 4295TIP3    H112830   0.826   4.557   3.559
 4295TIP3    H212831   0.938   4.463   3.598
 4296TIP3   OH212832   0.093   6.045   3.191
 4296TIP3    H112833   0.014   6.072   3.144
 4296TIP3    H212834   0.156   6.115   3.174
 4297TIP3   OH212835   0.314   6.224   3.149
 4297TIP3    H112836   0.299   6.305   3.101
 4297TIP3    H212837   0.340   6.161   3.082
 4298TIP3   OH212838   0.169   4.474   3.242
 4298TIP3    H112839   0.110   4.408   3.277
 4298TIP3    H212840   0.227   4.426   3.183
 4299TIP3   OH212841   0.651   4.387   3.114
 4299TIP3    H112842   0.704   4.432   3.049
 4299TIP3    H212843   0.576   4.445   3.127
 4300TIP3   OH212844   8.387   4.200   3.118
 4300TIP3    H112845   8.456   4.226   3.057
 4300TIP3    H212846   8.412   4.241   3.201
 4301TIP3   OH212847   0.342   4.319   3.101
 4301TIP3    H112848   0.404   4.292   3.033
 4301TIP3    H212849   0.350   4.252   3.169
 4302TIP3   OH212850   0.417   4.262   2.677
 4302TIP3    H112851   0.337   4.311   2.697
 4302TIP3    H212852   0.407   4.180   2.725
 4303TIP3   OH212853   8.391   4.440   2.713
 4303TIP3    H112854   8.384   4.370   2.778
 4303TIP3    H212855   8.450   4.504   2.752
 4304TIP3   OH212856   0.382   5.926   2.356
 4304TIP3    H112857   0.374   5.831   2.343
 4304TIP3    H212858   0.338   5.964   2.280
 4305TIP3   OH212859   0.677   4.539   4.052
 4305TIP3    H112860   0.698   4.511   4.140
 4305TIP3    H212861   0.761   4.536   4.005
 4306TIP3   OH212862   0.594   6.078   3.545
 4306TIP3    H112863   0.524   6.050   3.485
 4306TIP3    H212864   0.576   6.170   3.561
 4307TIP3   OH212865   1.856   5.466   2.283
 4307TIP3    H112866   1.823   5.553   2.258
 4307TIP3    H212867   1.784   5.407   2.262
 4308TIP3   OH212868   1.849   5.455   2.710
 4308TIP3    H112869   1.903   5.438   2.787
 4308TIP3    H212870   1.807   5.372   2.691
 4309TIP3   OH212871   1.147   5.329   3.057
 4309TIP3    H112872   1.177   5.267   3.124
 4309TIP3    H212873   1.228   5.369   3.024
 4310TIP3   OH212874   2.116   5.768   2.381
 4310TIP3    H112875   2.105   5.700   2.447
 4310TIP3    H212876   2.140   5.846   2.431
 4311TIP3   OH212877   1.149   5.748   2.740
 4311TIP3    H112878   1.128   5.656   2.754
 4311TIP3    H212879   1.245   5.751   2.742
 4312TIP3   OH212880   0.832   4.964   2.521
 4312TIP3    H112881   0.786   5.043   2.551
 4312TIP3    H212882   0.762   4.906   2.489
 4313TIP3   OH212883   0.908   5.247   2.742
 4313TIP3    H112884   0.953   5.169   2.775
 4313TIP3    H212885   0.979   5.307   2.718
 4314TIP3   OH212886   1.774   6.195   2.396
 4314TIP3    H112887   1.798   6.126   2.335
 4314TIP3    H212888   1.775   6.152   2.482
 4315TIP3   OH212889   1.664   5.680   2.718
 4315TIP3    H112890   1.706   5.599   2.691
 4315TIP3    H212891   1.737   5.736   2.747
 4316TIP3   OH212892   2.687   5.000   2.730
 4316TIP3    H112893   2.707   5.084   2.773
 4316TIP3    H212894   2.710   5.015   2.638
 4317TIP3   OH212895   2.069   5.169   2.749
 4317TIP3    H112896   2.102   5.084   2.778
 4317TIP3    H212897   2.031   5.153   2.663
 4318TIP3   OH212898   1.430   4.829   2.708
 4318TIP3    H112899   1.404   4.901   2.651
 4318TIP3    H212900   1.375   4.755   2.680
 4319TIP3   OH212901   2.117   4.927   2.343
 4319TIP3    H112902   2.180   4.919   2.415
 4319TIP3    H212903   2.169   4.960   2.269
 4320TIP3   OH212904   1.045   5.028   2.842
 4320TIP3    H112905   1.129   5.010   2.885
 4320TIP3    H212906   1.047   4.977   2.762
 4321TIP3   OH212907   1.471   5.240   2.647
 4321TIP3    H112908   1.564   5.222   2.656
 4321TIP3    H212909   1.433   5.158   2.615
 4322TIP3   OH212910   2.749   5.219   2.895
 4322TIP3    H112911   2.660   5.253   2.892
 4322TIP3    H212912   2.785   5.252   2.978
 4323TIP3   OH212913   1.403   4.828   3.162
 4323TIP3    H112914   1.347   4.854   3.089
 4323TIP3    H212915   1.348   4.841   3.240
 4324TIP3   OH212916   1.743   5.681   2.149
 4324TIP3    H112917   1.704   5.655   2.066
 4324TIP3    H212918   1.691   5.757   2.177
 4325TIP3   OH212919   1.503   5.606   2.930
 4325TIP3    H112920   1.447   5.676   2.964
 4325TIP3    H212921   1.552   5.646   2.859
 4326TIP3   OH212922   2.277   4.950   2.563
 4326TIP3    H112923   2.237   4.927   2.646
 4326TIP3    H212924   2.334   5.024   2.583
 4327TIP3   OH212925   1.294   4.935   2.929
 4327TIP3    H112926   1.351   5.008   2.955
 4327TIP3    H212927   1.342   4.891   2.858
 4328TIP3   OH212928   1.341   5.806   3.030
 4328TIP3    H112929   1.325   5.896   3.002
 4328TIP3    H212930   1.265   5.785   3.084
 4329TIP3   OH212931   2.155   6.016   2.521
 4329TIP3    H112932   2.067   6.008   2.559
 4329TIP3    H212933   2.154   6.101   2.477
 4330TIP3   OH212934   2.485   4.895   2.898
 4330TIP3    H112935   2.400   4.917   2.861
 4330TIP3    H212936   2.548   4.921   2.831
 4331TIP3   OH212937   1.743   4.522   2.890
 4331TIP3    H112938   1.735   4.430   2.915
 4331TIP3    H212939   1.666   4.564   2.929
 4332TIP3   OH212940   1.857   6.034   2.183
 4332TIP3    H112941   1.912   5.957   2.172
 4332TIP3    H212942   1.912   6.107   2.156
 4333TIP3   OH212943   2.019   5.822   2.127
 4333TIP3    H112944   1.967   5.745   2.105
 4333TIP3    H212945   2.061   5.800   2.210
 4334TIP3   OH212946   2.388   5.905   2.865
 4334TIP3    H112947   2.373   5.829   2.809
 4334TIP3    H212948   2.375   5.980   2.808
 4335TIP3   OH212949   1.677   5.305   2.137
 4335TIP3    H112950   1.596   5.352   2.118
 4335TIP3    H212951   1.725   5.304   2.054
 4336TIP3   OH212952   1.650   5.109   1.829
 4336TIP3    H112953   1.715   5.156   1.880
 4336TIP3    H212954   1.700   5.040   1.784
 4337TIP3   OH212955   2.576   5.560   2.734
 4337TIP3    H112956   2.491   5.605   2.733
 4337TIP3    H212957   2.611   5.574   2.646
 4338TIP3   OH212958   2.041   5.392   2.097
 4338TIP3    H112959   1.986   5.420   2.171
 4338TIP3    H212960   2.123   5.365   2.138
 4339TIP3   OH212961   2.269   5.422   3.042
 4339TIP3    H112962   2.267   5.506   3.089
 4339TIP3    H212963   2.186   5.420   2.993
 4340TIP3   OH212964   1.271   5.379   2.513
 4340TIP3    H112965   1.232   5.315   2.454
 4340TIP3    H212966   1.346   5.334   2.553
 4341TIP3   OH212967   1.417   5.800   2.644
 4341TIP3    H112968   1.396   5.776   2.553
 4341TIP3    H212969   1.502   5.760   2.660
 4342TIP3   OH212970   1.376   5.368   2.878
 4342TIP3    H112971   1.414   5.331   2.798
 4342TIP3    H212972   1.426   5.448   2.893
 4343TIP3   OH212973   1.916   6.007   2.653
 4343TIP3    H112974   1.907   6.085   2.706
 4343TIP3    H212975   1.906   5.934   2.714
 4344TIP3   OH212976   1.540   5.905   3.198
 4344TIP3    H112977   1.480   5.963   3.246
 4344TIP3    H212978   1.483   5.853   3.142
 4345TIP3   OH212979   1.868   5.255   1.932
 4345TIP3    H112980   1.929   5.311   1.981
 4345TIP3    H212981   1.897   5.262   1.841
 4346TIP3   OH212982   1.296   5.458   3.331
 4346TIP3    H112983   1.299   5.550   3.355
 4346TIP3    H212984   1.203   5.435   3.332
 4347TIP3   OH212985   1.606   5.923   2.188
 4347TIP3    H112986   1.691   5.966   2.196
 4347TIP3    H212987   1.551   5.986   2.141
 4348TIP3   OH212988   1.333   6.065   3.285
 4348TIP3    H112989   1.302   6.072   3.194
 4348TIP3    H212990   1.254   6.046   3.335
 4349TIP3   OH212991   2.380   4.480   1.986
 4349TIP3    H112992   2.304   4.499   2.040
 4349TIP3    H212993   2.391   4.557   1.931
 4350TIP3   OH212994   1.147   5.203   2.332
 4350TIP3    H112995   1.072   5.232   2.280
 4350TIP3    H212996   1.119   5.119   2.369
 4351TIP3   OH212997   2.204   5.857   1.550
 4351TIP3    H112998   2.200   5.949   1.526
 4351TIP3    H212999   2.293   5.830   1.526
 4352TIP3   OH213000   0.931   5.618   3.235
 4352TIP3    H113001   0.854   5.603   3.180
 4352TIP3    H213002   0.958   5.531   3.263
 4353TIP3   OH213003   0.761   5.820   2.875
 4353TIP3    H113004   0.850   5.836   2.906
 4353TIP3    H213005   0.711   5.895   2.907
 4354TIP3   OH213006   2.618   6.251   2.932
 4354TIP3    H113007   2.624   6.157   2.950
 4354TIP3    H213008   2.539   6.279   2.979
 4355TIP3   OH213009   1.727   6.049   3.059
 4355TIP3    H113010   1.720   6.139   3.090
 4355TIP3    H213011   1.660   6.002   3.109
 4356TIP3   OH213012   1.506   6.150   2.017
 4356TIP3    H113013   1.455   6.132   1.937
 4356TIP3    H213014   1.470   6.233   2.049
 4357TIP3   OH213015   0.926   6.010   2.414
 4357TIP3    H113016   0.990   6.004   2.485
 4357TIP3    H213017   0.847   5.970   2.450
 4358TIP3   OH213018   1.712   6.077   1.642
 4358TIP3    H113019   1.761   6.003   1.608
 4358TIP3    H213020   1.743   6.088   1.732
 4359TIP3   OH213021   1.758   6.116   1.914
 4359TIP3    H113022   1.671   6.121   1.954
 4359TIP3    H213023   1.814   6.078   1.981
 4360TIP3   OH213024   2.513   5.378   3.205
 4360TIP3    H113025   2.431   5.386   3.156
 4360TIP3    H213026   2.532   5.285   3.206
 4361TIP3   OH213027   1.125   5.807   3.202
 4361TIP3    H113028   1.174   5.797   3.283
 4361TIP3    H213029   1.055   5.742   3.207
 4362TIP3   OH213030   1.505   4.613   3.015
 4362TIP3    H113031   1.421   4.581   2.983
 4362TIP3    H213032   1.483   4.693   3.062
 4363TIP3   OH213033   2.049   4.733   3.215
 4363TIP3    H113034   2.119   4.708   3.276
 4363TIP3    H213035   1.968   4.716   3.263
 4364TIP3   OH213036   2.272   5.158   3.132
 4364TIP3    H113037   2.230   5.154   3.218
 4364TIP3    H213038   2.255   5.247   3.101
 4365TIP3   OH213039   1.949   5.251   1.672
 4365TIP3    H113040   1.905   5.245   1.587
 4365TIP3    H213041   2.032   5.296   1.653
 4366TIP3   OH213042   1.658   4.658   1.983
 4366TIP3    H113043   1.623   4.664   2.072
 4366TIP3    H213044   1.621   4.577   1.949
 4367TIP3   OH213045   1.446   5.146   3.029
 4367TIP3    H113046   1.395   5.150   3.110
 4367TIP3    H213047   1.422   5.226   2.981
 4368TIP3   OH213048   1.327   5.024   2.545
 4368TIP3    H113049   1.240   4.996   2.572
 4368TIP3    H213050   1.337   4.990   2.457
 4369TIP3   OH213051   1.808   5.103   2.273
 4369TIP3    H113052   1.759   5.174   2.232
 4369TIP3    H213053   1.865   5.070   2.204
 4370TIP3   OH213054   1.990   5.368   3.349
 4370TIP3    H113055   1.963   5.299   3.410
 4370TIP3    H213056   2.083   5.383   3.369
 4371TIP3   OH213057   1.976   5.115   2.497
 4371TIP3    H113058   1.907   5.136   2.434
 4371TIP3    H213059   2.022   5.041   2.458
 4372TIP3   OH213060   1.273   5.157   3.243
 4372TIP3    H113061   1.278   5.220   3.315
 4372TIP3    H213062   1.259   5.072   3.286
 4373TIP3   OH213063   1.325   4.640   1.959
 4373TIP3    H113064   1.315   4.638   2.054
 4373TIP3    H213065   1.245   4.683   1.927
 4374TIP3   OH213066   0.799   4.659   2.362
 4374TIP3    H113067   0.844   4.689   2.283
 4374TIP3    H213068   0.731   4.724   2.378
 4375TIP3   OH213069   2.014   5.369   2.923
 4375TIP3    H113070   2.040   5.303   2.860
 4375TIP3    H213071   1.972   5.320   2.994
 4376TIP3   OH213072   1.692   4.821   2.597
 4376TIP3    H113073   1.613   4.820   2.651
 4376TIP3    H213074   1.764   4.809   2.659
 4377TIP3   OH213075   1.089   4.900   2.601
 4377TIP3    H113076   1.000   4.904   2.568
 4377TIP3    H213077   1.113   4.808   2.594
 4378TIP3   OH213078   1.342   4.903   2.299
 4378TIP3    H113079   1.437   4.911   2.287
 4378TIP3    H213080   1.306   4.920   2.212
 4379TIP3   OH213081   2.139   4.905   2.804
 4379TIP3    H113082   2.120   4.922   2.897
 4379TIP3    H213083   2.072   4.843   2.776
 4380TIP3   OH213084   1.223   4.935   2.053
 4380TIP3    H113085   1.160   4.881   2.005
 4380TIP3    H213086   1.277   4.975   1.985
 4381TIP3   OH213087   2.337   6.607   3.029
 4381TIP3    H113088   2.337   6.620   2.934
 4381TIP3    H213089   2.417   6.650   3.059
 4382TIP3   OH213090   1.282   5.720   3.436
 4382TIP3    H113091   1.363   5.739   3.484
 4382TIP3    H213092   1.214   5.723   3.502
 4383TIP3   OH213093   1.740   5.185   2.705
 4383TIP3    H113094   1.805   5.131   2.659
 4383TIP3    H213095   1.736   5.147   2.792
 4384TIP3   OH213096   1.244   4.653   2.594
 4384TIP3    H113097   1.209   4.582   2.648
 4384TIP3    H213098   1.266   4.611   2.511
 4385TIP3   OH213099   1.712   5.093   2.969
 4385TIP3    H113100   1.624   5.122   2.995
 4385TIP3    H213101   1.771   5.144   3.024
 4386TIP3   OH213102   1.439   5.447   2.083
 4386TIP3    H113103   1.369   5.385   2.065
 4386TIP3    H213104   1.416   5.485   2.168
 4387TIP3   OH213105   2.338   5.697   2.689
 4387TIP3    H113106   2.374   5.746   2.615
 4387TIP3    H213107   2.259   5.656   2.655
 4388TIP3   OH213108   1.910   4.761   1.980
 4388TIP3    H113109   1.817   4.739   1.981
 4388TIP3    H213110   1.913   4.855   1.997
 4389TIP3   OH213111   1.855   5.782   3.095
 4389TIP3    H113112   1.902   5.767   3.178
 4389TIP3    H213113   1.811   5.866   3.107
 4390TIP3   OH213114   1.970   5.023   2.057
 4390TIP3    H113115   2.065   5.026   2.068
 4390TIP3    H213116   1.950   5.102   2.006
 4391TIP3   OH213117   1.140   5.459   2.744
 4391TIP3    H113118   1.181   5.443   2.659
 4391TIP3    H213119   1.202   5.424   2.808
 4392TIP3   OH213120   1.594   5.603   1.921
 4392TIP3    H113121   1.548   5.687   1.920
 4392TIP3    H213122   1.539   5.546   1.975
 4393TIP3   OH213123   1.030   5.383   3.366
 4393TIP3    H113124   1.023   5.357   3.458
 4393TIP3    H213125   0.960   5.336   3.322
 4394TIP3   OH213126   1.757   5.523   3.389
 4394TIP3    H113127   1.687   5.463   3.362
 4394TIP3    H213128   1.838   5.480   3.359
 4395TIP3   OH213129   1.998   6.069   2.980
 4395TIP3    H113130   1.904   6.052   2.987
 4395TIP3    H213131   2.022   6.104   3.065
 4396TIP3   OH213132   2.389   5.110   1.875
 4396TIP3    H113133   2.333   5.065   1.812
 4396TIP3    H213134   2.394   5.200   1.842
 4397TIP3   OH213135   2.635   5.970   2.961
 4397TIP3    H113136   2.540   5.959   2.951
 4397TIP3    H213137   2.671   5.945   2.876
 4398TIP3   OH213138   2.143   5.950   1.817
 4398TIP3    H113139   2.112   5.886   1.881
 4398TIP3    H213140   2.154   5.901   1.736
 4399TIP3   OH213141   2.106   5.563   2.585
 4399TIP3    H113142   2.017   5.541   2.610
 4399TIP3    H213143   2.142   5.482   2.550
 4400TIP3   OH213144   1.251   5.801   2.401
 4400TIP3    H113145   1.239   5.875   2.341
 4400TIP3    H213146   1.178   5.809   2.462
 4401TIP3   OH213147   0.811   5.066   2.101
 4401TIP3    H113148   0.849   5.154   2.103
 4401TIP3    H213149   0.737   5.070   2.161
 4402TIP3   OH213150   1.341   5.557   2.309
 4402TIP3    H113151   1.317   5.645   2.338
 4402TIP3    H213152   1.320   5.501   2.384
 4403TIP3   OH213153   1.543   6.124   2.855
 4403TIP3    H113154   1.581   6.196   2.805
 4403TIP3    H213155   1.615   6.089   2.907
 4404TIP3   OH213156   1.154   6.024   2.252
 4404TIP3    H113157   1.068   6.029   2.293
 4404TIP3    H213158   1.189   6.113   2.258
 4405TIP3   OH213159   1.902   5.783   2.823
 4405TIP3    H113160   1.887   5.780   2.918
 4405TIP3    H213161   1.977   5.727   2.808
 4406TIP3   OH213162   1.887   5.661   1.703
 4406TIP3    H113163   1.939   5.638   1.779
 4406TIP3    H213164   1.803   5.618   1.717
 4407TIP3   OH213165   2.149   6.283   2.871
 4407TIP3    H113166   2.081   6.217   2.887
 4407TIP3    H213167   2.115   6.335   2.799
 4408TIP3   OH213168   2.195   6.130   1.499
 4408TIP3    H113169   2.188   6.180   1.418
 4408TIP3    H213170   2.133   6.172   1.559
 4409TIP3   OH213171   1.235   4.906   3.372
 4409TIP3    H113172   1.139   4.906   3.369
 4409TIP3    H213173   1.256   4.850   3.446
 4410TIP3   OH213174   2.061   5.587   1.902
 4410TIP3    H113175   2.048   5.524   1.973
 4410TIP3    H213176   2.156   5.594   1.893
 4411TIP3   OH213177   0.974   5.992   3.018
 4411TIP3    H113178   1.026   5.928   3.066
 4411TIP3    H213179   0.978   6.071   3.072
 4412TIP3   OH213180   1.238   5.631   1.717
 4412TIP3    H113181   1.240   5.538   1.694
 4412TIP3    H213182   1.231   5.631   1.812
 4413TIP3   OH213183   1.210   5.650   1.993
 4413TIP3    H113184   1.281   5.619   2.049
 4413TIP3    H213185   1.213   5.745   2.001
 4414TIP3   OH213186   2.081   4.964   3.066
 4414TIP3    H113187   2.158   5.009   3.101
 4414TIP3    H213188   2.071   4.887   3.122
 4415TIP3   OH213189   1.969   4.710   2.251
 4415TIP3    H113190   1.949   4.729   2.159
 4415TIP3    H213191   2.012   4.789   2.283
 4416TIP3   OH213192   1.455   5.836   1.918
 4416TIP3    H113193   1.374   5.864   1.961
 4416TIP3    H213194   1.478   5.908   1.860
 4417TIP3   OH213195   1.623   4.910   2.343
 4417TIP3    H113196   1.685   4.978   2.319
 4417TIP3    H213197   1.644   4.890   2.434
 4418TIP3   OH213198   1.920   5.204   3.122
 4418TIP3    H113199   1.943   5.246   3.205
 4418TIP3    H213200   1.968   5.121   3.123
 4419TIP3   OH213201   1.785   4.609   2.433
 4419TIP3    H113202   1.763   4.687   2.485
 4419TIP3    H213203   1.853   4.639   2.373
 4420TIP3   OH213204   1.208   5.922   2.005
 4420TIP3    H113205   1.188   5.993   1.944
 4420TIP3    H213206   1.187   5.958   2.091
 4421TIP3   OH213207   1.299   4.628   2.236
 4421TIP3    H113208   1.285   4.717   2.270
 4421TIP3    H213209   1.393   4.614   2.243
 4422TIP3   OH213210   2.535   5.100   3.113
 4422TIP3    H113211   2.441   5.112   3.125
 4422TIP3    H213212   2.543   5.039   3.040
 4423TIP3   OH213213   2.199   5.306   2.498
 4423TIP3    H113214   2.122   5.250   2.510
 4423TIP3    H213215   2.267   5.266   2.553
 4424TIP3   OH213216   0.944   5.589   2.003
 4424TIP3    H113217   1.032   5.626   2.012
 4424TIP3    H213218   0.958   5.505   1.959
 4425TIP3   OH213219   0.850   4.789   2.122
 4425TIP3    H113220   0.851   4.885   2.117
 4425TIP3    H213221   0.784   4.763   2.057
 4426TIP3   OH213222   2.177   6.287   2.440
 4426TIP3    H113223   2.134   6.336   2.370
 4426TIP3    H213224   2.270   6.308   2.430
 4427TIP3   OH213225   1.242   4.532   2.975
 4427TIP3    H113226   1.207   4.504   2.890
 4427TIP3    H213227   1.228   4.456   3.032
 4428TIP3   OH213228   0.963   6.307   3.431
 4428TIP3    H113229   1.046   6.305   3.478
 4428TIP3    H213230   0.933   6.216   3.430
 4429TIP3   OH213231   1.434   6.234   3.477
 4429TIP3    H113232   1.524   6.206   3.489
 4429TIP3    H213233   1.400   6.179   3.406
 4430TIP3   OH213234   1.397   5.825   1.601
 4430TIP3    H113235   1.349   5.756   1.647
 4430TIP3    H213236   1.472   5.780   1.561
 4431TIP3   OH213237   2.056   6.169   3.228
 4431TIP3    H113238   2.065   6.098   3.292
 4431TIP3    H213239   2.131   6.226   3.245
 4432TIP3   OH213240   1.840   5.866   1.527
 4432TIP3    H113241   1.870   5.800   1.590
 4432TIP3    H213242   1.901   5.859   1.454
 4433TIP3   OH213243   1.086   5.715   3.633
 4433TIP3    H113244   1.097   5.621   3.643
 4433TIP3    H213245   1.003   5.725   3.586
 4434TIP3   OH213246   1.050   5.356   1.875
 4434TIP3    H113247   1.107   5.323   1.945
 4434TIP3    H213248   1.108   5.362   1.799
 4435TIP3   OH213249   1.693   5.799   3.403
 4435TIP3    H113250   1.647   5.819   3.321
 4435TIP3    H213251   1.726   5.710   3.391
 4436TIP3   OH213252   1.620   5.546   1.654
 4436TIP3    H113253   1.600   5.558   1.747
 4436TIP3    H213254   1.608   5.453   1.639
 4437TIP3   OH213255   2.169   5.842   3.021
 4437TIP3    H113256   2.246   5.870   2.972
 4437TIP3    H213257   2.103   5.908   3.003
 4438TIP3   OH213258   1.200   5.457   3.637
 4438TIP3    H113259   1.278   5.434   3.586
 4438TIP3    H213260   1.235   5.480   3.724
 4439TIP3   OH213261   1.244   5.252   2.050
 4439TIP3    H113262   1.241   5.206   2.134
 4439TIP3    H213263   1.287   5.190   1.991
 4440TIP3   OH213264   1.551   5.348   3.294
 4440TIP3    H113265   1.464   5.387   3.300
 4440TIP3    H213266   1.583   5.372   3.207
 4441TIP3   OH213267   1.376   5.082   1.876
 4441TIP3    H113268   1.347   5.082   1.785
 4441TIP3    H213269   1.471   5.086   1.871
 4442TIP3   OH213270   2.050   5.720   3.380
 4442TIP3    H113271   2.119   5.682   3.326
 4442TIP3    H213272   2.046   5.664   3.457
 4443TIP3   OH213273   2.172   5.374   1.559
 4443TIP3    H113274   2.158   5.331   1.475
 4443TIP3    H213275   2.145   5.465   1.544
 4444TIP3   OH213276   1.653   5.115   3.399
 4444TIP3    H113277   1.654   5.044   3.335
 4444TIP3    H213278   1.617   5.190   3.351
 4445TIP3   OH213279   1.661   4.915   3.197
 4445TIP3    H113280   1.687   4.951   3.112
 4445TIP3    H213281   1.570   4.888   3.184
 4446TIP3   OH213282   1.670   5.435   3.066
 4446TIP3    H113283   1.760   5.464   3.050
 4446TIP3    H213284   1.615   5.499   3.020
 4447TIP3   OH213285   2.259   5.396   3.448
 4447TIP3    H113286   2.295   5.308   3.458
 4447TIP3    H213287   2.335   5.451   3.428
 4448TIP3   OH213288   2.294   5.665   3.186
 4448TIP3    H113289   2.241   5.727   3.136
 4448TIP3    H213290   2.383   5.680   3.155
 4449TIP3   OH213291   1.537   5.200   3.642
 4449TIP3    H113292   1.467   5.138   3.663
 4449TIP3    H213293   1.565   5.177   3.554
 4450TIP3   OH213294   1.783   4.681   3.295
 4450TIP3    H113295   1.742   4.761   3.263
 4450TIP3    H213296   1.717   4.613   3.282
 4451TIP3   OH213297   1.909   5.154   3.500
 4451TIP3    H113298   1.898   5.141   3.594
 4451TIP3    H213299   1.823   5.133   3.463
 4452TIP3   OH213300   2.154   5.111   3.370
 4452TIP3    H113301   2.075   5.109   3.424
 4452TIP3    H213302   2.224   5.083   3.428
 4453TIP3   OH213303   2.388   5.072   3.519
 4453TIP3    H113304   2.404   4.977   3.526
 4453TIP3    H213305   2.385   5.102   3.609
 4454TIP3   OH213306   1.371   4.980   3.706
 4454TIP3    H113307   1.377   4.892   3.668
 4454TIP3    H213308   1.410   4.970   3.793
 4455TIP3   OH213309   1.852   4.662   3.561
 4455TIP3    H113310   1.921   4.595   3.555
 4455TIP3    H213311   1.821   4.672   3.471
 4456TIP3   OH213312   1.946   4.877   3.707
 4456TIP3    H113313   1.916   4.805   3.651
 4456TIP3    H213314   1.873   4.939   3.706
 4457TIP3   OH213315   1.205   6.125   1.821
 4457TIP3    H113316   1.292   6.103   1.789
 4457TIP3    H213317   1.163   6.171   1.748
 4458TIP3   OH213318   0.666   5.515   1.980
 4458TIP3    H113319   0.697   5.487   1.894
 4458TIP3    H213320   0.626   5.437   2.018
 4459TIP3   OH213321   0.571   6.104   2.446
 4459TIP3    H113322   0.507   6.046   2.406
 4459TIP3    H213323   0.620   6.049   2.507
 4460TIP3   OH213324   0.730   5.953   2.615
 4460TIP3    H113325   0.714   5.876   2.669
 4460TIP3    H213326   0.777   6.013   2.673
 4461TIP3   OH213327   2.436   6.377   2.428
 4461TIP3    H113328   2.467   6.374   2.519
 4461TIP3    H213329   2.516   6.379   2.376
 4462TIP3   OH213330   2.474   6.358   2.709
 4462TIP3    H113331   2.423   6.276   2.703
 4462TIP3    H213332   2.546   6.337   2.767
 4463TIP3   OH213333   2.514   6.062   3.281
 4463TIP3    H113334   2.443   6.070   3.346
 4463TIP3    H213335   2.561   6.145   3.287
 4464TIP3   OH213336   2.342   5.579   1.891
 4464TIP3    H113337   2.401   5.649   1.863
 4464TIP3    H213338   2.385   5.540   1.967
 4465TIP3   OH213339   2.468   5.435   2.093
 4465TIP3    H113340   2.401   5.395   2.149
 4465TIP3    H213341   2.533   5.470   2.153
 4466TIP3   OH213342   2.515   5.836   2.524
 4466TIP3    H113343   2.568   5.766   2.487
 4466TIP3    H213344   2.530   5.911   2.466
 4467TIP3   OH213345   2.323   6.126   2.715
 4467TIP3    H113346   2.255   6.167   2.768
 4467TIP3    H213347   2.275   6.083   2.644
 4468TIP3   OH213348   2.378   5.352   1.739
 4468TIP3    H113349   2.307   5.352   1.676
 4468TIP3    H213350   2.363   5.429   1.793
 4469TIP3   OH213351   2.237   5.001   1.675
 4469TIP3    H113352   2.189   5.036   1.600
 4469TIP3    H213353   2.228   4.906   1.667
 4470TIP3   OH213354   2.266   5.293   2.229
 4470TIP3    H113355   2.272   5.198   2.217
 4470TIP3    H213356   2.248   5.304   2.323
 4471TIP3   OH213357   0.888   5.375   2.984
 4471TIP3    H113358   0.879   5.333   2.899
 4471TIP3    H213359   0.982   5.370   3.003
 4472TIP3   OH213360   2.552   5.713   3.093
 4472TIP3    H113361   2.617   5.644   3.078
 4472TIP3    H213362   2.578   5.783   3.033
 4473TIP3   OH213363   2.727   5.500   3.085
 4473TIP3    H113364   2.652   5.458   3.128
 4473TIP3    H213365   2.801   5.444   3.105
 4474TIP3   OH213366   2.194   4.731   1.648
 4474TIP3    H113367   2.260   4.704   1.712
 4474TIP3    H213368   2.113   4.690   1.678
 4475TIP3   OH213369   2.260   5.016   2.113
 4475TIP3    H113370   2.304   4.932   2.126
 4475TIP3    H213371   2.304   5.054   2.038
 4476TIP3   OH213372   2.414   5.183   2.636
 4476TIP3    H113373   2.495   5.200   2.588
 4476TIP3    H213374   2.428   5.221   2.722
 4477TIP3   OH213375   2.488   5.331   2.864
 4477TIP3    H113376   2.416   5.360   2.920
 4477TIP3    H213377   2.520   5.411   2.823
 4478TIP3   OH213378   1.107   5.041   3.650
 4478TIP3    H113379   1.201   5.036   3.665
 4478TIP3    H213380   1.073   4.960   3.689
 4479TIP3   OH213381   2.945   4.934   3.403
 4479TIP3    H113382   3.010   4.875   3.366
 4479TIP3    H213383   2.910   4.981   3.327
 4480TIP3   OH213384   2.374   4.766   2.165
 4480TIP3    H113385   2.419   4.752   2.248
 4480TIP3    H213386   2.312   4.694   2.159
 4481TIP3   OH213387   1.110   4.760   3.075
 4481TIP3    H113388   1.143   4.676   3.044
 4481TIP3    H213389   1.144   4.824   3.012
 4482TIP3   OH213390   0.860   5.017   3.060
 4482TIP3    H113391   0.915   5.003   2.982
 4482TIP3    H213392   0.895   5.097   3.099
 4483TIP3   OH213393   2.798   5.045   3.200
 4483TIP3    H113394   2.713   5.084   3.221
 4483TIP3    H213395   2.777   4.966   3.150
 4484TIP3   OH213396   2.421   4.684   1.804
 4484TIP3    H113397   2.468   4.621   1.748
 4484TIP3    H213398   2.480   4.759   1.809
 4485TIP3   OH213399   0.878   4.480   2.567
 4485TIP3    H113400   0.848   4.498   2.656
 4485TIP3    H213401   0.849   4.555   2.516
 4486TIP3   OH213402   1.994   6.241   2.084
 4486TIP3    H113403   2.054   6.233   2.009
 4486TIP3    H213404   2.036   6.306   2.140
 4487TIP3   OH213405   1.079   4.582   3.378
 4487TIP3    H113406   1.024   4.583   3.456
 4487TIP3    H213407   1.028   4.628   3.311
 4488TIP3   OH213408   1.120   6.028   3.458
 4488TIP3    H113409   1.026   6.020   3.444
 4488TIP3    H213410   1.133   6.009   3.551
 4489TIP3   OH213411   1.313   6.081   3.001
 4489TIP3    H113412   1.260   6.155   2.970
 4489TIP3    H213413   1.398   6.093   2.959
 4490TIP3   OH213414   1.717   6.316   3.139
 4490TIP3    H113415   1.754   6.306   3.227
 4490TIP3    H213416   1.782   6.368   3.092
 4491TIP3   OH213417   1.910   6.468   3.011
 4491TIP3    H113418   1.973   6.410   2.968
 4491TIP3    H213419   1.963   6.525   3.066
 4492TIP3   OH213420   2.713   4.795   3.101
 4492TIP3    H113421   2.624   4.782   3.068
 4492TIP3    H213422   2.753   4.708   3.097
 4493TIP3   OH213423   0.975   6.338   3.043
 4493TIP3    H113424   0.881   6.348   3.027
 4493TIP3    H213425   0.994   6.399   3.114
 4494TIP3   OH213426   1.205   6.313   2.897
 4494TIP3    H113427   1.123   6.320   2.945
 4494TIP3    H213428   1.183   6.337   2.807
 4495TIP3   OH213429   1.623   6.332   2.688
 4495TIP3    H113430   1.549   6.342   2.628
 4495TIP3    H213431   1.631   6.417   2.731
 4496TIP3   OH213432   1.888   6.271   2.737
 4496TIP3    H113433   1.796   6.289   2.718
 4496TIP3    H213434   1.936   6.341   2.692
 4497TIP3   OH213435   2.093   6.450   2.647
 4497TIP3    H113436   2.088   6.535   2.604
 4497TIP3    H213437   2.123   6.391   2.577
 4498TIP3   OH213438   0.903   6.108   2.771
 4498TIP3    H113439   0.921   6.076   2.860
 4498TIP3    H213440   0.975   6.072   2.719
 4499TIP3   OH213441   1.100   5.988   2.624
 4499TIP3    H113442   1.108   5.905   2.671
 4499TIP3    H213443   1.187   6.028   2.630
 4500TIP3   OH213444   1.364   6.075   2.647
 4500TIP3    H113445   1.386   5.983   2.632
 4500TIP3    H213446   1.414   6.098   2.725
 4501TIP3   OH213447   1.918   4.724   2.736
 4501TIP3    H113448   1.877   4.653   2.786
 4501TIP3    H213449   1.986   4.681   2.684
 4502TIP3   OH213450   2.422   4.634   2.622
 4502TIP3    H113451   2.457   4.685   2.549
 4502TIP3    H213452   2.329   4.657   2.624
 4503TIP3   OH213453   2.534   4.717   2.385
 4503TIP3    H113454   2.603   4.656   2.360
 4503TIP3    H213455   2.572   4.804   2.372
 4504TIP3   OH213456   1.163   4.427   2.730
 4504TIP3    H113457   1.073   4.399   2.717
 4504TIP3    H213458   1.214   4.345   2.729
 4505TIP3   OH213459   0.919   4.317   2.340
 4505TIP3    H113460   0.974   4.371   2.283
 4505TIP3    H213461   0.913   4.367   2.421
 4506TIP3   OH213462   1.634   4.466   2.628
 4506TIP3    H113463   1.683   4.514   2.561
 4506TIP3    H213464   1.672   4.494   2.711
 4507TIP3   OH213465   2.134   4.609   2.604
 4507TIP3    H113466   2.145   4.572   2.517
 4507TIP3    H213467   2.137   4.533   2.663
 4508TIP3   OH213468   2.189   4.555   2.171
 4508TIP3    H113469   2.109   4.602   2.195
 4508TIP3    H213470   2.179   4.468   2.210
 4509TIP3   OH213471   0.686   5.818   2.140
 4509TIP3    H113472   0.591   5.819   2.141
 4509TIP3    H213473   0.711   5.911   2.142
 4510TIP3   OH213474   1.086   4.463   2.149
 4510TIP3    H113475   1.132   4.398   2.096
 4510TIP3    H213476   1.155   4.516   2.188
 4511TIP3   OH213477   1.574   4.658   2.247
 4511TIP3    H113478   1.630   4.604   2.302
 4511TIP3    H213479   1.590   4.748   2.277
 4512TIP3   OH213480   1.455   6.053   1.740
 4512TIP3    H113481   1.540   6.079   1.703
 4512TIP3    H213482   1.427   5.981   1.684
 4513TIP3   OH213483   2.163   6.224   1.866
 4513TIP3    H113484   2.168   6.128   1.858
 4513TIP3    H213485   2.125   6.253   1.784
 4514TIP3   OH213486   1.384   4.708   3.618
 4514TIP3    H113487   1.349   4.641   3.677
 4514TIP3    H213488   1.476   4.716   3.642
 4515TIP3   OH213489   1.633   4.713   3.739
 4515TIP3    H113490   1.711   4.692   3.687
 4515TIP3    H213491   1.629   4.643   3.804
 4516TIP3   OH213492   0.756   5.784   1.865
 4516TIP3    H113493   0.698   5.860   1.857
 4516TIP3    H213494   0.833   5.806   1.813
 4517TIP3   OH213495   2.455   4.801   3.528
 4517TIP3    H113496   2.471   4.771   3.617
 4517TIP3    H213497   2.540   4.796   3.485
 4518TIP3   OH213498   2.373   6.332   3.033
 4518TIP3    H113499   2.297   6.303   2.981
 4518TIP3    H213500   2.360   6.426   3.042
 4519TIP3   OH213501   3.650   5.722   1.774
 4519TIP3    H113502   3.620   5.809   1.748
 4519TIP3    H213503   3.578   5.663   1.750
 4520TIP3   OH213504   3.649   5.713   2.195
 4520TIP3    H113505   3.700   5.695   2.274
 4520TIP3    H213506   3.604   5.630   2.177
 4521TIP3   OH213507   2.945   5.580   2.543
 4521TIP3    H113508   2.981   5.526   2.614
 4521TIP3    H213509   3.021   5.607   2.492
 4522TIP3   OH213510   3.916   6.021   1.871
 4522TIP3    H113511   3.904   5.955   1.940
 4522TIP3    H213512   3.938   6.101   1.919
 4523TIP3   OH213513   2.912   6.009   2.225
 4523TIP3    H113514   2.905   5.913   2.228
 4523TIP3    H213515   3.005   6.027   2.240
 4524TIP3   OH213516   2.623   5.210   2.013
 4524TIP3    H113517   2.584   5.293   2.038
 4524TIP3    H213518   2.551   5.159   1.976
 4525TIP3   OH213519   2.700   5.515   2.233
 4525TIP3    H113520   2.749   5.438   2.260
 4525TIP3    H213521   2.767   5.578   2.206
 4526TIP3   OH213522   3.553   6.472   1.863
 4526TIP3    H113523   3.589   6.396   1.817
 4526TIP3    H213524   3.544   6.443   1.953
 4527TIP3   OH213525   3.454   5.939   2.203
 4527TIP3    H113526   3.498   5.859   2.172
 4527TIP3    H213527   3.524   5.994   2.236
 4528TIP3   OH213528   4.481   5.258   2.218
 4528TIP3    H113529   4.501   5.340   2.262
 4528TIP3    H213530   4.495   5.277   2.125
 4529TIP3   OH213531   3.864   5.424   2.237
 4529TIP3    H113532   3.898   5.339   2.265
 4529TIP3    H213533   3.826   5.407   2.150
 4530TIP3   OH213534   3.217   5.084   2.198
 4530TIP3    H113535   3.196   5.157   2.139
 4530TIP3    H213536   3.162   5.012   2.168
 4531TIP3   OH213537   3.914   5.183   1.831
 4531TIP3    H113538   3.977   5.176   1.902
 4531TIP3    H213539   3.964   5.217   1.757
 4532TIP3   OH213540   2.841   5.296   2.325
 4532TIP3    H113541   2.923   5.278   2.370
 4532TIP3    H213542   2.845   5.244   2.244
 4533TIP3   OH213543   3.263   5.497   2.139
 4533TIP3    H113544   3.357   5.481   2.147
 4533TIP3    H213545   3.228   5.414   2.105
 4534TIP3   OH213546   4.543   5.476   2.383
 4534TIP3    H113547   4.454   5.509   2.377
 4534TIP3    H213548   4.573   5.505   2.469
 4535TIP3   OH213549   3.199   5.085   2.648
 4535TIP3    H113550   3.147   5.120   2.576
 4535TIP3    H213551   3.144   5.099   2.726
 4536TIP3   OH213552   3.548   5.940   1.634
 4536TIP3    H113553   3.508   5.911   1.552
 4536TIP3    H213554   3.495   6.015   1.661
 4537TIP3   OH213555   3.296   5.859   2.416
 4537TIP3    H113556   3.241   5.929   2.450
 4537TIP3    H213557   3.345   5.899   2.344
 4538TIP3   OH213558   4.075   5.205   2.050
 4538TIP3    H113559   4.034   5.182   2.133
 4538TIP3    H213560   4.131   5.280   2.070
 4539TIP3   OH213561   3.086   5.192   2.419
 4539TIP3    H113562   3.141   5.267   2.443
 4539TIP3    H213563   3.134   5.150   2.347
 4540TIP3   OH213564   3.135   6.059   2.512
 4540TIP3    H113565   3.131   6.148   2.478
 4540TIP3    H213566   3.055   6.049   2.565
 4541TIP3   OH213567   2.516   5.769   1.771
 4541TIP3    H113568   2.480   5.781   1.683
 4541TIP3    H213569   2.541   5.857   1.800
 4542TIP3   OH213570   3.957   6.268   2.010
 4542TIP3    H113571   3.872   6.259   2.053
 4542TIP3    H213572   3.954   6.352   1.966
 4543TIP3   OH213573   4.279   5.152   2.386
 4543TIP3    H113574   4.193   5.173   2.348
 4543TIP3    H213575   4.342   5.178   2.319
 4544TIP3   OH213576   3.539   4.777   2.376
 4544TIP3    H113577   3.533   4.685   2.403
 4544TIP3    H213578   3.463   4.819   2.416
 4545TIP3   OH213579   3.662   6.298   1.671
 4545TIP3    H113580   3.716   6.220   1.659
 4545TIP3    H213581   3.719   6.371   1.647
 4546TIP3   OH213582   3.805   6.071   1.623
 4546TIP3    H113583   3.736   6.005   1.617
 4546TIP3    H213584   3.854   6.048   1.702
 4547TIP3   OH213585   4.191   6.158   2.355
 4547TIP3    H113586   4.171   6.083   2.299
 4547TIP3    H213587   4.174   6.235   2.301
 4548TIP3   OH213588   3.473   5.560   1.629
 4548TIP3    H113589   3.392   5.606   1.606
 4548TIP3    H213590   3.522   5.556   1.547
 4549TIP3   OH213591   3.448   5.360   1.321
 4549TIP3    H113592   3.512   5.409   1.372
 4549TIP3    H213593   3.499   5.295   1.273
 4550TIP3   OH213594   4.372   5.819   2.219
 4550TIP3    H113595   4.287   5.863   2.219
 4550TIP3    H213596   4.405   5.832   2.131
 4551TIP3   OH213597   3.837   5.650   1.588
 4551TIP3    H113598   3.782   5.678   1.662
 4551TIP3    H213599   3.919   5.623   1.628
 4552TIP3   OH213600   4.065   5.680   2.527
 4552TIP3    H113601   4.061   5.763   2.576
 4552TIP3    H213602   3.982   5.677   2.479
 4553TIP3   OH213603   3.064   5.631   1.993
 4553TIP3    H113604   3.028   5.570   1.928
 4553TIP3    H213605   3.137   5.583   2.033
 4554TIP3   OH213606   3.198   6.066   2.135
 4554TIP3    H113607   3.177   6.046   2.044
 4554TIP3    H213608   3.283   6.026   2.149
 4555TIP3   OH213609   3.161   5.626   2.365
 4555TIP3    H113610   3.200   5.590   2.285
 4555TIP3    H213611   3.211   5.706   2.382
 4556TIP3   OH213612   3.726   6.261   2.150
 4556TIP3    H113613   3.705   6.342   2.196
 4556TIP3    H213614   3.704   6.191   2.212
 4557TIP3   OH213615   3.327   6.156   2.690
 4557TIP3    H113616   3.269   6.221   2.729
 4557TIP3    H213617   3.272   6.109   2.628
 4558TIP3   OH213618   3.662   5.511   1.428
 4558TIP3    H113619   3.723   5.567   1.476
 4558TIP3    H213620   3.688   5.519   1.337
 4559TIP3   OH213621   3.090   5.714   2.822
 4559TIP3    H113622   3.093   5.808   2.841
 4559TIP3    H213623   2.997   5.694   2.817
 4560TIP3   OH213624   3.411   6.181   1.672
 4560TIP3    H113625   3.495   6.227   1.682
 4560TIP3    H213626   3.355   6.243   1.626
 4561TIP3   OH213627   3.127   6.337   2.766
 4561TIP3    H113628   3.115   6.352   2.673
 4561TIP3    H213629   3.039   6.322   2.801
 4562TIP3   OH213630   4.178   4.736   1.476
 4562TIP3    H113631   4.101   4.757   1.528
 4562TIP3    H213632   4.191   4.813   1.421
 4563TIP3   OH213633   2.939   5.472   1.790
 4563TIP3    H113634   2.860   5.517   1.759
 4563TIP3    H213635   2.909   5.384   1.812
 4564TIP3   OH213636   3.976   6.117   1.025
 4564TIP3    H113637   3.982   6.212   1.017
 4564TIP3    H213638   4.067   6.087   1.023
 4565TIP3   OH213639   2.718   5.875   2.720
 4565TIP3    H113640   2.649   5.856   2.657
 4565TIP3    H213641   2.753   5.790   2.745
 4566TIP3   OH213642   2.622   6.051   2.374
 4566TIP3    H113643   2.702   6.033   2.324
 4566TIP3    H213644   2.647   6.123   2.433
 4567TIP3   OH213645   4.422   6.525   2.422
 4567TIP3    H113646   4.428   6.431   2.433
 4567TIP3    H213647   4.342   6.550   2.468
 4568TIP3   OH213648   3.532   6.301   2.560
 4568TIP3    H113649   3.515   6.395   2.571
 4568TIP3    H213650   3.450   6.259   2.587
 4569TIP3   OH213651   3.294   6.394   1.508
 4569TIP3    H113652   3.254   6.376   1.423
 4569TIP3    H213653   3.263   6.482   1.531
 4570TIP3   OH213654   2.712   6.309   1.875
 4570TIP3    H113655   2.760   6.291   1.955
 4570TIP3    H213656   2.662   6.229   1.858
 4571TIP3   OH213657   3.494   6.330   1.152
 4571TIP3    H113658   3.548   6.261   1.112
 4571TIP3    H213659   3.534   6.345   1.238
 4572TIP3   OH213660   3.553   6.377   1.417
 4572TIP3    H113661   3.466   6.376   1.457
 4572TIP3    H213662   3.611   6.342   1.484
 4573TIP3   OH213663   4.313   5.634   2.686
 4573TIP3    H113664   4.229   5.644   2.642
 4573TIP3    H213665   4.330   5.539   2.685
 4574TIP3   OH213666   2.917   6.062   2.685
 4574TIP3    H113667   2.971   6.049   2.764
 4574TIP3    H213668   2.846   5.999   2.694
 4575TIP3   OH213669   3.303   4.870   2.502
 4575TIP3    H113670   3.219   4.836   2.472
 4575TIP3    H213671   3.281   4.950   2.550
 4576TIP3   OH213672   3.847   4.989   2.702
 4576TIP3    H113673   3.918   4.964   2.763
 4576TIP3    H213674   3.767   4.972   2.751
 4577TIP3   OH213675   4.067   5.417   2.619
 4577TIP3    H113676   4.025   5.412   2.705
 4577TIP3    H213677   4.050   5.506   2.590
 4578TIP3   OH213678   3.736   5.512   1.170
 4578TIP3    H113679   3.687   5.501   1.088
 4578TIP3    H213680   3.818   5.553   1.142
 4579TIP3   OH213681   3.452   4.914   1.470
 4579TIP3    H113682   3.418   4.920   1.559
 4579TIP3    H213683   3.416   4.831   1.436
 4580TIP3   OH213684   3.240   5.403   2.511
 4580TIP3    H113685   3.194   5.410   2.595
 4580TIP3    H213686   3.218   5.484   2.465
 4581TIP3   OH213687   3.122   5.281   2.032
 4581TIP3    H113688   3.033   5.256   2.057
 4581TIP3    H213689   3.132   5.247   1.943
 4582TIP3   OH213690   3.603   5.355   1.761
 4582TIP3    H113691   3.555   5.428   1.721
 4582TIP3    H213692   3.661   5.324   1.691
 4583TIP3   OH213693   3.789   5.624   2.835
 4583TIP3    H113694   3.761   5.556   2.896
 4583TIP3    H213695   3.882   5.639   2.856
 4584TIP3   OH213696   3.771   5.371   1.984
 4584TIP3    H113697   3.702   5.392   1.922
 4584TIP3    H213698   3.817   5.297   1.945
 4585TIP3   OH213699   3.075   5.415   2.732
 4585TIP3    H113700   3.101   5.475   2.802
 4585TIP3    H213701   3.057   5.332   2.777
 4586TIP3   OH213702   3.118   4.893   1.445
 4586TIP3    H113703   3.110   4.895   1.540
 4586TIP3    H213704   3.040   4.939   1.413
 4587TIP3   OH213705   2.667   4.938   2.308
 4587TIP3    H113706   2.738   4.972   2.363
 4587TIP3    H213707   2.710   4.913   2.226
 4588TIP3   OH213708   2.580   4.914   1.819
 4588TIP3    H113709   2.626   4.949   1.743
 4588TIP3    H213710   2.518   4.982   1.843
 4589TIP3   OH213711   3.810   5.624   2.411
 4589TIP3    H113712   3.836   5.557   2.347
 4589TIP3    H213713   3.768   5.575   2.482
 4590TIP3   OH213714   3.484   5.074   2.085
 4590TIP3    H113715   3.407   5.074   2.141
 4590TIP3    H213716   3.558   5.064   2.145
 4591TIP3   OH213717   2.884   5.157   2.092
 4591TIP3    H113718   2.795   5.161   2.056
 4591TIP3    H213719   2.912   5.066   2.077
 4592TIP3   OH213720   3.136   5.157   1.787
 4592TIP3    H113721   3.230   5.168   1.776
 4592TIP3    H213722   3.100   5.175   1.700
 4593TIP3   OH213723   3.938   5.160   2.291
 4593TIP3    H113724   3.920   5.177   2.384
 4593TIP3    H213725   3.870   5.099   2.264
 4594TIP3   OH213726   3.019   5.184   1.540
 4594TIP3    H113727   2.955   5.135   1.488
 4594TIP3    H213728   3.074   5.228   1.475
 4595TIP3   OH213729   4.132   6.866   2.517
 4595TIP3    H113730   4.129   6.879   2.422
 4595TIP3    H213731   4.211   6.913   2.545
 4596TIP3   OH213732   3.071   5.980   2.920
 4596TIP3    H113733   3.153   5.999   2.966
 4596TIP3    H213734   3.004   5.983   2.988
 4597TIP3   OH213735   3.534   5.441   2.192
 4597TIP3    H113736   3.601   5.391   2.146
 4597TIP3    H213737   3.532   5.403   2.280
 4598TIP3   OH213738   3.029   4.908   2.082
 4598TIP3    H113739   3.000   4.833   2.134
 4598TIP3    H213740   3.059   4.870   1.999
 4599TIP3   OH213741   3.508   5.347   2.458
 4599TIP3    H113742   3.421   5.378   2.482
 4599TIP3    H213743   3.567   5.399   2.512
 4600TIP3   OH213744   3.239   5.700   1.564
 4600TIP3    H113745   3.165   5.643   1.543
 4600TIP3    H213746   3.215   5.740   1.648
 4601TIP3   OH213747   4.134   5.954   2.179
 4601TIP3    H113748   4.168   6.003   2.104
 4601TIP3    H213749   4.053   5.913   2.146
 4602TIP3   OH213750   3.706   5.014   1.472
 4602TIP3    H113751   3.613   4.994   1.468
 4602TIP3    H213752   3.710   5.109   1.484
 4603TIP3   OH213753   3.648   6.045   2.590
 4603TIP3    H113754   3.690   6.036   2.675
 4603TIP3    H213755   3.605   6.130   2.592
 4604TIP3   OH213756   3.767   5.277   1.544
 4604TIP3    H113757   3.862   5.281   1.554
 4604TIP3    H213758   3.745   5.355   1.493
 4605TIP3   OH213759   2.931   5.720   2.219
 4605TIP3    H113760   2.971   5.700   2.134
 4605TIP3    H213761   2.994   5.690   2.284
 4606TIP3   OH213762   3.398   5.858   1.407
 4606TIP3    H113763   3.349   5.941   1.406
 4606TIP3    H213764   3.344   5.799   1.460
 4607TIP3   OH213765   2.817   5.649   2.856
 4607TIP3    H113766   2.827   5.628   2.949
 4607TIP3    H213767   2.743   5.596   2.827
 4608TIP3   OH213768   3.556   5.780   2.872
 4608TIP3    H113769   3.489   5.721   2.840
 4608TIP3    H213770   3.639   5.739   2.845
 4609TIP3   OH213771   3.798   6.326   2.472
 4609TIP3    H113772   3.704   6.309   2.479
 4609TIP3    H213773   3.822   6.362   2.557
 4610TIP3   OH213774   4.191   5.370   1.367
 4610TIP3    H113775   4.133   5.322   1.308
 4610TIP3    H213776   4.191   5.460   1.333
 4611TIP3   OH213777   4.436   6.248   2.443
 4611TIP3    H113778   4.342   6.230   2.442
 4611TIP3    H213779   4.468   6.213   2.359
 4612TIP3   OH213780   3.917   6.174   1.301
 4612TIP3    H113781   3.894   6.105   1.362
 4612TIP3    H213782   3.927   6.130   1.217
 4613TIP3   OH213783   3.904   5.819   2.076
 4613TIP3    H113784   3.814   5.798   2.101
 4613TIP3    H213785   3.938   5.737   2.038
 4614TIP3   OH213786   3.053   6.054   1.882
 4614TIP3    H113787   3.047   6.133   1.827
 4614TIP3    H213788   2.964   6.043   1.916
 4615TIP3   OH213789   2.613   5.339   1.595
 4615TIP3    H113790   2.659   5.420   1.618
 4615TIP3    H213791   2.534   5.340   1.648
 4616TIP3   OH213792   3.146   5.809   1.793
 4616TIP3    H113793   3.128   5.898   1.823
 4616TIP3    H213794   3.122   5.754   1.868
 4617TIP3   OH213795   2.957   6.290   1.737
 4617TIP3    H113796   2.869   6.295   1.775
 4617TIP3    H213797   2.990   6.380   1.740
 4618TIP3   OH213798   3.689   6.038   2.318
 4618TIP3    H113799   3.675   6.038   2.412
 4618TIP3    H213800   3.767   5.984   2.305
 4619TIP3   OH213801   3.671   5.914   1.209
 4619TIP3    H113802   3.733   5.891   1.279
 4619TIP3    H213803   3.588   5.876   1.238
 4620TIP3   OH213804   3.947   6.541   2.357
 4620TIP3    H113805   3.879   6.476   2.373
 4620TIP3    H213806   3.914   6.593   2.284
 4621TIP3   OH213807   4.022   6.388   1.025
 4621TIP3    H113808   4.079   6.463   1.011
 4621TIP3    H213809   3.940   6.427   1.056
 4622TIP3   OH213810   3.027   5.162   2.855
 4622TIP3    H113811   2.932   5.169   2.861
 4622TIP3    H213812   3.052   5.110   2.932
 4623TIP3   OH213813   3.861   5.840   1.387
 4623TIP3    H113814   3.846   5.782   1.461
 4623TIP3    H213815   3.957   5.846   1.380
 4624TIP3   OH213816   2.760   6.259   2.521
 4624TIP3    H113817   2.817   6.197   2.566
 4624TIP3    H213818   2.801   6.345   2.536
 4625TIP3   OH213819   3.031   5.884   1.196
 4625TIP3    H113820   3.046   5.793   1.170
 4625TIP3    H213821   3.018   5.881   1.291
 4626TIP3   OH213822   2.978   5.901   1.469
 4626TIP3    H113823   3.047   5.872   1.529
 4626TIP3    H213824   2.978   5.997   1.477
 4627TIP3   OH213825   2.711   5.589   1.677
 4627TIP3    H113826   2.648   5.637   1.730
 4627TIP3    H213827   2.732   5.648   1.605
 4628TIP3   OH213828   3.880   5.219   2.553
 4628TIP3    H113829   3.956   5.266   2.589
 4628TIP3    H213830   3.870   5.143   2.610
 4629TIP3   OH213831   3.765   4.965   1.741
 4629TIP3    H113832   3.745   4.984   1.649
 4629TIP3    H213833   3.808   5.045   1.772
 4630TIP3   OH213834   3.244   6.081   1.406
 4630TIP3    H113835   3.162   6.108   1.448
 4630TIP3    H213836   3.269   6.156   1.352
 4631TIP3   OH213837   3.416   5.165   1.831
 4631TIP3    H113838   3.478   5.233   1.806
 4631TIP3    H213839   3.437   5.145   1.922
 4632TIP3   OH213840   3.716   5.459   2.611
 4632TIP3    H113841   3.739   5.504   2.692
 4632TIP3    H213842   3.765   5.377   2.613
 4633TIP3   OH213843   3.579   4.863   1.920
 4633TIP3    H113844   3.557   4.940   1.972
 4633TIP3    H213845   3.648   4.893   1.861
 4634TIP3   OH213846   2.996   6.175   1.488
 4634TIP3    H113847   2.974   6.245   1.426
 4634TIP3    H213848   2.983   6.214   1.574
 4635TIP3   OH213849   3.093   4.884   1.723
 4635TIP3    H113850   3.082   4.974   1.754
 4635TIP3    H213851   3.187   4.868   1.730
 4636TIP3   OH213852   4.329   5.355   2.595
 4636TIP3    H113853   4.235   5.369   2.608
 4636TIP3    H213854   4.334   5.290   2.524
 4637TIP3   OH213855   3.994   5.561   1.986
 4637TIP3    H113856   3.917   5.505   1.998
 4637TIP3    H213857   4.061   5.520   2.041
 4638TIP3   OH213858   2.732   5.771   1.462
 4638TIP3    H113859   2.804   5.833   1.473
 4638TIP3    H213860   2.764   5.707   1.399
 4639TIP3   OH213861   2.643   5.061   1.596
 4639TIP3    H113862   2.655   5.156   1.603
 4639TIP3    H213863   2.576   5.050   1.529
 4640TIP3   OH213864   3.976   6.537   1.933
 4640TIP3    H113865   3.934   6.590   1.866
 4640TIP3    H213866   4.070   6.546   1.916
 4641TIP3   OH213867   3.041   4.783   2.465
 4641TIP3    H113868   3.012   4.749   2.381
 4641TIP3    H213869   3.033   4.708   2.525
 4642TIP3   OH213870   2.559   6.065   1.827
 4642TIP3    H113871   2.494   6.087   1.893
 4642TIP3    H213872   2.523   6.098   1.745
 4643TIP3   OH213873   2.778   6.584   2.919
 4643TIP3    H113874   2.857   6.596   2.973
 4643TIP3    H213875   2.776   6.490   2.899
 4644TIP3   OH213876   3.233   6.496   2.964
 4644TIP3    H113877   3.324   6.467   2.976
 4644TIP3    H213878   3.200   6.443   2.891
 4645TIP3   OH213879   3.191   6.084   1.092
 4645TIP3    H113880   3.144   6.013   1.136
 4645TIP3    H213881   3.268   6.042   1.053
 4646TIP3   OH213882   3.857   6.426   2.721
 4646TIP3    H113883   3.869   6.356   2.784
 4646TIP3    H213884   3.931   6.485   2.736
 4647TIP3   OH213885   3.627   6.121   1.038
 4647TIP3    H113886   3.654   6.055   1.103
 4647TIP3    H213887   3.695   6.118   0.971
 4648TIP3   OH213888   2.868   5.975   3.112
 4648TIP3    H113889   2.891   5.883   3.124
 4648TIP3    H213890   2.781   5.974   3.074
 4649TIP3   OH213891   2.856   5.579   1.313
 4649TIP3    H113892   2.907   5.554   1.390
 4649TIP3    H213893   2.922   5.592   1.245
 4650TIP3   OH213894   3.487   6.058   2.893
 4650TIP3    H113895   3.441   6.079   2.812
 4650TIP3    H213896   3.522   5.971   2.878
 4651TIP3   OH213897   3.391   5.795   1.140
 4651TIP3    H113898   3.384   5.806   1.234
 4651TIP3    H213899   3.386   5.700   1.126
 4652TIP3   OH213900   3.966   6.095   2.507
 4652TIP3    H113901   4.042   6.126   2.459
 4652TIP3    H213902   3.899   6.163   2.492
 4653TIP3   OH213903   2.984   5.720   3.115
 4653TIP3    H113904   3.062   5.698   3.063
 4653TIP3    H213905   3.018   5.737   3.203
 4654TIP3   OH213906   3.032   5.519   1.523
 4654TIP3    H113907   3.013   5.489   1.612
 4654TIP3    H213908   3.080   5.447   1.483
 4655TIP3   OH213909   3.338   5.594   2.774
 4655TIP3    H113910   3.257   5.642   2.784
 4655TIP3    H213911   3.375   5.625   2.691
 4656TIP3   OH213912   3.172   5.334   1.368
 4656TIP3    H113913   3.144   5.338   1.276
 4656TIP3    H213914   3.268   5.338   1.364
 4657TIP3   OH213915   3.847   5.979   2.871
 4657TIP3    H113916   3.911   5.937   2.813
 4657TIP3    H213917   3.843   5.922   2.948
 4658TIP3   OH213918   3.957   5.621   1.046
 4658TIP3    H113919   3.936   5.579   0.963
 4658TIP3    H213920   3.930   5.712   1.034
 4659TIP3   OH213921   3.448   5.369   2.887
 4659TIP3    H113922   3.452   5.297   2.824
 4659TIP3    H213923   3.412   5.442   2.837
 4660TIP3   OH213924   3.458   5.169   2.684
 4660TIP3    H113925   3.485   5.206   2.600
 4660TIP3    H213926   3.367   5.142   2.671
 4661TIP3   OH213927   3.466   5.698   2.559
 4661TIP3    H113928   3.555   5.729   2.544
 4661TIP3    H213929   3.410   5.759   2.511
 4662TIP3   OH213930   4.056   5.653   2.938
 4662TIP3    H113931   4.095   5.567   2.952
 4662TIP3    H213932   4.130   5.711   2.922
 4663TIP3   OH213933   4.088   5.920   2.675
 4663TIP3    H113934   4.035   5.982   2.625
 4663TIP3    H213935   4.177   5.935   2.644
 4664TIP3   OH213936   3.332   5.458   3.128
 4664TIP3    H113937   3.264   5.394   3.150
 4664TIP3    H213938   3.362   5.432   3.041
 4665TIP3   OH213939   3.581   4.935   2.781
 4665TIP3    H113940   3.540   5.015   2.750
 4665TIP3    H213941   3.514   4.867   2.770
 4666TIP3   OH213942   3.705   5.412   2.987
 4666TIP3    H113943   3.696   5.399   3.081
 4666TIP3    H213944   3.619   5.391   2.951
 4667TIP3   OH213945   3.948   5.364   2.855
 4667TIP3    H113946   3.870   5.364   2.911
 4667TIP3    H213947   4.019   5.338   2.914
 4668TIP3   OH213948   4.187   5.329   3.001
 4668TIP3    H113949   4.202   5.235   3.010
 4668TIP3    H213950   4.182   5.362   3.091
 4669TIP3   OH213951   3.167   5.237   3.193
 4669TIP3    H113952   3.174   5.148   3.156
 4669TIP3    H213953   3.206   5.230   3.280
 4670TIP3   OH213954   3.651   4.919   3.047
 4670TIP3    H113955   3.719   4.853   3.044
 4670TIP3    H213956   3.620   4.927   2.957
 4671TIP3   OH213957   3.743   5.137   3.190
 4671TIP3    H113958   3.714   5.064   3.136
 4671TIP3    H213959   3.669   5.197   3.191
 4672TIP3   OH213960   2.984   6.386   1.307
 4672TIP3    H113961   3.074   6.364   1.282
 4672TIP3    H213962   2.947   6.428   1.229
 4673TIP3   OH213963   2.459   5.763   1.485
 4673TIP3    H113964   2.554   5.775   1.479
 4673TIP3    H213965   2.443   5.677   1.445
 4674TIP3   OH213966   2.485   6.249   2.098
 4674TIP3    H113967   2.440   6.180   2.147
 4674TIP3    H213968   2.549   6.284   2.160
 4675TIP3   OH213969   4.247   6.582   1.917
 4675TIP3    H113970   4.270   6.613   2.005
 4675TIP3    H213971   4.304   6.632   1.859
 4676TIP3   OH213972   4.271   6.614   2.197
 4676TIP3    H113973   4.220   6.533   2.191
 4676TIP3    H213974   4.339   6.595   2.262
 4677TIP3   OH213975   4.315   6.320   2.765
 4677TIP3    H113976   4.243   6.327   2.827
 4677TIP3    H213977   4.360   6.403   2.770
 4678TIP3   OH213978   4.137   5.831   1.380
 4678TIP3    H113979   4.197   5.901   1.354
 4678TIP3    H213980   4.180   5.790   1.456
 4679TIP3   OH213981   4.261   5.688   1.582
 4679TIP3    H113982   4.193   5.649   1.637
 4679TIP3    H213983   4.324   5.725   1.643
 4680TIP3   OH213984   4.312   6.092   2.014
 4680TIP3    H113985   4.364   6.023   1.972
 4680TIP3    H213986   4.312   6.165   1.952
 4681TIP3   OH213987   4.121   6.380   2.206
 4681TIP3    H113988   4.053   6.424   2.257
 4681TIP3    H213989   4.075   6.338   2.133
 4682TIP3   OH213990   4.167   5.607   1.225
 4682TIP3    H113991   4.094   5.604   1.163
 4682TIP3    H213992   4.151   5.686   1.277
 4683TIP3   OH213993   4.035   5.258   1.177
 4683TIP3    H113994   4.002   5.302   1.099
 4683TIP3    H213995   4.018   5.165   1.160
 4684TIP3   OH213996   4.061   5.548   1.718
 4684TIP3    H113997   4.066   5.453   1.704
 4684TIP3    H213998   4.043   5.558   1.811
 4685TIP3   OH213999   2.682   5.619   2.487
 4685TIP3    H114000   2.673   5.584   2.399
 4685TIP3    H214001   2.776   5.615   2.505
 4686TIP3   OH214002   4.344   5.968   2.577
 4686TIP3    H114003   4.413   5.902   2.563
 4686TIP3    H214004   4.351   6.027   2.503
 4687TIP3   OH214005   4.526   5.760   2.571
 4687TIP3    H114006   4.451   5.718   2.613
 4687TIP3    H214007   4.601   5.703   2.592
 4688TIP3   OH214008   3.992   4.988   1.141
 4688TIP3    H114009   4.057   4.960   1.206
 4688TIP3    H214010   3.910   4.947   1.170
 4689TIP3   OH214011   4.058   5.273   1.602
 4689TIP3    H114012   4.102   5.189   1.614
 4689TIP3    H214013   4.102   5.313   1.528
 4690TIP3   OH214014   4.210   5.438   2.122
 4690TIP3    H114015   4.292   5.455   2.075
 4690TIP3    H214016   4.224   5.478   2.208
 4691TIP3   OH214017   4.284   5.589   2.348
 4691TIP3    H114018   4.211   5.617   2.405
 4691TIP3    H214019   4.315   5.670   2.308
 4692TIP3   OH214020   2.903   5.293   3.132
 4692TIP3    H114021   2.997   5.290   3.150
 4692TIP3    H214022   2.869   5.211   3.169
 4693TIP3   OH214023   4.743   5.193   2.890
 4693TIP3    H114024   4.807   5.132   2.853
 4693TIP3    H214025   4.708   5.239   2.814
 4694TIP3   OH214026   4.172   5.022   1.651
 4694TIP3    H114027   4.216   5.008   1.735
 4694TIP3    H214028   4.109   4.951   1.645
 4695TIP3   OH214029   2.876   5.007   2.479
 4695TIP3    H114030   2.930   4.928   2.487
 4695TIP3    H214031   2.939   5.077   2.464
 4696TIP3   OH214032   2.659   5.269   2.541
 4696TIP3    H114033   2.710   5.263   2.461
 4696TIP3    H214034   2.694   5.346   2.586
 4697TIP3   OH214035   4.596   5.307   2.690
 4697TIP3    H114036   4.516   5.345   2.727
 4697TIP3    H214037   4.566   5.233   2.638
 4698TIP3   OH214038   4.223   4.939   1.294
 4698TIP3    H114039   4.269   4.877   1.237
 4698TIP3    H214040   4.278   5.018   1.293
 4699TIP3   OH214041   2.646   4.776   2.045
 4699TIP3    H114042   2.560   4.766   2.086
 4699TIP3    H214043   2.630   4.832   1.969
 4700TIP3   OH214044   3.805   6.504   1.571
 4700TIP3    H114045   3.856   6.483   1.493
 4700TIP3    H214046   3.855   6.571   1.616
 4701TIP3   OH214047   2.870   4.844   2.869
 4701TIP3    H114048   2.819   4.833   2.949
 4701TIP3    H214049   2.812   4.890   2.808
 4702TIP3   OH214050   2.886   6.314   2.921
 4702TIP3    H114051   2.796   6.281   2.917
 4702TIP3    H214052   2.920   6.281   3.004
 4703TIP3   OH214053   3.521   6.578   2.628
 4703TIP3    H114054   3.560   6.562   2.714
 4703TIP3    H214055   3.588   6.625   2.580
 4704TIP3   OH214056   3.714   6.725   2.496
 4704TIP3    H114057   3.776   6.668   2.451
 4704TIP3    H214058   3.769   6.781   2.551
 4705TIP3   OH214059   4.508   5.053   2.589
 4705TIP3    H114060   4.419   5.039   2.559
 4705TIP3    H214061   4.549   4.966   2.585
 4706TIP3   OH214062   2.759   6.574   2.528
 4706TIP3    H114063   2.670   6.607   2.517
 4706TIP3    H214064   2.791   6.617   2.607
 4707TIP3   OH214065   2.975   6.616   2.356
 4707TIP3    H114066   2.894   6.614   2.408
 4707TIP3    H214067   3.020   6.534   2.378
 4708TIP3   OH214068   3.444   6.627   2.126
 4708TIP3    H114069   3.353   6.608   2.104
 4708TIP3    H214070   3.439   6.694   2.195
 4709TIP3   OH214071   3.689   6.534   2.215
 4709TIP3    H114072   3.599   6.554   2.189
 4709TIP3    H214073   3.742   6.601   2.171
 4710TIP3   OH214074   3.898   6.713   2.132
 4710TIP3    H114075   3.887   6.797   2.088
 4710TIP3    H214076   3.925   6.652   2.063
 4711TIP3   OH214077   2.679   6.358   2.273
 4711TIP3    H114078   2.708   6.339   2.362
 4711TIP3    H214079   2.749   6.325   2.217
 4712TIP3   OH214080   2.872   6.256   2.103
 4712TIP3    H114081   2.877   6.169   2.143
 4712TIP3    H214082   2.959   6.293   2.114
 4713TIP3   OH214083   3.136   6.340   2.148
 4713TIP3    H114084   3.172   6.252   2.140
 4713TIP3    H214085   3.132   6.356   2.242
 4714TIP3   OH214086   3.712   4.980   2.221
 4714TIP3    H114087   3.674   4.909   2.272
 4714TIP3    H214088   3.782   4.939   2.169
 4715TIP3   OH214089   4.217   4.890   2.111
 4715TIP3    H114090   4.252   4.941   2.037
 4715TIP3    H214091   4.124   4.913   2.113
 4716TIP3   OH214092   4.328   4.974   1.875
 4716TIP3    H114093   4.399   4.915   1.848
 4716TIP3    H214094   4.364   5.061   1.861
 4717TIP3   OH214095   2.954   4.680   2.223
 4717TIP3    H114096   2.865   4.647   2.233
 4717TIP3    H214097   3.008   4.602   2.216
 4718TIP3   OH214098   2.759   4.581   1.870
 4718TIP3    H114099   2.791   4.633   1.796
 4718TIP3    H214100   2.728   4.646   1.933
 4719TIP3   OH214101   3.428   4.722   2.116
 4719TIP3    H114102   3.478   4.769   2.049
 4719TIP3    H214103   3.469   4.748   2.198
 4720TIP3   OH214104   3.929   4.866   2.091
 4720TIP3    H114105   3.942   4.830   2.003
 4720TIP3    H214106   3.932   4.790   2.149
 4721TIP3   OH214107   3.985   4.813   1.658
 4721TIP3    H114108   3.905   4.860   1.682
 4721TIP3    H214109   3.975   4.726   1.697
 4722TIP3   OH214110   2.452   6.180   1.597
 4722TIP3    H114111   2.367   6.146   1.571
 4722TIP3    H214112   2.447   6.274   1.580
 4723TIP3   OH214113   2.880   4.718   1.638
 4723TIP3    H114114   2.926   4.656   1.581
 4723TIP3    H214115   2.949   4.773   1.674
 4724TIP3   OH214116   3.369   4.913   1.735
 4724TIP3    H114117   3.428   4.861   1.789
 4724TIP3    H214118   3.383   5.003   1.763
 4725TIP3   OH214119   3.238   6.310   1.240
 4725TIP3    H114120   3.325   6.334   1.208
 4725TIP3    H214121   3.210   6.239   1.181
 4726TIP3   OH214122   3.949   6.441   1.345
 4726TIP3    H114123   3.945   6.346   1.336
 4726TIP3    H214124   3.904   6.475   1.267
 4727TIP3   OH214125   3.180   4.965   3.105
 4727TIP3    H114126   3.145   4.900   3.165
 4727TIP3    H214127   3.273   4.972   3.129
 4728TIP3   OH214128   3.429   4.969   3.226
 4728TIP3    H114129   3.508   4.947   3.176
 4728TIP3    H214130   3.424   4.900   3.293
 4729TIP3   OH214131   2.558   6.150   1.297
 4729TIP3    H114132   2.556   6.148   1.393
 4729TIP3    H214133   2.640   6.105   1.274
 4730TIP3   OH214134   4.252   5.059   3.016
 4730TIP3    H114135   4.267   5.029   3.106
 4730TIP3    H214136   4.338   5.052   2.974
 4731TIP3   OH214137   4.172   6.592   2.518
 4731TIP3    H114138   4.096   6.561   2.468
 4731TIP3    H214139   4.157   6.686   2.528
 4732TIP3   OH214140   5.393   5.970   1.341
 4732TIP3    H114141   5.371   6.035   1.274
 4732TIP3    H214142   5.311   5.921   1.354
 4733TIP3   OH214143   5.449   5.959   1.685
 4733TIP3    H114144   5.497   5.938   1.765
 4733TIP3    H214145   5.405   5.878   1.661
 4734TIP3   OH214146   4.740   5.840   2.039
 4734TIP3    H114147   4.773   5.777   2.103
 4734TIP3    H214148   4.816   5.893   2.016
 4735TIP3   OH214149   5.741   6.280   1.439
 4735TIP3    H114150   5.719   6.199   1.484
 4735TIP3    H214151   5.834   6.271   1.416
 4736TIP3   OH214152   4.734   6.263   1.731
 4736TIP3    H114153   4.716   6.169   1.739
 4736TIP3    H214154   4.828   6.269   1.716
 4737TIP3   OH214155   4.424   5.476   1.497
 4737TIP3    H114156   4.380   5.556   1.525
 4737TIP3    H214157   4.354   5.422   1.461
 4738TIP3   OH214158   4.491   5.768   1.720
 4738TIP3    H114159   4.542   5.690   1.745
 4738TIP3    H214160   4.556   5.829   1.686
 4739TIP3   OH214161   5.323   6.688   1.409
 4739TIP3    H114162   5.400   6.650   1.365
 4739TIP3    H214163   5.252   6.627   1.389
 4740TIP3   OH214164   5.251   6.188   1.677
 4740TIP3    H114165   5.283   6.107   1.636
 4740TIP3    H214166   5.329   6.227   1.717
 4741TIP3   OH214167   6.276   5.511   1.712
 4741TIP3    H114168   6.294   5.594   1.756
 4741TIP3    H214169   6.322   5.519   1.628
 4742TIP3   OH214170   5.667   5.683   1.734
 4742TIP3    H114171   5.709   5.600   1.757
 4742TIP3    H214172   5.619   5.664   1.653
 4743TIP3   OH214173   5.000   5.340   1.696
 4743TIP3    H114174   4.984   5.411   1.633
 4743TIP3    H214175   4.958   5.264   1.657
 4744TIP3   OH214176   5.712   5.436   1.344
 4744TIP3    H114177   5.782   5.428   1.409
 4744TIP3    H214178   5.757   5.468   1.265
 4745TIP3   OH214179   4.637   5.548   1.803
 4745TIP3    H114180   4.717   5.530   1.852
 4745TIP3    H214181   4.645   5.498   1.722
 4746TIP3   OH214182   5.068   5.751   1.619
 4746TIP3    H114183   5.162   5.734   1.630
 4746TIP3    H214184   5.033   5.668   1.587
 4747TIP3   OH214185   6.341   5.729   1.870
 4747TIP3    H114186   6.252   5.763   1.871
 4747TIP3    H214187   6.381   5.765   1.949
 4748TIP3   OH214188   4.994   5.340   2.138
 4748TIP3    H114189   4.941   5.376   2.067
 4748TIP3    H214190   4.940   5.352   2.216
 4749TIP3   OH214191   5.314   6.121   1.129
 4749TIP3    H114192   5.327   6.129   1.034
 4749TIP3    H214193   5.270   6.202   1.154
 4750TIP3   OH214194   5.097   6.120   1.900
 4750TIP3    H114195   5.038   6.187   1.934
 4750TIP3    H214196   5.137   6.161   1.823
 4751TIP3   OH214197   5.897   5.456   1.541
 4751TIP3    H114198   5.855   5.441   1.625
 4751TIP3    H214199   5.951   5.534   1.554
 4752TIP3   OH214200   4.878   5.453   1.913
 4752TIP3    H114201   4.933   5.527   1.936
 4752TIP3    H214202   4.924   5.409   1.842
 4753TIP3   OH214203   4.929   6.313   2.007
 4753TIP3    H114204   4.914   6.402   1.974
 4753TIP3    H214205   4.851   6.293   2.059
 4754TIP3   OH214206   4.317   6.016   1.282
 4754TIP3    H114207   4.280   6.039   1.197
 4754TIP3    H214208   4.345   6.099   1.320
 4755TIP3   OH214209   5.731   6.532   1.540
 4755TIP3    H114210   5.735   6.445   1.500
 4755TIP3    H214211   5.783   6.588   1.482
 4756TIP3   OH214212   6.071   5.407   1.873
 4756TIP3    H114213   5.986   5.428   1.836
 4756TIP3    H214214   6.134   5.433   1.806
 4757TIP3   OH214215   5.330   5.031   1.859
 4757TIP3    H114216   5.326   4.939   1.887
 4757TIP3    H214217   5.256   5.072   1.902
 4758TIP3   OH214218   5.548   6.579   1.310
 4758TIP3    H114219   5.548   6.495   1.265
 4758TIP3    H214220   5.597   6.637   1.252
 4759TIP3   OH214221   5.569   6.315   1.220
 4759TIP3    H114222   5.647   6.290   1.172
 4759TIP3    H214223   5.590   6.299   1.311
 4760TIP3   OH214224   5.950   6.436   1.823
 4760TIP3    H114225   5.946   6.349   1.785
 4760TIP3    H214226   5.933   6.495   1.750
 4761TIP3   OH214227   5.223   5.795   1.120
 4761TIP3    H114228   5.161   5.868   1.129
 4761TIP3    H214229   5.294   5.831   1.067
 4762TIP3   OH214230   5.270   5.573   0.959
 4762TIP3    H114231   5.347   5.630   0.951
 4762TIP3    H214232   5.272   5.518   0.880
 4763TIP3   OH214233   6.172   6.067   1.722
 4763TIP3    H114234   6.088   6.113   1.728
 4763TIP3    H214235   6.205   6.088   1.635
 4764TIP3   OH214236   5.579   5.868   1.174
 4764TIP3    H114237   5.521   5.898   1.244
 4764TIP3    H214238   5.659   5.840   1.219
 4765TIP3   OH214239   5.863   5.929   2.016
 4765TIP3    H114240   5.866   6.010   2.066
 4765TIP3    H214241   5.779   5.932   1.970
 4766TIP3   OH214242   4.858   5.890   1.498
 4766TIP3    H114243   4.810   5.830   1.441
 4766TIP3    H214244   4.932   5.838   1.531
 4767TIP3   OH214245   4.993   6.303   1.625
 4767TIP3    H114246   4.960   6.295   1.536
 4767TIP3    H214247   5.081   6.266   1.622
 4768TIP3   OH214248   4.974   5.879   1.849
 4768TIP3    H114249   5.010   5.844   1.768
 4768TIP3    H214250   5.022   5.961   1.863
 4769TIP3   OH214251   5.460   6.500   1.666
 4769TIP3    H114252   5.369   6.513   1.690
 4769TIP3    H214253   5.484   6.416   1.704
 4770TIP3   OH214254   5.118   6.408   2.184
 4770TIP3    H114255   5.058   6.468   2.228
 4770TIP3    H214256   5.063   6.358   2.125
 4771TIP3   OH214257   5.442   5.784   0.946
 4771TIP3    H114258   5.507   5.807   1.012
 4771TIP3    H214259   5.463   5.840   0.871
 4772TIP3   OH214260   4.883   5.971   2.299
 4772TIP3    H114261   4.887   6.062   2.328
 4772TIP3    H214262   4.790   5.949   2.302
 4773TIP3   OH214263   5.186   6.489   1.279
 4773TIP3    H114264   5.254   6.456   1.220
 4773TIP3    H214265   5.130   6.542   1.222
 4774TIP3   OH214266   4.916   6.579   2.260
 4774TIP3    H114267   4.889   6.584   2.168
 4774TIP3    H214268   4.835   6.561   2.308
 4775TIP3   OH214269   5.975   5.018   1.004
 4775TIP3    H114270   5.894   5.027   1.054
 4775TIP3    H214271   5.981   5.098   0.952
 4776TIP3   OH214272   4.703   5.731   1.332
 4776TIP3    H114273   4.646   5.782   1.275
 4776TIP3    H214274   4.658   5.647   1.343
 4777TIP3   OH214275   4.513   6.131   2.209
 4777TIP3    H114276   4.443   6.114   2.146
 4777TIP3    H214277   4.546   6.044   2.232
 4778TIP3   OH214278   4.358   6.324   1.860
 4778TIP3    H114279   4.451   6.344   1.872
 4778TIP3    H214280   4.313   6.402   1.894
 4779TIP3   OH214281   6.227   6.744   1.928
 4779TIP3    H114282   6.223   6.648   1.932
 4779TIP3    H214283   6.202   6.772   2.016
 4780TIP3   OH214284   5.303   6.548   2.039
 4780TIP3    H114285   5.301   6.638   2.071
 4780TIP3    H214286   5.237   6.502   2.092
 4781TIP3   OH214287   5.095   6.665   1.079
 4781TIP3    H114288   5.037   6.604   1.035
 4781TIP3    H214289   5.043   6.744   1.092
 4782TIP3   OH214290   4.525   6.515   1.376
 4782TIP3    H114291   4.570   6.505   1.460
 4782TIP3    H214292   4.483   6.430   1.362
 4783TIP3   OH214293   5.325   6.540   0.807
 4783TIP3    H114294   5.410   6.529   0.764
 4783TIP3    H214295   5.344   6.525   0.900
 4784TIP3   OH214296   5.372   6.692   1.068
 4784TIP3    H114297   5.277   6.690   1.080
 4784TIP3    H214298   5.400   6.601   1.078
 4785TIP3   OH214299   6.108   5.883   2.179
 4785TIP3    H114300   6.027   5.893   2.129
 4785TIP3    H214301   6.128   5.790   2.174
 4786TIP3   OH214302   4.714   6.317   2.180
 4786TIP3    H114303   4.764   6.304   2.260
 4786TIP3    H214304   4.642   6.254   2.186
 4787TIP3   OH214305   5.100   5.127   1.989
 4787TIP3    H114306   5.016   5.093   1.959
 4787TIP3    H214307   5.077   5.206   2.038
 4788TIP3   OH214308   5.643   5.245   2.189
 4788TIP3    H114309   5.713   5.220   2.249
 4788TIP3    H214310   5.562   5.228   2.238
 4789TIP3   OH214311   5.860   5.664   2.104
 4789TIP3    H114312   5.821   5.662   2.191
 4789TIP3    H214313   5.848   5.754   2.074
 4790TIP3   OH214314   5.498   5.749   0.458
 4790TIP3    H114315   5.429   5.787   0.403
 4790TIP3    H214316   5.549   5.825   0.488
 4791TIP3   OH214317   5.231   5.186   0.969
 4791TIP3    H114318   5.192   5.193   1.056
 4791TIP3    H214319   5.203   5.101   0.937
 4792TIP3   OH214320   5.038   5.660   2.004
 4792TIP3    H114321   4.989   5.667   2.086
 4792TIP3    H214322   5.015   5.739   1.955
 4793TIP3   OH214323   4.933   5.532   1.513
 4793TIP3    H114324   4.841   5.507   1.519
 4793TIP3    H214325   4.956   5.516   1.421
 4794TIP3   OH214326   5.393   5.625   1.269
 4794TIP3    H114327   5.337   5.686   1.219
 4794TIP3    H214328   5.460   5.598   1.206
 4795TIP3   OH214329   5.581   5.882   2.322
 4795TIP3    H114330   5.555   5.814   2.384
 4795TIP3    H214331   5.673   5.898   2.342
 4796TIP3   OH214332   5.569   5.628   1.482
 4796TIP3    H114333   5.498   5.647   1.421
 4796TIP3    H214334   5.614   5.552   1.443
 4797TIP3   OH214335   4.869   5.669   2.221
 4797TIP3    H114336   4.880   5.731   2.293
 4797TIP3    H214337   4.851   5.585   2.264
 4798TIP3   OH214338   4.916   5.168   0.949
 4798TIP3    H114339   4.901   5.169   1.043
 4798TIP3    H214340   4.839   5.212   0.913
 4799TIP3   OH214341   4.456   5.196   1.792
 4799TIP3    H114342   4.532   5.226   1.841
 4799TIP3    H214343   4.492   5.166   1.709
 4800TIP3   OH214344   4.378   5.174   1.298
 4800TIP3    H114345   4.420   5.206   1.218
 4800TIP3    H214346   4.316   5.242   1.322
 4801TIP3   OH214347   5.603   5.883   1.904
 4801TIP3    H114348   5.633   5.816   1.842
 4801TIP3    H214349   5.564   5.833   1.976
 4802TIP3   OH214350   5.261   5.384   1.591
 4802TIP3    H114351   5.185   5.361   1.646
 4802TIP3    H214352   5.332   5.328   1.624
 4803TIP3   OH214353   4.683   5.413   1.560
 4803TIP3    H114354   4.593   5.431   1.533
 4803TIP3    H214355   4.694   5.319   1.547
 4804TIP3   OH214356   5.765   5.420   1.781
 4804TIP3    H114357   5.730   5.435   1.869
 4804TIP3    H214358   5.721   5.341   1.751
 4805TIP3   OH214359   4.873   6.232   2.411
 4805TIP3    H114360   4.953   6.250   2.460
 4805TIP3    H214361   4.803   6.236   2.476
 4806TIP3   OH214362   5.335   5.697   1.680
 4806TIP3    H114363   5.379   5.629   1.627
 4806TIP3    H214364   5.329   5.658   1.767
 4807TIP3   OH214365   4.879   5.132   1.552
 4807TIP3    H114366   4.821   5.073   1.600
 4807TIP3    H214367   4.959   5.082   1.539
 4808TIP3   OH214368   5.303   5.604   1.944
 4808TIP3    H114369   5.216   5.633   1.969
 4808TIP3    H214370   5.362   5.654   2.000
 4809TIP3   OH214371   4.982   5.914   1.113
 4809TIP3    H114372   4.895   5.911   1.073
 4809TIP3    H214373   4.970   5.969   1.191
 4810TIP3   OH214374   5.928   6.195   1.688
 4810TIP3    H114375   5.952   6.230   1.602
 4810TIP3    H214376   5.847   6.146   1.672
 4811TIP3   OH214377   5.486   5.280   0.999
 4811TIP3    H114378   5.395   5.258   0.979
 4811TIP3    H214379   5.503   5.361   0.951
 4812TIP3   OH214380   5.498   6.351   2.056
 4812TIP3    H114381   5.493   6.320   2.147
 4812TIP3    H214382   5.430   6.418   2.050
 4813TIP3   OH214383   5.585   5.564   1.084
 4813TIP3    H114384   5.679   5.547   1.096
 4813TIP3    H214385   5.573   5.563   0.989
 4814TIP3   OH214386   4.733   5.977   1.728
 4814TIP3    H114387   4.770   5.958   1.641
 4814TIP3    H214388   4.795   5.937   1.789
 4815TIP3   OH214389   5.121   6.047   0.908
 4815TIP3    H114390   5.124   6.131   0.953
 4815TIP3    H214391   5.070   5.990   0.966
 4816TIP3   OH214392   4.613   5.899   2.340
 4816TIP3    H114393   4.616   5.874   2.432
 4816TIP3    H214394   4.539   5.851   2.304
 4817TIP3   OH214395   5.349   6.039   2.359
 4817TIP3    H114396   5.279   5.979   2.333
 4817TIP3    H214397   5.430   5.995   2.332
 4818TIP3   OH214398   5.953   5.631   0.881
 4818TIP3    H114399   5.935   5.594   0.795
 4818TIP3    H214400   5.938   5.725   0.871
 4819TIP3   OH214401   6.208   6.461   1.929
 4819TIP3    H114402   6.113   6.464   1.914
 4819TIP3    H214403   6.244   6.438   1.843
 4820TIP3   OH214404   5.774   6.452   0.730
 4820TIP3    H114405   5.746   6.377   0.783
 4820TIP3    H214406   5.692   6.497   0.707
 4821TIP3   OH214407   5.698   6.054   1.588
 4821TIP3    H114408   5.606   6.033   1.603
 4821TIP3    H214409   5.735   5.974   1.550
 4822TIP3   OH214410   4.838   6.317   1.390
 4822TIP3    H114411   4.840   6.399   1.341
 4822TIP3    H214412   4.746   6.293   1.392
 4823TIP3   OH214413   4.417   5.592   1.114
 4823TIP3    H114414   4.449   5.682   1.116
 4823TIP3    H214415   4.331   5.596   1.156
 4824TIP3   OH214416   4.945   6.080   1.318
 4824TIP3    H114417   4.918   6.168   1.344
 4824TIP3    H214418   4.914   6.024   1.389
 4825TIP3   OH214419   5.135   6.628   1.829
 4825TIP3    H114420   5.174   6.704   1.786
 4825TIP3    H214421   5.202   6.597   1.889
 4826TIP3   OH214422   4.764   6.544   1.251
 4826TIP3    H114423   4.676   6.550   1.287
 4826TIP3    H214424   4.796   6.635   1.251
 4827TIP3   OH214425   5.494   6.259   1.795
 4827TIP3    H114426   5.499   6.277   1.889
 4827TIP3    H214427   5.552   6.183   1.782
 4828TIP3   OH214428   5.518   6.215   0.595
 4828TIP3    H114429   5.490   6.127   0.621
 4828TIP3    H214430   5.451   6.245   0.534
 4829TIP3   OH214431   4.819   5.418   2.343
 4829TIP3    H114432   4.724   5.428   2.349
 4829TIP3    H214433   4.843   5.367   2.421
 4830TIP3   OH214434   5.627   6.063   0.983
 4830TIP3    H114435   5.570   6.035   1.055
 4830TIP3    H214436   5.682   5.986   0.965
 4831TIP3   OH214437   4.562   6.520   1.993
 4831TIP3    H114438   4.614   6.457   2.043
 4831TIP3    H214439   4.575   6.603   2.039
 4832TIP3   OH214440   4.930   6.228   0.781
 4832TIP3    H114441   4.924   6.151   0.724
 4832TIP3    H214442   4.904   6.197   0.867
 4833TIP3   OH214443   4.830   6.145   1.023
 4833TIP3    H114444   4.880   6.141   1.105
 4833TIP3    H214445   4.761   6.208   1.041
 4834TIP3   OH214446   4.511   5.855   1.165
 4834TIP3    H114447   4.449   5.894   1.226
 4834TIP3    H214448   4.514   5.917   1.092
 4835TIP3   OH214449   5.673   5.472   2.034
 4835TIP3    H114450   5.747   5.520   2.069
 4835TIP3    H214451   5.663   5.397   2.093
 4836TIP3   OH214452   5.558   5.225   1.253
 4836TIP3    H114453   5.527   5.250   1.166
 4836TIP3    H214454   5.601   5.304   1.286
 4837TIP3   OH214455   5.117   6.316   0.983
 4837TIP3    H114456   5.040   6.371   1.000
 4837TIP3    H214457   5.121   6.310   0.888
 4838TIP3   OH214458   5.190   5.444   1.333
 4838TIP3    H114459   5.259   5.503   1.301
 4838TIP3    H214460   5.213   5.427   1.424
 4839TIP3   OH214461   5.510   5.716   2.099
 4839TIP3    H114462   5.532   5.758   2.182
 4839TIP3    H214463   5.558   5.633   2.101
 4840TIP3   OH214464   5.370   5.112   1.413
 4840TIP3    H114465   5.395   5.155   1.494
 4840TIP3    H214466   5.431   5.146   1.347
 4841TIP3   OH214467   4.655   6.337   1.097
 4841TIP3    H114468   4.585   6.372   1.043
 4841TIP3    H214469   4.699   6.414   1.133
 4842TIP3   OH214470   4.885   5.127   1.226
 4842TIP3    H114471   4.857   5.148   1.315
 4842TIP3    H214472   4.980   5.137   1.227
 4843TIP3   OH214473   6.125   5.609   2.086
 4843TIP3    H114474   6.031   5.619   2.098
 4843TIP3    H214475   6.135   5.549   2.013
 4844TIP3   OH214476   5.788   5.811   1.487
 4844TIP3    H114477   5.712   5.754   1.500
 4844TIP3    H214478   5.856   5.773   1.542
 4845TIP3   OH214479   4.503   6.073   0.975
 4845TIP3    H114480   4.506   6.169   0.984
 4845TIP3    H214481   4.588   6.051   0.935
 4846TIP3   OH214482   4.449   5.322   1.073
 4846TIP3    H114483   4.453   5.414   1.101
 4846TIP3    H214484   4.386   5.322   1.000
 4847TIP3   OH214485   5.753   6.802   1.467
 4847TIP3    H114486   5.717   6.859   1.399
 4847TIP3    H214487   5.848   6.813   1.458
 4848TIP3   OH214488   4.841   5.037   1.949
 4848TIP3    H114489   4.810   5.003   1.865
 4848TIP3    H214490   4.831   4.963   2.009
 4849TIP3   OH214491   4.381   6.271   1.382
 4849TIP3    H114492   4.345   6.311   1.461
 4849TIP3    H214493   4.332   6.311   1.310
 4850TIP3   OH214494   4.554   6.830   2.413
 4850TIP3    H114495   4.637   6.831   2.462
 4850TIP3    H214496   4.532   6.737   2.405
 4851TIP3   OH214497   5.022   6.749   2.448
 4851TIP3    H114498   5.110   6.713   2.462
 4851TIP3    H214499   4.984   6.694   2.379
 4852TIP3   OH214500   4.966   6.423   0.569
 4852TIP3    H114501   4.894   6.362   0.585
 4852TIP3    H214502   5.018   6.381   0.500
 4853TIP3   OH214503   5.707   6.725   2.193
 4853TIP3    H114504   5.627   6.695   2.148
 4853TIP3    H214505   5.737   6.648   2.241
 4854TIP3   OH214506   4.667   6.229   2.598
 4854TIP3    H114507   4.686   6.136   2.608
 4854TIP3    H214508   4.579   6.232   2.558
 4855TIP3   OH214509   4.710   5.829   0.953
 4855TIP3    H114510   4.654   5.800   1.025
 4855TIP3    H214511   4.669   5.794   0.875
 4856TIP3   OH214512   5.288   6.315   2.378
 4856TIP3    H114513   5.233   6.332   2.302
 4856TIP3    H214514   5.318   6.225   2.367
 4857TIP3   OH214515   5.111   6.048   0.630
 4857TIP3    H114516   5.126   6.065   0.723
 4857TIP3    H214517   5.101   5.953   0.624
 4858TIP3   OH214518   5.766   6.311   2.001
 4858TIP3    H114519   5.809   6.374   1.943
 4858TIP3    H214520   5.676   6.343   2.007
 4859TIP3   OH214521   4.786   5.976   2.606
 4859TIP3    H114522   4.864   5.941   2.562
 4859TIP3    H214523   4.815   5.995   2.695
 4860TIP3   OH214524   5.140   5.861   2.267
 4860TIP3    H114525   5.053   5.901   2.273
 4860TIP3    H214526   5.173   5.886   2.181
 4861TIP3   OH214527   4.979   5.532   0.950
 4861TIP3    H114528   4.886   5.543   0.931
 4861TIP3    H214529   5.018   5.506   0.866
 4862TIP3   OH214530   5.648   6.258   2.355
 4862TIP3    H114531   5.722   6.219   2.309
 4862TIP3    H214532   5.635   6.203   2.432
 4863TIP3   OH214533   5.728   5.885   0.546
 4863TIP3    H114534   5.753   5.812   0.490
 4863TIP3    H214535   5.759   5.963   0.499
 4864TIP3   OH214536   5.245   5.629   2.372
 4864TIP3    H114537   5.246   5.557   2.309
 4864TIP3    H214538   5.208   5.703   2.324
 4865TIP3   OH214539   5.253   5.426   2.171
 4865TIP3    H114540   5.278   5.462   2.086
 4865TIP3    H214541   5.162   5.399   2.160
 4866TIP3   OH214542   5.259   5.948   2.040
 4866TIP3    H114543   5.347   5.956   2.003
 4866TIP3    H214544   5.206   6.012   1.992
 4867TIP3   OH214545   5.849   5.909   2.422
 4867TIP3    H114546   5.878   5.819   2.436
 4867TIP3    H214547   5.927   5.956   2.395
 4868TIP3   OH214548   5.906   6.160   2.169
 4868TIP3    H114549   5.850   6.215   2.114
 4868TIP3    H214550   5.995   6.176   2.137
 4869TIP3   OH214551   5.129   5.715   2.615
 4869TIP3    H114552   5.060   5.652   2.638
 4869TIP3    H214553   5.157   5.690   2.527
 4870TIP3   OH214554   5.377   5.192   2.268
 4870TIP3    H114555   5.334   5.272   2.238
 4870TIP3    H214556   5.310   5.124   2.257
 4871TIP3   OH214557   5.501   5.669   2.473
 4871TIP3    H114558   5.491   5.655   2.568
 4871TIP3    H214559   5.414   5.647   2.438
 4872TIP3   OH214560   5.747   5.625   2.345
 4872TIP3    H114561   5.668   5.623   2.399
 4872TIP3    H214562   5.816   5.595   2.403
 4873TIP3   OH214563   5.982   5.584   2.493
 4873TIP3    H114564   5.996   5.489   2.501
 4873TIP3    H214565   5.978   5.615   2.583
 4874TIP3   OH214566   4.966   5.493   2.678
 4874TIP3    H114567   4.971   5.404   2.642
 4874TIP3    H214568   5.004   5.485   2.766
 4875TIP3   OH214569   5.447   5.176   2.534
 4875TIP3    H114570   5.516   5.109   2.530
 4875TIP3    H214571   5.416   5.183   2.444
 4876TIP3   OH214572   5.539   5.392   2.678
 4876TIP3    H114573   5.510   5.319   2.624
 4876TIP3    H214574   5.465   5.453   2.679
 4877TIP3   OH214575   4.782   6.572   0.703
 4877TIP3    H114576   4.842   6.563   0.629
 4877TIP3    H214577   4.699   6.597   0.663
 4878TIP3   OH214578   4.233   6.025   1.013
 4878TIP3    H114579   4.324   6.042   0.988
 4878TIP3    H214580   4.213   5.940   0.973
 4879TIP3   OH214581   4.152   6.598   1.440
 4879TIP3    H114582   4.090   6.543   1.392
 4879TIP3    H214583   4.203   6.536   1.492
 4880TIP3   OH214584   4.307   6.433   1.602
 4880TIP3    H114585   4.297   6.370   1.674
 4880TIP3    H214586   4.357   6.505   1.641
 4881TIP3   OH214587   6.022   6.849   1.450
 4881TIP3    H114588   6.041   6.943   1.454
 4881TIP3    H214589   6.092   6.813   1.396
 4882TIP3   OH214590   6.048   6.875   1.736
 4882TIP3    H114591   6.054   6.845   1.646
 4882TIP3    H214592   6.121   6.832   1.781
 4883TIP3   OH214593   6.104   6.572   2.246
 4883TIP3    H114594   6.035   6.587   2.311
 4883TIP3    H214595   6.150   6.655   2.240
 4884TIP3   OH214596   5.927   6.093   0.926
 4884TIP3    H114597   5.975   6.163   0.882
 4884TIP3    H214598   5.981   6.071   1.001
 4885TIP3   OH214599   6.029   5.998   1.150
 4885TIP3    H114600   5.977   5.940   1.204
 4885TIP3    H214601   6.112   6.008   1.198
 4886TIP3   OH214602   6.021   6.290   1.449
 4886TIP3    H114603   6.105   6.246   1.456
 4886TIP3    H214604   6.041   6.376   1.411
 4887TIP3   OH214605   5.934   5.910   0.724
 4887TIP3    H114606   5.852   5.919   0.676
 4887TIP3    H214607   5.935   5.982   0.786
 4888TIP3   OH214608   5.887   5.512   0.650
 4888TIP3    H114609   5.859   5.572   0.581
 4888TIP3    H214610   5.850   5.427   0.624
 4889TIP3   OH214611   5.879   5.783   1.233
 4889TIP3    H114612   5.878   5.689   1.217
 4889TIP3    H214613   5.855   5.792   1.326
 4890TIP3   OH214614   4.478   5.872   1.973
 4890TIP3    H114615   4.469   5.838   1.883
 4890TIP3    H214616   4.572   5.869   1.990
 4891TIP3   OH214617   6.152   6.223   2.067
 4891TIP3    H114618   6.219   6.156   2.053
 4891TIP3    H214619   6.177   6.295   2.010
 4892TIP3   OH214620   6.325   6.012   2.073
 4892TIP3    H114621   6.249   5.969   2.113
 4892TIP3    H214622   6.398   5.951   2.088
 4893TIP3   OH214623   5.776   5.264   0.665
 4893TIP3    H114624   5.845   5.215   0.620
 4893TIP3    H214625   5.747   5.206   0.734
 4894TIP3   OH214626   5.858   5.530   1.120
 4894TIP3    H114627   5.896   5.443   1.129
 4894TIP3    H214628   5.889   5.561   1.035
 4895TIP3   OH214629   6.007   5.699   1.615
 4895TIP3    H114630   6.089   5.722   1.570
 4895TIP3    H214631   6.019   5.731   1.704
 4896TIP3   OH214632   6.080   5.838   1.846
 4896TIP3    H114633   6.007   5.869   1.900
 4896TIP3    H214634   6.114   5.917   1.804
 4897TIP3   OH214635   4.702   5.554   2.624
 4897TIP3    H114636   4.796   5.550   2.641
 4897TIP3    H214637   4.667   5.472   2.660
 4898TIP3   OH214638   6.543   5.444   2.382
 4898TIP3    H114639   6.606   5.386   2.340
 4898TIP3    H214640   6.503   5.492   2.309
 4899TIP3   OH214641   5.945   5.279   1.182
 4899TIP3    H114642   5.992   5.260   1.263
 4899TIP3    H214643   5.881   5.208   1.174
 4900TIP3   OH214644   4.674   5.259   1.951
 4900TIP3    H114645   4.729   5.181   1.964
 4900TIP3    H214646   4.736   5.332   1.948
 4901TIP3   OH214647   4.458   5.520   2.026
 4901TIP3    H114648   4.506   5.513   1.944
 4901TIP3    H214649   4.485   5.604   2.063
 4902TIP3   OH214650   6.391   5.554   2.184
 4902TIP3    H114651   6.311   5.596   2.216
 4902TIP3    H214652   6.361   5.482   2.129
 4903TIP3   OH214653   5.977   5.295   0.869
 4903TIP3    H114654   5.978   5.222   0.808
 4903TIP3    H214655   5.946   5.369   0.817
 4904TIP3   OH214656   4.444   5.049   1.533
 4904TIP3    H114657   4.357   5.031   1.569
 4904TIP3    H214658   4.426   5.098   1.453
 4905TIP3   OH214659   5.693   6.758   1.155
 4905TIP3    H114660   5.782   6.760   1.120
 4905TIP3    H214661   5.678   6.847   1.187
 4906TIP3   OH214662   4.664   5.098   2.354
 4906TIP3    H114663   4.613   5.090   2.435
 4906TIP3    H214664   4.605   5.145   2.295
 4907TIP3   OH214665   4.698   6.546   2.430
 4907TIP3    H114666   4.604   6.530   2.419
 4907TIP3    H214667   4.713   6.531   2.524
 4908TIP3   OH214668   4.903   6.589   1.976
 4908TIP3    H114669   4.848   6.660   1.943
 4908TIP3    H214670   4.986   6.600   1.930
 4909TIP3   OH214671   5.323   6.812   2.118
 4909TIP3    H114672   5.369   6.803   2.201
 4909TIP3    H214673   5.383   6.863   2.063
 4910TIP3   OH214674   6.301   5.307   2.078
 4910TIP3    H114675   6.212   5.294   2.045
 4910TIP3    H214676   6.342   5.221   2.072
 4911TIP3   OH214677   4.561   6.840   2.026
 4911TIP3    H114678   4.470   6.858   2.002
 4911TIP3    H214679   4.583   6.907   2.090
 4912TIP3   OH214680   4.786   6.814   1.872
 4912TIP3    H114681   4.704   6.824   1.920
 4912TIP3    H214682   4.766   6.843   1.783
 4913TIP3   OH214683   5.237   6.843   1.690
 4913TIP3    H114684   5.175   6.849   1.618
 4913TIP3    H214685   5.242   6.931   1.725
 4914TIP3   OH214686   5.508   6.790   1.658
 4914TIP3    H114687   5.416   6.814   1.664
 4914TIP3    H214688   5.556   6.871   1.674
 4915TIP3   OH214689   5.691   6.997   1.662
 4915TIP3    H114690   5.673   7.079   1.616
 4915TIP3    H214691   5.721   6.937   1.594
 4916TIP3   OH214692   4.476   6.618   1.747
 4916TIP3    H114693   4.503   6.591   1.835
 4916TIP3    H214694   4.546   6.585   1.690
 4917TIP3   OH214695   4.674   6.499   1.607
 4917TIP3    H114696   4.686   6.415   1.651
 4917TIP3    H214697   4.762   6.539   1.607
 4918TIP3   OH214698   4.944   6.577   1.633
 4918TIP3    H114699   4.961   6.484   1.618
 4918TIP3    H214700   5.002   6.601   1.705
 4919TIP3   OH214701   5.457   5.198   1.661
 4919TIP3    H114702   5.434   5.142   1.736
 4919TIP3    H214703   5.550   5.181   1.646
 4920TIP3   OH214704   6.010   5.159   1.621
 4920TIP3    H114705   6.048   5.203   1.545
 4920TIP3    H214706   5.917   5.180   1.617
 4921TIP3   OH214707   6.122   5.215   1.380
 4921TIP3    H114708   6.191   5.153   1.355
 4921TIP3    H214709   6.163   5.301   1.370
 4922TIP3   OH214710   4.751   4.937   1.706
 4922TIP3    H114711   4.661   4.908   1.715
 4922TIP3    H214712   4.802   4.857   1.701
 4923TIP3   OH214713   4.567   4.845   1.368
 4923TIP3    H114714   4.592   4.892   1.288
 4923TIP3    H214715   4.532   4.913   1.425
 4924TIP3   OH214716   5.187   4.998   1.598
 4924TIP3    H114717   5.242   5.033   1.529
 4924TIP3    H214718   5.236   5.015   1.679
 4925TIP3   OH214719   5.723   5.138   1.598
 4925TIP3    H114720   5.736   5.110   1.508
 4925TIP3    H214721   5.728   5.057   1.649
 4926TIP3   OH214722   5.770   5.067   1.177
 4926TIP3    H114723   5.688   5.113   1.195
 4926TIP3    H214724   5.758   4.981   1.215
 4927TIP3   OH214725   4.240   6.398   1.196
 4927TIP3    H114726   4.162   6.361   1.155
 4927TIP3    H214727   4.248   6.485   1.158
 4928TIP3   OH214728   4.674   4.969   1.129
 4928TIP3    H114729   4.715   4.905   1.070
 4928TIP3    H214730   4.746   5.023   1.160
 4929TIP3   OH214731   5.153   5.189   1.240
 4929TIP3    H114732   5.220   5.147   1.294
 4929TIP3    H214733   5.159   5.282   1.261
 4930TIP3   OH214734   5.073   6.626   0.752
 4930TIP3    H114735   5.164   6.598   0.765
 4930TIP3    H214736   5.036   6.558   0.695
 4931TIP3   OH214737   5.793   6.713   0.787
 4931TIP3    H114738   5.821   6.623   0.768
 4931TIP3    H214739   5.764   6.747   0.703
 4932TIP3   OH214740   4.976   5.221   2.593
 4932TIP3    H114741   4.940   5.155   2.652
 4932TIP3    H214742   5.068   5.228   2.617
 4933TIP3   OH214743   5.225   5.225   2.714
 4933TIP3    H114744   5.304   5.202   2.665
 4933TIP3    H214745   5.217   5.156   2.780
 4934TIP3   OH214746   4.425   6.386   0.929
 4934TIP3    H114747   4.356   6.449   0.905
 4934TIP3    H214748   4.472   6.371   0.847
 4935TIP3   OH214749   6.048   5.314   2.504
 4935TIP3    H114750   6.064   5.283   2.593
 4935TIP3    H214751   6.134   5.308   2.461
 4936TIP3   OH214752   7.107   6.144   1.321
 4936TIP3    H114753   7.186   6.197   1.315
 4936TIP3    H214754   7.138   6.054   1.307
 4937TIP3   OH214755   6.508   6.086   1.572
 4937TIP3    H114756   6.545   6.026   1.636
 4937TIP3    H214757   6.582   6.113   1.519
 4938TIP3   OH214758   6.413   6.501   1.367
 4938TIP3    H114759   6.445   6.412   1.351
 4938TIP3    H214760   6.437   6.550   1.288
 4939TIP3   OH214761   6.168   5.741   1.082
 4939TIP3    H114762   6.208   5.811   1.031
 4939TIP3    H214763   6.096   5.783   1.129
 4940TIP3   OH214764   6.272   6.012   1.267
 4940TIP3    H114765   6.324   5.932   1.281
 4940TIP3    H214766   6.314   6.055   1.193
 4941TIP3   OH214767   7.110   6.472   1.128
 4941TIP3    H114768   7.070   6.396   1.086
 4941TIP3    H214769   7.043   6.504   1.188
 4942TIP3   OH214770   8.084   5.784   1.219
 4942TIP3    H114771   8.160   5.835   1.248
 4942TIP3    H214772   8.034   5.845   1.165
 4943TIP3   OH214773   7.529   5.880   1.297
 4943TIP3    H114774   7.573   5.831   1.367
 4943TIP3    H214775   7.515   5.815   1.228
 4944TIP3   OH214776   6.822   5.543   1.263
 4944TIP3    H114777   6.841   5.601   1.189
 4944TIP3    H214778   6.766   5.475   1.226
 4945TIP3   OH214779   7.500   5.734   0.813
 4945TIP3    H114780   7.591   5.711   0.832
 4945TIP3    H214781   7.498   5.746   0.718
 4946TIP3   OH214782   6.412   5.785   1.315
 4946TIP3    H114783   6.504   5.773   1.339
 4946TIP3    H214784   6.397   5.719   1.247
 4947TIP3   OH214785   6.825   5.983   1.221
 4947TIP3    H114786   6.906   6.006   1.177
 4947TIP3    H214787   6.771   5.943   1.153
 4948TIP3   OH214788   6.788   5.589   1.633
 4948TIP3    H114789   6.735   5.626   1.563
 4948TIP3    H214790   6.736   5.602   1.712
 4949TIP3   OH214791   6.893   6.333   1.487
 4949TIP3    H114792   6.824   6.384   1.530
 4949TIP3    H214793   6.942   6.397   1.436
 4950TIP3   OH214794   7.715   5.832   1.057
 4950TIP3    H114795   7.720   5.742   1.025
 4950TIP3    H214796   7.804   5.866   1.051
 4951TIP3   OH214797   6.658   5.699   1.413
 4951TIP3    H114798   6.715   5.774   1.434
 4951TIP3    H214799   6.712   5.644   1.356
 4952TIP3   OH214800   6.728   6.540   1.551
 4952TIP3    H114801   6.717   6.603   1.480
 4952TIP3    H214802   6.644   6.542   1.598
 4953TIP3   OH214803   6.144   6.199   0.791
 4953TIP3    H114804   6.102   6.244   0.718
 4953TIP3    H214805   6.144   6.263   0.862
 4954TIP3   OH214806   7.953   5.655   1.445
 4954TIP3    H114807   7.884   5.718   1.426
 4954TIP3    H214808   8.015   5.665   1.372
 4955TIP3   OH214809   7.147   5.332   1.398
 4955TIP3    H114810   7.146   5.254   1.343
 4955TIP3    H214811   7.058   5.338   1.434
 4956TIP3   OH214812   7.994   6.288   1.176
 4956TIP3    H114813   7.928   6.325   1.117
 4956TIP3    H214814   8.074   6.286   1.123
 4957TIP3   OH214815   7.622   6.182   1.589
 4957TIP3    H114816   7.646   6.253   1.649
 4957TIP3    H214817   7.526   6.181   1.591
 4958TIP3   OH214818   6.667   6.199   1.034
 4958TIP3    H114819   6.616   6.142   0.977
 4958TIP3    H214820   6.744   6.147   1.057
 4959TIP3   OH214821   6.716   6.457   1.237
 4959TIP3    H114822   6.642   6.396   1.239
 4959TIP3    H214823   6.683   6.534   1.192
 4960TIP3   OH214824   6.722   6.137   1.410
 4960TIP3    H114825   6.762   6.092   1.335
 4960TIP3    H214826   6.788   6.201   1.437
 4961TIP3   OH214827   7.416   6.821   1.151
 4961TIP3    H114828   7.344   6.815   1.088
 4961TIP3    H214829   7.385   6.772   1.227
 4962TIP3   OH214830   6.929   6.666   1.691
 4962TIP3    H114831   6.875   6.723   1.746
 4962TIP3    H214832   6.865   6.612   1.644
 4963TIP3   OH214833   6.677   6.234   1.816
 4963TIP3    H114834   6.673   6.328   1.834
 4963TIP3    H214835   6.586   6.208   1.804
 4964TIP3   OH214836   6.732   6.815   1.811
 4964TIP3    H114837   6.684   6.826   1.729
 4964TIP3    H214838   6.663   6.801   1.877
 4965TIP3   OH214839   6.549   6.074   0.825
 4965TIP3    H114840   6.486   6.101   0.757
 4965TIP3    H214841   6.544   5.979   0.825
 4966TIP3   OH214842   6.306   6.363   1.694
 4966TIP3    H114843   6.289   6.329   1.606
 4966TIP3    H214844   6.349   6.291   1.739
 4967TIP3   OH214845   7.119   6.802   1.548
 4967TIP3    H114846   7.139   6.887   1.586
 4967TIP3    H214847   7.052   6.765   1.605
 4968TIP3   OH214848   6.367   6.693   0.876
 4968TIP3    H114849   6.459   6.716   0.863
 4968TIP3    H214850   6.321   6.777   0.878
 4969TIP3   OH214851   7.926   6.183   1.668
 4969TIP3    H114852   7.845   6.181   1.618
 4969TIP3    H214853   7.957   6.093   1.668
 4970TIP3   OH214854   6.497   6.558   1.689
 4970TIP3    H114855   6.541   6.546   1.773
 4970TIP3    H214856   6.424   6.497   1.691
 4971TIP3   OH214857   6.885   5.363   1.493
 4971TIP3    H114858   6.799   5.337   1.459
 4971TIP3    H214859   6.870   5.449   1.533
 4972TIP3   OH214860   7.444   5.503   1.700
 4972TIP3    H114861   7.515   5.475   1.757
 4972TIP3    H214862   7.364   5.482   1.749
 4973TIP3   OH214863   7.679   5.910   1.608
 4973TIP3    H114864   7.639   5.893   1.694
 4973TIP3    H214865   7.662   6.002   1.591
 4974TIP3   OH214866   6.823   5.894   1.515
 4974TIP3    H114867   6.774   5.905   1.596
 4974TIP3    H214868   6.799   5.971   1.462
 4975TIP3   OH214869   6.748   5.922   0.972
 4975TIP3    H114870   6.703   5.841   0.997
 4975TIP3    H214871   6.763   5.913   0.878
 4976TIP3   OH214872   7.404   6.142   1.842
 4976TIP3    H114873   7.372   6.070   1.896
 4976TIP3    H214874   7.498   6.146   1.862
 4977TIP3   OH214875   7.296   5.882   0.901
 4977TIP3    H114876   7.344   5.956   0.938
 4977TIP3    H214877   7.362   5.832   0.854
 4978TIP3   OH214878   6.650   5.911   1.732
 4978TIP3    H114879   6.720   5.958   1.779
 4978TIP3    H214880   6.641   5.829   1.779
 4979TIP3   OH214881   6.258   5.439   1.328
 4979TIP3    H114882   6.312   5.466   1.402
 4979TIP3    H214883   6.292   5.488   1.253
 4980TIP3   OH214884   6.212   5.445   0.718
 4980TIP3    H114885   6.257   5.522   0.683
 4980TIP3    H214886   6.182   5.472   0.805
 4981TIP3   OH214887   7.348   6.195   1.541
 4981TIP3    H114888   7.361   6.183   1.448
 4981TIP3    H214889   7.334   6.107   1.576
 4982TIP3   OH214890   7.091   5.538   1.183
 4982TIP3    H114891   7.008   5.526   1.229
 4982TIP3    H214892   7.151   5.569   1.251
 4983TIP3   OH214893   6.388   5.571   1.131
 4983TIP3    H114894   6.308   5.606   1.091
 4983TIP3    H214895   6.416   5.502   1.071
 4984TIP3   OH214896   6.750   5.741   0.722
 4984TIP3    H114897   6.845   5.748   0.717
 4984TIP3    H214898   6.723   5.723   0.632
 4985TIP3   OH214899   7.562   5.554   1.338
 4985TIP3    H114900   7.533   5.598   1.418
 4985TIP3    H214901   7.487   5.501   1.310
 4986TIP3   OH214902   6.641   6.490   1.910
 4986TIP3    H114903   6.721   6.526   1.948
 4986TIP3    H214904   6.577   6.494   1.981
 4987TIP3   OH214905   7.208   5.904   1.221
 4987TIP3    H114906   7.287   5.854   1.200
 4987TIP3    H214907   7.174   5.861   1.300
 4988TIP3   OH214908   6.661   5.407   1.093
 4988TIP3    H114909   6.601   5.336   1.117
 4988TIP3    H214910   6.702   5.377   1.012
 4989TIP3   OH214911   7.093   5.864   1.469
 4989TIP3    H114912   7.002   5.887   1.485
 4989TIP3    H214913   7.143   5.916   1.532
 4990TIP3   OH214914   7.765   6.408   1.100
 4990TIP3    H114915   7.721   6.494   1.100
 4990TIP3    H214916   7.731   6.365   1.178
 4991TIP3   OH214917   7.233   6.523   1.587
 4991TIP3    H114918   7.278   6.490   1.665
 4991TIP3    H214919   7.184   6.599   1.617
 4992TIP3   OH214920   6.510   6.259   1.284
 4992TIP3    H114921   6.479   6.208   1.209
 4992TIP3    H214922   6.576   6.202   1.325
 4993TIP3   OH214923   6.405   6.162   1.853
 4993TIP3    H114924   6.413   6.127   1.942
 4993TIP3    H214925   6.339   6.107   1.811
 4994TIP3   OH214926   7.175   6.298   1.853
 4994TIP3    H114927   7.123   6.259   1.783
 4994TIP3    H214928   7.263   6.262   1.840
 4995TIP3   OH214929   7.483   6.890   1.496
 4995TIP3    H114930   7.402   6.923   1.456
 4995TIP3    H214931   7.474   6.910   1.589
 4996TIP3   OH214932   7.465   6.334   1.118
 4996TIP3    H114933   7.378   6.317   1.154
 4996TIP3    H214934   7.454   6.324   1.024
 4997TIP3   OH214935   6.599   6.556   0.817
 4997TIP3    H114936   6.678   6.611   0.819
 4997TIP3    H214937   6.588   6.528   0.907
 4998TIP3   OH214938   6.225   5.875   0.385
 4998TIP3    H114939   6.214   5.968   0.403
 4998TIP3    H214940   6.160   5.832   0.440
 4999TIP3   OH214941   6.746   6.293   0.771
 4999TIP3    H114942   6.758   6.366   0.831
 4999TIP3    H214943   6.709   6.223   0.825
 5000TIP3   OH214944   6.959   6.883   1.342
 5000TIP3    H114945   7.004   6.934   1.274
 5000TIP3    H214946   7.027   6.861   1.405
 5001TIP3   OH214947   7.366   6.627   1.373
 5001TIP3    H114948   7.318   6.612   1.455
 5001TIP3    H214949   7.374   6.540   1.334
 5002TIP3   OH214950   6.621   5.657   1.845
 5002TIP3    H114951   6.526   5.664   1.848
 5002TIP3    H214952   6.644   5.603   1.921
 5003TIP3   OH214953   6.332   6.721   1.507
 5003TIP3    H114954   6.363   6.637   1.474
 5003TIP3    H214955   6.394   6.743   1.577
 5004TIP3   OH214956   6.371   6.151   0.638
 5004TIP3    H114957   6.294   6.171   0.692
 5004TIP3    H214958   6.415   6.236   0.628
 5005TIP3   OH214959   7.472   5.722   1.544
 5005TIP3    H114960   7.547   5.773   1.577
 5005TIP3    H214961   7.461   5.652   1.608
 5006TIP3   OH214962   7.058   5.596   0.772
 5006TIP3    H114963   7.125   5.637   0.717
 5006TIP3    H214964   7.069   5.638   0.857
 5007TIP3   OH214965   7.311   5.942   1.630
 5007TIP3    H114966   7.338   5.959   1.721
 5007TIP3    H214967   7.358   5.863   1.605
 5008TIP3   OH214968   7.128   5.369   0.966
 5008TIP3    H114969   7.121   5.419   1.048
 5008TIP3    H214970   7.192   5.418   0.913
 5009TIP3   OH214971   6.736   5.404   0.643
 5009TIP3    H114972   6.665   5.467   0.653
 5009TIP3    H214973   6.751   5.371   0.732
 5010TIP3   OH214974   7.961   5.922   1.585
 5010TIP3    H114975   7.868   5.904   1.594
 5010TIP3    H214976   8.002   5.836   1.578
 5011TIP3   OH214977   7.684   5.997   0.835
 5011TIP3    H114978   7.678   5.925   0.897
 5011TIP3    H214979   7.687   6.076   0.890
 5012TIP3   OH214980   6.309   5.685   0.627
 5012TIP3    H114981   6.290   5.777   0.644
 5012TIP3    H214982   6.266   5.668   0.543
 5013TIP3   OH214983   6.619   5.299   1.441
 5013TIP3    H114984   6.587   5.269   1.356
 5013TIP3    H214985   6.613   5.222   1.497
 5014TIP3   OH214986   6.146   6.560   0.819
 5014TIP3    H114987   6.095   6.601   0.890
 5014TIP3    H214988   6.229   6.608   0.818
 5015TIP3   OH214989   6.364   7.093   1.900
 5015TIP3    H114990   6.445   7.090   1.953
 5015TIP3    H214991   6.370   7.017   1.844
 5016TIP3   OH214992   6.835   7.028   1.950
 5016TIP3    H114993   6.928   7.008   1.963
 5016TIP3    H214994   6.802   6.956   1.895
 5017TIP3   OH214995   7.477   6.935   1.766
 5017TIP3    H114996   7.433   6.854   1.794
 5017TIP3    H214997   7.557   6.938   1.818
 5018TIP3   OH214998   6.445   6.471   2.103
 5018TIP3    H114999   6.478   6.383   2.121
 5018TIP3    H215000   6.361   6.457   2.059
 5019TIP3   OH215001   7.079   6.558   1.898
 5019TIP3    H115002   7.032   6.582   1.818
 5019TIP3    H215003   7.118   6.473   1.877
 5020TIP3   OH215004   7.593   6.586   1.536
 5020TIP3    H115005   7.657   6.644   1.494
 5020TIP3    H215006   7.508   6.618   1.506
 5021TIP3   OH215007   6.603   6.234   2.106
 5021TIP3    H115008   6.645   6.215   2.022
 5021TIP3    H215009   6.674   6.266   2.161
 5022TIP3   OH215010   6.883   6.062   1.765
 5022TIP3    H115011   6.820   6.131   1.784
 5022TIP3    H215012   6.951   6.106   1.714
 5023TIP3   OH215013   7.435   6.468   1.842
 5023TIP3    H115014   7.520   6.449   1.802
 5023TIP3    H215015   7.436   6.418   1.923
 5024TIP3   OH215016   7.047   5.861   1.854
 5024TIP3    H115017   7.052   5.788   1.793
 5024TIP3    H215018   6.993   5.926   1.809
 5025TIP3   OH215019   7.051   5.662   1.657
 5025TIP3    H115020   7.074   5.708   1.577
 5025TIP3    H215021   6.959   5.638   1.646
 5026TIP3   OH215022   7.079   6.188   1.623
 5026TIP3    H115023   7.166   6.198   1.586
 5026TIP3    H215024   7.021   6.231   1.561
 5027TIP3   OH215025   7.669   6.162   1.931
 5027TIP3    H115026   7.715   6.079   1.949
 5027TIP3    H215027   7.739   6.225   1.915
 5028TIP3   OH215028   7.691   6.415   1.711
 5028TIP3    H115029   7.648   6.477   1.652
 5028TIP3    H215030   7.785   6.427   1.694
 5029TIP3   OH215031   6.933   5.960   2.093
 5029TIP3    H115032   6.857   5.906   2.116
 5029TIP3    H215033   6.958   5.931   2.005
 5030TIP3   OH215034   7.176   5.438   1.762
 5030TIP3    H115035   7.136   5.516   1.723
 5030TIP3    H215036   7.109   5.370   1.751
 5031TIP3   OH215037   7.296   5.919   1.958
 5031TIP3    H115038   7.282   5.909   2.053
 5031TIP3    H215039   7.211   5.897   1.919
 5032TIP3   OH215040   7.532   5.855   1.829
 5032TIP3    H115041   7.456   5.861   1.887
 5032TIP3    H215042   7.607   5.846   1.889
 5033TIP3   OH215043   7.765   5.848   1.976
 5033TIP3    H115044   7.783   5.754   1.981
 5033TIP3    H215045   7.764   5.877   2.067
 5034TIP3   OH215046   6.756   5.748   2.165
 5034TIP3    H115047   6.760   5.659   2.129
 5034TIP3    H215048   6.795   5.740   2.252
 5035TIP3   OH215049   7.243   5.432   2.026
 5035TIP3    H115050   7.311   5.365   2.022
 5035TIP3    H215051   7.210   5.439   1.936
 5036TIP3   OH215052   7.335   5.650   2.169
 5036TIP3    H115053   7.306   5.577   2.113
 5036TIP3    H215054   7.263   5.713   2.165
 5037TIP3   OH215055   5.971   6.886   0.874
 5037TIP3    H115056   5.911   6.832   0.823
 5037TIP3    H215057   5.999   6.829   0.946
 5038TIP3   OH215058   6.267   6.171   1.484
 5038TIP3    H115059   6.258   6.122   1.402
 5038TIP3    H215060   6.357   6.154   1.512
 5039TIP3   OH215061   7.947   6.467   1.638
 5039TIP3    H115062   7.984   6.379   1.649
 5039TIP3    H215063   7.937   6.476   1.543
 5040TIP3   OH215064   7.954   5.972   1.054
 5040TIP3    H115065   8.017   6.005   0.990
 5040TIP3    H215066   7.900   6.048   1.076
 5041TIP3   OH215067   7.819   6.121   1.372
 5041TIP3    H115068   7.745   6.158   1.421
 5041TIP3    H215069   7.794   6.130   1.280
 5042TIP3   OH215070   6.491   5.798   2.100
 5042TIP3    H115071   6.585   5.801   2.122
 5042TIP3    H215072   6.461   5.716   2.140
 5043TIP3   OH215073   6.458   5.518   1.500
 5043TIP3    H115074   6.515   5.442   1.488
 5043TIP3    H215075   6.512   5.592   1.473
 5044TIP3   OH215076   6.247   5.797   1.532
 5044TIP3    H115077   6.299   5.788   1.453
 5044TIP3    H215078   6.299   5.855   1.588
 5045TIP3   OH215079   6.198   5.218   1.075
 5045TIP3    H115080   6.106   5.223   1.099
 5045TIP3    H215081   6.242   5.281   1.133
 5046TIP3   OH215082   6.460   5.354   1.847
 5046TIP3    H115083   6.409   5.344   1.928
 5046TIP3    H215084   6.402   5.401   1.787
 5047TIP3   OH215085   6.499   6.799   1.953
 5047TIP3    H115086   6.410   6.779   1.925
 5047TIP3    H215087   6.496   6.794   2.048
 5048TIP3   OH215088   6.588   6.840   1.587
 5048TIP3    H115089   6.554   6.921   1.549
 5048TIP3    H215090   6.634   6.797   1.515
 5049TIP3   OH215091   7.176   7.080   1.589
 5049TIP3    H115092   7.197   7.076   1.682
 5049TIP3    H215093   7.226   7.156   1.557
 5050TIP3   OH215094   8.150   5.568   1.611
 5050TIP3    H115095   8.078   5.593   1.552
 5050TIP3    H215096   8.186   5.489   1.570
 5051TIP3   OH215097   6.321   7.060   1.601
 5051TIP3    H115098   6.237   7.073   1.556
 5051TIP3    H215099   6.345   7.148   1.631
 5052TIP3   OH215100   6.538   7.058   1.440
 5052TIP3    H115101   6.451   7.057   1.480
 5052TIP3    H215102   6.550   7.148   1.409
 5053TIP3   OH215103   7.058   7.081   1.156
 5053TIP3    H115104   7.095   7.099   1.070
 5053TIP3    H215105   7.096   7.148   1.213
 5054TIP3   OH215106   6.293   6.908   1.311
 5054TIP3    H115107   6.306   6.867   1.396
 5054TIP3    H215108   6.317   6.840   1.248
 5055TIP3   OH215109   6.657   6.691   1.111
 5055TIP3    H115110   6.743   6.716   1.077
 5055TIP3    H215111   6.609   6.774   1.118
 5056TIP3   OH215112   7.363   5.408   1.220
 5056TIP3    H115113   7.279   5.407   1.266
 5056TIP3    H215114   7.391   5.317   1.217
 5057TIP3   OH215115   7.863   5.425   0.985
 5057TIP3    H115116   7.943   5.474   0.966
 5057TIP3    H215117   7.824   5.471   1.059
 5058TIP3   OH215118   0.601   7.907   2.054
 5058TIP3    H115119   0.609   7.837   1.990
 5058TIP3    H215120   0.648   7.981   2.014
 5059TIP3   OH215121   6.522   5.192   1.200
 5059TIP3    H115122   6.441   5.153   1.232
 5059TIP3    H215123   6.583   5.119   1.196
 5060TIP3   OH215124   6.426   5.066   0.947
 5060TIP3    H115125   6.358   5.100   0.889
 5060TIP3    H215126   6.433   5.131   1.017
 5061TIP3   OH215127   6.930   5.252   1.122
 5061TIP3    H115128   7.019   5.258   1.087
 5061TIP3    H215129   6.939   5.277   1.214
 5062TIP3   OH215130   7.573   5.485   1.038
 5062TIP3    H115131   7.626   5.426   0.984
 5062TIP3    H215132   7.558   5.437   1.119
 5063TIP3   OH215133   6.481   5.267   0.673
 5063TIP3    H115134   6.528   5.216   0.608
 5063TIP3    H215135   6.466   5.352   0.631
 5064TIP3   OH215136   6.870   5.428   0.883
 5064TIP3    H115137   6.900   5.359   0.941
 5064TIP3    H215138   6.950   5.467   0.849
 5065TIP3   OH215139   6.768   5.477   2.079
 5065TIP3    H115140   6.734   5.410   2.139
 5065TIP3    H215141   6.861   5.483   2.101
 5066TIP3   OH215142   7.019   5.478   2.197
 5066TIP3    H115143   7.098   5.459   2.146
 5066TIP3    H215144   7.015   5.408   2.263
 5067TIP3   OH215145   7.831   5.582   1.990
 5067TIP3    H115146   7.845   5.557   2.081
 5067TIP3    H215147   7.917   5.577   1.949
 5068TIP3   OH215148   0.542   6.559   2.881
 5068TIP3    H115149   0.560   6.644   2.921
 5068TIP3    H215150   0.556   6.574   2.787
 5069TIP3   OH215151   8.428   6.429   2.513
 5069TIP3    H115152   8.513   6.447   2.555
 5069TIP3    H215153   8.391   6.516   2.498
 5070TIP3   OH215154   0.597   6.780   3.046
 5070TIP3    H115155   0.505   6.806   3.043
 5070TIP3    H215156   0.629   6.813   3.130
 5071TIP3   OH215157   0.159   6.487   2.652
 5071TIP3    H115158   0.133   6.430   2.724
 5071TIP3    H215159   0.187   6.568   2.694
 5072TIP3   OH215160   0.319   6.490   3.034
 5072TIP3    H115161   0.247   6.530   2.986
 5072TIP3    H215162   0.396   6.503   2.979
 5073TIP3   OH215163   0.231   7.482   2.970
 5073TIP3    H115164   0.195   7.401   2.934
 5073TIP3    H215165   0.184   7.551   2.925
 5074TIP3   OH215166   0.420   7.111   2.890
 5074TIP3    H115167   0.335   7.156   2.893
 5074TIP3    H215168   0.443   7.110   2.797
 5075TIP3   OH215169   0.254   6.046   2.141
 5075TIP3    H115170   0.171   6.071   2.182
 5075TIP3    H215171   0.277   6.120   2.085
 5076TIP3   OH215172   0.369   6.921   3.343
 5076TIP3    H115173   0.282   6.941   3.377
 5076TIP3    H215174   0.368   6.827   3.326
 5077TIP3   OH215175   0.183   7.241   2.831
 5077TIP3    H115176   0.215   7.289   2.754
 5077TIP3    H215177   0.112   7.187   2.797
 5078TIP3   OH215178   0.464   7.440   3.100
 5078TIP3    H115179   0.376   7.470   3.078
 5078TIP3    H215180   0.507   7.426   3.016
 5079TIP3   OH215181   0.341   6.653   3.274
 5079TIP3    H115182   0.291   6.600   3.336
 5079TIP3    H215183   0.338   6.603   3.192
 5080TIP3   OH215184   0.082   6.858   2.638
 5080TIP3    H115185  -0.005   6.823   2.659
 5080TIP3    H215186   0.142   6.805   2.690
 5081TIP3   OH215187   0.291   6.618   3.696
 5081TIP3    H115188   0.296   6.522   3.694
 5081TIP3    H215189   0.198   6.637   3.700
 5082TIP3   OH215190   0.342   6.969   2.205
 5082TIP3    H115191   0.268   6.939   2.258
 5082TIP3    H215192   0.399   7.014   2.268
 5083TIP3   OH215193   0.351   7.388   2.653
 5083TIP3    H115194   0.399   7.309   2.626
 5083TIP3    H215195   0.327   7.431   2.570
 5084TIP3   OH215196   0.163   6.853   2.373
 5084TIP3    H115197   0.151   6.761   2.350
 5084TIP3    H215198   0.128   6.861   2.461
 5085TIP3   OH215199   0.377   7.247   3.276
 5085TIP3    H115200   0.438   7.177   3.254
 5085TIP3    H215201   0.387   7.310   3.205
 5086TIP3   OH215202   0.581   7.059   3.249
 5086TIP3    H115203   0.507   7.010   3.284
 5086TIP3    H215204   0.657   7.003   3.266
 5087TIP3   OH215205   0.162   6.587   2.297
 5087TIP3    H115206   0.171   6.522   2.367
 5087TIP3    H215207   0.149   6.534   2.218
 5088TIP3   OH215208   0.268   6.709   2.793
 5088TIP3    H115209   0.347   6.729   2.742
 5088TIP3    H215210   0.279   6.759   2.874
 5089TIP3   OH215211   0.336   6.873   3.009
 5089TIP3    H115212   0.263   6.895   3.066
 5089TIP3    H215213   0.363   6.957   2.971
 5090TIP3   OH215214   0.803   6.494   3.548
 5090TIP3    H115215   0.861   6.431   3.504
 5090TIP3    H215216   0.762   6.543   3.476
 5091TIP3   OH215217   0.225   6.305   2.325
 5091TIP3    H115218   0.259   6.295   2.414
 5091TIP3    H215219   0.151   6.244   2.320
 5092TIP3   OH215220   0.640   6.613   3.360
 5092TIP3    H115221   0.577   6.651   3.422
 5092TIP3    H215222   0.589   6.549   3.311
 5093TIP3   OH215223   0.335   6.240   1.967
 5093TIP3    H115224   0.359   6.216   1.877
 5093TIP3    H215225   0.372   6.328   1.979
 5094TIP3   OH215226   0.549   6.344   3.262
 5094TIP3    H115227   0.461   6.318   3.236
 5094TIP3    H215228   0.600   6.263   3.255
 5095TIP3   OH215229   0.289   6.156   2.750
 5095TIP3    H115230   0.332   6.211   2.685
 5095TIP3    H215231   0.203   6.196   2.764
 5096TIP3   OH215232   0.395   6.295   2.545
 5096TIP3    H115233   0.465   6.245   2.503
 5096TIP3    H215234   0.416   6.386   2.527
 5097TIP3   OH215235   0.031   6.253   2.780
 5097TIP3    H115236  -0.036   6.274   2.715
 5097TIP3    H215237   0.010   6.163   2.807
 5098TIP3   OH215238   8.530   6.105   2.299
 5098TIP3    H115239   8.439   6.122   2.273
 5098TIP3    H215240   8.527   6.018   2.339
 5099TIP3   OH215241   0.311   6.344   3.678
 5099TIP3    H115242   0.306   6.298   3.761
 5099TIP3    H215243   0.403   6.340   3.654
 5100TIP3   OH215244   1.513   7.244   1.962
 5100TIP3    H115245   1.457   7.320   1.979
 5100TIP3    H215246   1.459   7.186   1.909
 5101TIP3   OH215247   1.488   7.257   2.340
 5101TIP3    H115248   1.535   7.240   2.423
 5101TIP3    H215249   1.445   7.174   2.320
 5102TIP3   OH215250   0.772   7.152   2.709
 5102TIP3    H115251   0.808   7.082   2.764
 5102TIP3    H215252   0.846   7.211   2.695
 5103TIP3   OH215253   1.758   7.543   2.030
 5103TIP3    H115254   1.737   7.484   2.101
 5103TIP3    H215255   1.792   7.622   2.073
 5104TIP3   OH215256   0.856   7.550   2.477
 5104TIP3    H115257   0.784   7.488   2.487
 5104TIP3    H215258   0.883   7.539   2.386
 5105TIP3   OH215259   0.448   6.713   2.180
 5105TIP3    H115260   0.411   6.801   2.175
 5105TIP3    H215261   0.401   6.671   2.252
 5106TIP3   OH215262   0.538   7.059   2.385
 5106TIP3    H115263   0.576   6.976   2.412
 5106TIP3    H215264   0.613   7.112   2.357
 5107TIP3   OH215265   1.328   7.469   2.440
 5107TIP3    H115266   1.348   7.400   2.377
 5107TIP3    H215267   1.413   7.503   2.468
 5108TIP3   OH215268   2.319   6.830   2.368
 5108TIP3    H115269   2.343   6.901   2.427
 5108TIP3    H215270   2.311   6.871   2.282
 5109TIP3   OH215271   1.710   6.982   2.392
 5109TIP3    H115272   1.740   6.895   2.419
 5109TIP3    H215273   1.670   6.967   2.306
 5110TIP3   OH215274   1.063   6.641   2.347
 5110TIP3    H115275   1.038   6.715   2.291
 5110TIP3    H215276   1.009   6.568   2.315
 5111TIP3   OH215277   1.755   6.741   1.990
 5111TIP3    H115278   1.820   6.727   2.059
 5111TIP3    H215279   1.806   6.769   1.914
 5112TIP3   OH215280   0.681   6.844   2.476
 5112TIP3    H115281   0.765   6.825   2.517
 5112TIP3    H215282   0.682   6.793   2.395
 5113TIP3   OH215283   1.119   7.052   2.270
 5113TIP3    H115284   1.212   7.030   2.283
 5113TIP3    H215285   1.078   6.969   2.246
 5114TIP3   OH215286   2.385   7.034   2.541
 5114TIP3    H115287   2.294   7.062   2.543
 5114TIP3    H215288   2.422   7.065   2.624
 5115TIP3   OH215289   1.041   6.642   2.799
 5115TIP3    H115290   0.987   6.674   2.726
 5115TIP3    H215291   0.986   6.653   2.876
 5116TIP3   OH215292   1.480   7.452   1.686
 5116TIP3    H115293   1.404   7.451   1.628
 5116TIP3    H215294   1.485   7.542   1.717
 5117TIP3   OH215295   1.131   7.378   2.595
 5117TIP3    H115296   1.089   7.450   2.641
 5117TIP3    H215297   1.193   7.420   2.536
 5118TIP3   OH215298   1.926   6.751   2.205
 5118TIP3    H115299   1.877   6.732   2.285
 5118TIP3    H215300   1.975   6.831   2.225
 5119TIP3   OH215301   0.930   6.747   2.567
 5119TIP3    H115302   0.985   6.821   2.592
 5119TIP3    H215303   0.977   6.704   2.496
 5120TIP3   OH215304   1.012   7.598   2.703
 5120TIP3    H115305   0.978   7.610   2.615
 5120TIP3    H215306   0.936   7.571   2.755
 5121TIP3   OH215307   2.118   6.710   2.535
 5121TIP3    H115308   2.032   6.731   2.498
 5121TIP3    H215309   2.180   6.738   2.467
 5122TIP3   OH215310   1.383   6.335   2.526
 5122TIP3    H115311   1.377   6.243   2.552
 5122TIP3    H215312   1.307   6.377   2.567
 5123TIP3   OH215313   1.757   7.580   1.719
 5123TIP3    H115314   1.737   7.517   1.650
 5123TIP3    H215315   1.733   7.534   1.800
 5124TIP3   OH215316   2.113   7.700   2.428
 5124TIP3    H115317   2.055   7.631   2.397
 5124TIP3    H215318   2.115   7.763   2.356
 5125TIP3   OH215319   1.356   7.119   1.774
 5125TIP3    H115320   1.271   7.162   1.768
 5125TIP3    H215321   1.398   7.137   1.689
 5126TIP3   OH215322   1.343   6.907   1.522
 5126TIP3    H115323   1.410   6.965   1.560
 5126TIP3    H215324   1.393   6.848   1.465
 5127TIP3   OH215325   2.218   7.360   2.377
 5127TIP3    H115326   2.131   7.401   2.375
 5127TIP3    H215327   2.252   7.371   2.288
 5128TIP3   OH215328   1.699   7.216   1.759
 5128TIP3    H115329   1.639   7.237   1.830
 5128TIP3    H215330   1.777   7.182   1.803
 5129TIP3   OH215331   1.903   7.213   2.659
 5129TIP3    H115332   1.904   7.288   2.718
 5129TIP3    H215333   1.817   7.217   2.616
 5130TIP3   OH215334   0.919   7.182   2.125
 5130TIP3    H115335   0.873   7.116   2.072
 5130TIP3    H215336   0.993   7.135   2.163
 5131TIP3   OH215337   0.978   7.536   2.231
 5131TIP3    H115338   0.998   7.611   2.175
 5131TIP3    H215339   1.055   7.479   2.222
 5132TIP3   OH215340   1.006   7.158   2.497
 5132TIP3    H115341   1.052   7.131   2.418
 5132TIP3    H215342   1.052   7.238   2.525
 5133TIP3   OH215343   1.177   7.680   2.903
 5133TIP3    H115344   1.255   7.723   2.869
 5133TIP3    H215345   1.131   7.647   2.826
 5134TIP3   OH215346   1.561   7.063   1.576
 5134TIP3    H115347   1.611   7.128   1.626
 5134TIP3    H215348   1.586   7.079   1.485
 5135TIP3   OH215349   0.936   7.240   2.966
 5135TIP3    H115350   0.949   7.319   3.018
 5135TIP3    H215351   0.843   7.219   2.977
 5136TIP3   OH215352   2.028   6.302   1.637
 5136TIP3    H115353   1.947   6.317   1.687
 5136TIP3    H215354   2.034   6.377   1.578
 5137TIP3   OH215355   0.774   7.009   1.962
 5137TIP3    H115356   0.733   7.032   1.878
 5137TIP3    H215357   0.722   6.936   1.995
 5138TIP3   OH215358   0.568   7.379   2.855
 5138TIP3    H115359   0.488   7.367   2.804
 5138TIP3    H215360   0.592   7.291   2.884
 5139TIP3   OH215361   2.154   7.179   2.844
 5139TIP3    H115362   2.067   7.181   2.804
 5139TIP3    H215363   2.175   7.086   2.850
 5140TIP3   OH215364   0.806   7.505   2.851
 5140TIP3    H115365   0.840   7.487   2.939
 5140TIP3    H215366   0.726   7.454   2.845
 5141TIP3   OH215367   1.149   6.430   2.652
 5141TIP3    H115368   1.065   6.395   2.621
 5141TIP3    H215369   1.126   6.508   2.701
 5142TIP3   OH215370   1.687   6.546   2.854
 5142TIP3    H115371   1.757   6.520   2.914
 5142TIP3    H215372   1.606   6.528   2.902
 5143TIP3   OH215373   1.914   6.962   2.773
 5143TIP3    H115374   1.867   6.960   2.856
 5143TIP3    H215375   1.891   7.047   2.734
 5144TIP3   OH215376   1.601   7.063   1.296
 5144TIP3    H115377   1.608   7.053   1.201
 5144TIP3    H215378   1.587   7.157   1.309
 5145TIP3   OH215379   1.294   6.467   1.619
 5145TIP3    H115380   1.263   6.480   1.709
 5145TIP3    H215381   1.268   6.377   1.598
 5146TIP3   OH215382   1.082   6.956   2.664
 5146TIP3    H115383   1.030   6.962   2.744
 5146TIP3    H215384   1.053   7.030   2.611
 5147TIP3   OH215385   0.960   6.841   2.191
 5147TIP3    H115386   0.870   6.817   2.213
 5147TIP3    H215387   0.974   6.804   2.104
 5148TIP3   OH215388   1.459   6.906   1.909
 5148TIP3    H115389   1.414   6.977   1.864
 5148TIP3    H215390   1.519   6.870   1.843
 5149TIP3   OH215391   1.640   7.168   2.984
 5149TIP3    H115392   1.609   7.100   3.045
 5149TIP3    H215393   1.731   7.182   3.008
 5150TIP3   OH215394   1.615   6.929   2.140
 5150TIP3    H115395   1.548   6.955   2.077
 5150TIP3    H215396   1.659   6.854   2.100
 5151TIP3   OH215397   0.905   6.964   2.874
 5151TIP3    H115398   0.921   7.029   2.942
 5151TIP3    H215399   0.892   6.882   2.921
 5152TIP3   OH215400   0.940   6.410   1.595
 5152TIP3    H115401   0.937   6.431   1.688
 5152TIP3    H215402   0.852   6.429   1.562
 5153TIP3   OH215403   0.498   6.539   2.453
 5153TIP3    H115404   0.579   6.547   2.503
 5153TIP3    H215405   0.522   6.484   2.378
 5154TIP3   OH215406   0.449   6.492   1.994
 5154TIP3    H115407   0.468   6.504   1.901
 5154TIP3    H215408   0.450   6.581   2.030
 5155TIP3   OH215409   1.643   7.182   2.560
 5155TIP3    H115410   1.671   7.114   2.499
 5155TIP3    H215411   1.602   7.135   2.632
 5156TIP3   OH215412   1.329   6.633   2.239
 5156TIP3    H115413   1.249   6.632   2.292
 5156TIP3    H215414   1.400   6.620   2.302
 5157TIP3   OH215415   0.720   6.710   2.238
 5157TIP3    H115416   0.630   6.700   2.210
 5157TIP3    H215417   0.759   6.623   2.229
 5158TIP3   OH215418   0.993   6.711   1.956
 5158TIP3    H115419   1.085   6.725   1.935
 5158TIP3    H215420   0.947   6.723   1.873
 5159TIP3   OH215421   1.775   6.716   2.439
 5159TIP3    H115422   1.759   6.730   2.532
 5159TIP3    H215423   1.706   6.655   2.412
 5160TIP3   OH215424   0.832   6.710   1.737
 5160TIP3    H115425   0.761   6.663   1.694
 5160TIP3    H215426   0.852   6.783   1.678
 5161TIP3   OH215427   0.911   7.501   3.105
 5161TIP3    H115428   0.989   7.502   3.160
 5161TIP3    H215429   0.838   7.487   3.167
 5162TIP3   OH215430   1.382   6.990   2.341
 5162TIP3    H115431   1.446   6.934   2.297
 5162TIP3    H215432   1.377   6.955   2.430
 5163TIP3   OH215433   0.872   6.472   2.226
 5163TIP3    H115434   0.842   6.399   2.279
 5163TIP3    H215435   0.892   6.434   2.141
 5164TIP3   OH215436   1.351   6.907   2.607
 5164TIP3    H115437   1.263   6.936   2.633
 5164TIP3    H215438   1.410   6.958   2.662
 5165TIP3   OH215439   1.122   7.268   1.763
 5165TIP3    H115440   1.076   7.184   1.764
 5165TIP3    H215441   1.085   7.316   1.837
 5166TIP3   OH215442   1.974   7.481   2.324
 5166TIP3    H115443   2.001   7.522   2.242
 5166TIP3    H215444   1.892   7.438   2.303
 5167TIP3   OH215445   1.551   6.567   1.626
 5167TIP3    H115446   1.456   6.551   1.621
 5167TIP3    H215447   1.558   6.662   1.636
 5168TIP3   OH215448   1.508   7.498   2.753
 5168TIP3    H115449   1.556   7.481   2.834
 5168TIP3    H215450   1.448   7.570   2.776
 5169TIP3   OH215451   1.624   6.827   1.697
 5169TIP3    H115452   1.718   6.829   1.712
 5169TIP3    H215453   1.606   6.907   1.648
 5170TIP3   OH215454   0.771   7.205   2.357
 5170TIP3    H115455   0.812   7.210   2.271
 5170TIP3    H215456   0.842   7.179   2.416
 5171TIP3   OH215457   1.227   7.448   1.577
 5171TIP3    H115458   1.155   7.509   1.564
 5171TIP3    H215459   1.186   7.372   1.620
 5172TIP3   OH215460   0.668   7.167   3.011
 5172TIP3    H115461   0.667   7.148   3.105
 5172TIP3    H215462   0.591   7.123   2.976
 5173TIP3   OH215463   1.402   7.309   3.036
 5173TIP3    H115464   1.334   7.250   3.003
 5173TIP3    H215465   1.484   7.272   3.002
 5174TIP3   OH215466   2.038   6.910   1.517
 5174TIP3    H115467   1.981   6.860   1.459
 5174TIP3    H215468   2.044   6.996   1.477
 5175TIP3   OH215469   2.314   7.717   2.601
 5175TIP3    H115470   2.227   7.730   2.563
 5175TIP3    H215471   2.372   7.704   2.526
 5176TIP3   OH215472   1.740   7.356   2.239
 5176TIP3    H115473   1.649   7.336   2.261
 5176TIP3    H215474   1.773   7.275   2.201
 5177TIP3   OH215475   0.985   7.398   1.969
 5177TIP3    H115476   0.959   7.470   2.027
 5177TIP3    H215477   0.959   7.319   2.016
 5178TIP3   OH215478   1.590   7.525   2.489
 5178TIP3    H115479   1.569   7.523   2.582
 5178TIP3    H215480   1.671   7.476   2.481
 5179TIP3   OH215481   1.534   7.316   1.372
 5179TIP3    H115482   1.607   7.339   1.430
 5179TIP3    H215483   1.482   7.396   1.366
 5180TIP3   OH215484   0.868   6.716   3.005
 5180TIP3    H115485   0.773   6.726   3.013
 5180TIP3    H215486   0.894   6.665   3.082
 5181TIP3   OH215487   1.737   7.370   1.539
 5181TIP3    H115488   1.718   7.318   1.617
 5181TIP3    H215489   1.833   7.366   1.531
 5182TIP3   OH215490   1.724   6.771   2.702
 5182TIP3    H115491   1.801   6.815   2.738
 5182TIP3    H215492   1.711   6.695   2.758
 5183TIP3   OH215493   1.606   6.522   1.896
 5183TIP3    H115494   1.586   6.541   1.804
 5183TIP3    H215495   1.649   6.602   1.928
 5184TIP3   OH215496   1.273   6.719   1.982
 5184TIP3    H115497   1.336   6.787   1.957
 5184TIP3    H215498   1.291   6.702   2.074
 5185TIP3   OH215499   1.564   7.010   2.759
 5185TIP3    H115500   1.588   7.053   2.842
 5185TIP3    H215501   1.611   6.927   2.761
 5186TIP3   OH215502   1.422   6.419   2.077
 5186TIP3    H115503   1.398   6.497   2.128
 5186TIP3    H215504   1.490   6.450   2.017
 5187TIP3   OH215505   0.944   6.440   1.874
 5187TIP3    H115506   0.928   6.529   1.904
 5187TIP3    H215507   1.039   6.430   1.879
 5188TIP3   OH215508   2.175   6.900   2.749
 5188TIP3    H115509   2.082   6.916   2.763
 5188TIP3    H215510   2.178   6.836   2.678
 5189TIP3   OH215511   1.834   7.111   2.142
 5189TIP3    H115512   1.757   7.056   2.149
 5189TIP3    H215513   1.899   7.069   2.199
 5190TIP3   OH215514   0.890   6.340   2.614
 5190TIP3    H115515   0.858   6.307   2.530
 5190TIP3    H215516   0.884   6.265   2.673
 5191TIP3   OH215517   0.688   7.445   3.259
 5191TIP3    H115518   0.730   7.361   3.277
 5191TIP3    H215519   0.610   7.423   3.209
 5192TIP3   OH215520   1.343   7.571   3.100
 5192TIP3    H115521   1.292   7.601   3.025
 5192TIP3    H215522   1.374   7.484   3.074
 5193TIP3   OH215523   1.820   7.577   2.659
 5193TIP3    H115524   1.892   7.639   2.669
 5193TIP3    H215525   1.749   7.613   2.712
 5194TIP3   OH215526   0.873   7.236   3.268
 5194TIP3    H115527   0.944   7.174   3.251
 5194TIP3    H215528   0.890   7.266   3.357
 5195TIP3   OH215529   0.989   7.037   1.788
 5195TIP3    H115530   0.925   7.019   1.857
 5195TIP3    H215531   0.954   6.992   1.711
 5196TIP3   OH215532   1.199   7.147   2.927
 5196TIP3    H115533   1.110   7.183   2.927
 5196TIP3    H215534   1.235   7.172   2.842
 5197TIP3   OH215535   1.116   6.754   1.500
 5197TIP3    H115536   1.153   6.736   1.413
 5197TIP3    H215537   1.187   6.799   1.546
 5198TIP3   OH215538   1.675   7.470   3.007
 5198TIP3    H115539   1.763   7.455   2.973
 5198TIP3    H215540   1.674   7.427   3.092
 5199TIP3   OH215541   1.871   7.210   1.163
 5199TIP3    H115542   1.830   7.153   1.098
 5199TIP3    H215543   1.812   7.286   1.167
 5200TIP3   OH215544   1.292   6.918   3.042
 5200TIP3    H115545   1.295   6.846   2.979
 5200TIP3    H215546   1.260   6.993   2.992
 5201TIP3   OH215547   1.300   6.726   2.834
 5201TIP3    H115548   1.326   6.764   2.750
 5201TIP3    H215549   1.209   6.699   2.821
 5202TIP3   OH215550   1.335   7.237   2.709
 5202TIP3    H115551   1.413   7.292   2.701
 5202TIP3    H215552   1.266   7.285   2.662
 5203TIP3   OH215553   1.901   7.193   3.105
 5203TIP3    H115554   1.943   7.107   3.109
 5203TIP3    H215555   1.973   7.255   3.107
 5204TIP3   OH215556   1.942   7.419   2.837
 5204TIP3    H115557   1.885   7.471   2.780
 5204TIP3    H215558   2.031   7.446   2.813
 5205TIP3   OH215559   1.166   7.017   3.276
 5205TIP3    H115560   1.103   6.951   3.302
 5205TIP3    H215561   1.200   6.987   3.191
 5206TIP3   OH215562   1.422   6.492   2.932
 5206TIP3    H115563   1.380   6.572   2.900
 5206TIP3    H215564   1.355   6.424   2.921
 5207TIP3   OH215565   1.547   6.965   3.140
 5207TIP3    H115566   1.538   6.955   3.234
 5207TIP3    H215567   1.462   6.941   3.105
 5208TIP3   OH215568   1.789   6.913   3.006
 5208TIP3    H115569   1.711   6.913   3.062
 5208TIP3    H215570   1.861   6.889   3.064
 5209TIP3   OH215571   2.028   6.886   3.151
 5209TIP3    H115572   2.043   6.791   3.157
 5209TIP3    H215573   2.024   6.914   3.243
 5210TIP3   OH215574   1.015   6.791   3.341
 5210TIP3    H115575   1.018   6.702   3.306
 5210TIP3    H215576   1.051   6.784   3.429
 5211TIP3   OH215577   1.492   6.477   3.198
 5211TIP3    H115578   1.560   6.410   3.193
 5211TIP3    H215579   1.460   6.485   3.108
 5212TIP3   OH215580   1.581   6.695   3.342
 5212TIP3    H115581   1.553   6.621   3.288
 5212TIP3    H215582   1.506   6.754   3.343
 5213TIP3   OH215583   2.161   7.940   2.866
 5213TIP3    H115584   2.105   7.996   2.919
 5213TIP3    H215585   2.250   7.958   2.898
 5214TIP3   OH215586   2.006   7.365   1.536
 5214TIP3    H115587   2.063   7.436   1.505
 5214TIP3    H215588   2.050   7.332   1.614
 5215TIP3   OH215589   2.117   7.239   1.748
 5215TIP3    H115590   2.049   7.208   1.807
 5215TIP3    H215591   2.178   7.287   1.804
 5216TIP3   OH215592   2.147   7.620   2.150
 5216TIP3    H115593   2.208   7.547   2.134
 5216TIP3    H215594   2.131   7.657   2.064
 5217TIP3   OH215595   2.033   7.147   1.376
 5217TIP3    H115596   1.970   7.160   1.304
 5217TIP3    H215597   2.019   7.223   1.433
 5218TIP3   OH215598   1.872   6.803   1.329
 5218TIP3    H115599   1.826   6.852   1.261
 5218TIP3    H215600   1.867   6.711   1.301
 5219TIP3   OH215601   1.917   7.102   1.882
 5219TIP3    H115602   1.913   7.009   1.859
 5219TIP3    H215603   1.893   7.106   1.974
 5220TIP3   OH215604   0.513   7.164   2.635
 5220TIP3    H115605   0.502   7.121   2.551
 5220TIP3    H215606   0.605   7.150   2.658
 5221TIP3   OH215607   2.185   7.513   2.748
 5221TIP3    H115608   2.248   7.442   2.738
 5221TIP3    H215609   2.215   7.581   2.688
 5222TIP3   OH215610   2.368   7.311   2.744
 5222TIP3    H115611   2.294   7.263   2.781
 5222TIP3    H215612   2.444   7.256   2.762
 5223TIP3   OH215613   1.842   6.530   1.278
 5223TIP3    H115614   1.907   6.513   1.346
 5223TIP3    H215615   1.760   6.495   1.313
 5224TIP3   OH215616   1.900   6.839   1.758
 5224TIP3    H115617   1.938   6.753   1.776
 5224TIP3    H215618   1.946   6.869   1.680
 5225TIP3   OH215619   2.051   6.990   2.274
 5225TIP3    H115620   2.131   7.011   2.226
 5225TIP3    H215621   2.064   7.027   2.361
 5226TIP3   OH215622   2.124   7.132   2.503
 5226TIP3    H115623   2.048   7.157   2.556
 5226TIP3    H215624   2.155   7.215   2.466
 5227TIP3   OH215625   0.753   6.850   3.279
 5227TIP3    H115626   0.847   6.845   3.300
 5227TIP3    H215627   0.717   6.769   3.316
 5228TIP3   OH215628   2.590   6.743   3.041
 5228TIP3    H115629   2.654   6.685   3.000
 5228TIP3    H215630   2.550   6.790   2.968
 5229TIP3   OH215631   1.982   6.591   1.833
 5229TIP3    H115632   2.052   6.563   1.892
 5229TIP3    H215633   1.929   6.512   1.820
 5230TIP3   OH215634   0.721   6.560   2.618
 5230TIP3    H115635   0.773   6.480   2.629
 5230TIP3    H215636   0.786   6.629   2.605
 5231TIP3   OH215637   0.509   6.809   2.700
 5231TIP3    H115638   0.547   6.800   2.612
 5231TIP3    H215639   0.562   6.878   2.742
 5232TIP3   OH215640   2.439   6.854   2.843
 5232TIP3    H115641   2.355   6.893   2.867
 5232TIP3    H215642   2.416   6.779   2.788
 5233TIP3   OH215643   2.065   6.492   1.441
 5233TIP3    H115644   2.114   6.431   1.386
 5233TIP3    H215645   2.123   6.567   1.451
 5234TIP3   OH215646   0.489   6.364   2.236
 5234TIP3    H115647   0.399   6.336   2.257
 5234TIP3    H215648   0.482   6.404   2.150
 5235TIP3   OH215649   0.707   6.392   3.025
 5235TIP3    H115650   0.654   6.385   3.105
 5235TIP3    H215651   0.653   6.443   2.965
 5236TIP3   OH215652   2.352   6.603   2.739
 5236TIP3    H115653   2.262   6.585   2.713
 5236TIP3    H215654   2.396   6.518   2.734
 5237TIP3   OH215655   1.555   6.536   2.375
 5237TIP3    H115656   1.514   6.465   2.425
 5237TIP3    H215657   1.622   6.492   2.322
 5238TIP3   OH215658   2.053   6.452   2.255
 5238TIP3    H115659   2.081   6.512   2.185
 5238TIP3    H215660   1.959   6.468   2.264
 5239TIP3   OH215661   2.188   6.488   1.991
 5239TIP3    H115662   2.197   6.399   1.957
 5239TIP3    H215663   2.275   6.510   2.024
 5240TIP3   OH215664   0.795   6.251   2.370
 5240TIP3    H115665   0.704   6.222   2.374
 5240TIP3    H215666   0.846   6.170   2.360
 5241TIP3   OH215667   0.669   6.101   2.096
 5241TIP3    H115668   0.695   6.143   2.013
 5241TIP3    H215669   0.604   6.160   2.133
 5242TIP3   OH215670   1.265   6.276   2.269
 5242TIP3    H115671   1.315   6.322   2.201
 5242TIP3    H215672   1.307   6.302   2.351
 5243TIP3   OH215673   1.769   6.418   2.242
 5243TIP3    H115674   1.780   6.380   2.154
 5243TIP3    H215675   1.772   6.343   2.301
 5244TIP3   OH215676   1.821   6.364   1.810
 5244TIP3    H115677   1.740   6.410   1.833
 5244TIP3    H215678   1.810   6.276   1.847
 5245TIP3   OH215679   0.754   6.231   1.861
 5245TIP3    H115680   0.783   6.182   1.784
 5245TIP3    H215681   0.815   6.305   1.866
 5246TIP3   OH215682   1.220   6.471   1.883
 5246TIP3    H115683   1.273   6.417   1.941
 5246TIP3    H215684   1.235   6.560   1.914
 5247TIP3   OH215685   1.020   6.520   3.258
 5247TIP3    H115686   0.985   6.450   3.313
 5247TIP3    H215687   1.112   6.526   3.284
 5248TIP3   OH215688   1.269   6.527   3.380
 5248TIP3    H115689   1.347   6.503   3.331
 5248TIP3    H215690   1.259   6.457   3.445
 5249TIP3   OH215691   2.093   6.616   3.164
 5249TIP3    H115692   2.108   6.586   3.254
 5249TIP3    H215693   2.179   6.609   3.122
 5250TIP3   OH215694   3.285   7.512   1.432
 5250TIP3    H115695   3.259   7.600   1.405
 5250TIP3    H215696   3.211   7.457   1.407
 5251TIP3   OH215697   3.290   7.521   1.825
 5251TIP3    H115698   3.337   7.507   1.907
 5251TIP3    H215699   3.248   7.437   1.807
 5252TIP3   OH215700   2.584   7.401   2.191
 5252TIP3    H115701   2.617   7.337   2.255
 5252TIP3    H215702   2.659   7.458   2.173
 5253TIP3   OH215703   3.541   7.798   1.492
 5253TIP3    H115704   3.536   7.727   1.557
 5253TIP3    H215705   3.527   7.878   1.542
 5254TIP3   OH215706   2.629   7.753   1.953
 5254TIP3    H115707   2.593   7.667   1.931
 5254TIP3    H215708   2.691   7.772   1.883
 5255TIP3   OH215709   2.246   7.010   1.673
 5255TIP3    H115710   2.208   7.094   1.699
 5255TIP3    H215711   2.178   6.966   1.623
 5256TIP3   OH215712   2.347   7.334   1.872
 5256TIP3    H115713   2.392   7.252   1.892
 5256TIP3    H215714   2.417   7.396   1.855
 5257TIP3   OH215715   3.129   7.752   1.817
 5257TIP3    H115716   3.171   7.670   1.792
 5257TIP3    H215717   3.200   7.805   1.855
 5258TIP3   OH215718   4.119   7.069   1.851
 5258TIP3    H115719   4.139   7.154   1.891
 5258TIP3    H215720   4.147   7.078   1.760
 5259TIP3   OH215721   3.507   7.231   1.878
 5259TIP3    H115722   3.554   7.150   1.898
 5259TIP3    H215723   3.464   7.213   1.794
 5260TIP3   OH215724   2.830   6.890   1.853
 5260TIP3    H115725   2.818   6.957   1.786
 5260TIP3    H215726   2.812   6.808   1.808
 5261TIP3   OH215727   3.540   6.988   1.484
 5261TIP3    H115728   3.610   6.983   1.549
 5261TIP3    H215729   3.583   7.023   1.406
 5262TIP3   OH215730   2.473   7.103   1.956
 5262TIP3    H115731   2.556   7.091   2.001
 5262TIP3    H215732   2.480   7.051   1.876
 5263TIP3   OH215733   2.905   7.304   1.754
 5263TIP3    H115734   2.999   7.290   1.764
 5263TIP3    H215735   2.871   7.219   1.726
 5264TIP3   OH215736   4.183   7.289   2.018
 5264TIP3    H115737   4.094   7.322   2.015
 5264TIP3    H215738   4.220   7.325   2.099
 5265TIP3   OH215739   2.826   6.904   2.288
 5265TIP3    H115740   2.777   6.948   2.219
 5265TIP3    H215741   2.776   6.921   2.368
 5266TIP3   OH215742   3.196   7.737   1.297
 5266TIP3    H115743   3.152   7.724   1.212
 5266TIP3    H215744   3.263   7.803   1.278
 5267TIP3   OH215745   3.000   7.622   2.019
 5267TIP3    H115746   2.939   7.678   2.067
 5267TIP3    H215747   3.041   7.679   1.955
 5268TIP3   OH215748   3.723   7.021   1.682
 5268TIP3    H115749   3.696   6.995   1.771
 5268TIP3    H215750   3.781   7.096   1.696
 5269TIP3   OH215751   2.712   7.016   2.063
 5269TIP3    H115752   2.770   7.089   2.087
 5269TIP3    H215753   2.758   6.971   1.992
 5270TIP3   OH215754   2.793   7.700   2.182
 5270TIP3    H115755   2.740   7.722   2.106
 5270TIP3    H215756   2.736   7.714   2.257
 5271TIP3   OH215757   2.160   7.555   1.413
 5271TIP3    H115758   2.127   7.553   1.323
 5271TIP3    H215759   2.169   7.648   1.433
 5272TIP3   OH215760   3.909   6.975   2.022
 5272TIP3    H115761   3.822   6.990   1.984
 5272TIP3    H215762   3.970   6.999   1.952
 5273TIP3   OH215763   3.174   6.578   2.001
 5273TIP3    H115764   3.173   6.492   2.042
 5273TIP3    H215765   3.097   6.623   2.036
 5274TIP3   OH215766   3.456   7.864   1.235
 5274TIP3    H115767   3.472   7.791   1.176
 5274TIP3    H215768   3.499   7.839   1.317
 5275TIP3   OH215769   3.808   7.989   1.989
 5275TIP3    H115770   3.806   7.909   1.936
 5275TIP3    H215771   3.793   8.060   1.926
 5276TIP3   OH215772   3.094   7.368   1.290
 5276TIP3    H115773   3.016   7.418   1.266
 5276TIP3    H215774   3.148   7.368   1.212
 5277TIP3   OH215775   3.065   7.180   0.985
 5277TIP3    H115776   3.118   7.243   1.033
 5277TIP3    H215777   3.123   7.106   0.968
 5278TIP3   OH215778   4.011   7.628   1.866
 5278TIP3    H115779   3.928   7.675   1.868
 5278TIP3    H215780   4.045   7.642   1.777
 5279TIP3   OH215781   3.472   7.441   1.245
 5279TIP3    H115782   3.418   7.465   1.320
 5279TIP3    H215783   3.554   7.409   1.284
 5280TIP3   OH215784   3.700   7.482   2.161
 5280TIP3    H115785   3.702   7.566   2.208
 5280TIP3    H215786   3.618   7.484   2.112
 5281TIP3   OH215787   2.704   7.448   1.627
 5281TIP3    H115788   2.664   7.388   1.564
 5281TIP3    H215789   2.779   7.401   1.661
 5282TIP3   OH215790   2.845   7.801   1.782
 5282TIP3    H115791   2.932   7.763   1.772
 5282TIP3    H215792   2.861   7.889   1.814
 5283TIP3   OH215793   2.816   7.424   1.983
 5283TIP3    H115794   2.846   7.381   1.903
 5283TIP3    H215795   2.880   7.493   1.999
 5284TIP3   OH215796   3.018   7.820   2.319
 5284TIP3    H115797   2.960   7.896   2.320
 5284TIP3    H215798   2.967   7.751   2.277
 5285TIP3   OH215799   3.266   7.347   1.084
 5285TIP3    H115800   3.345   7.367   1.135
 5285TIP3    H215801   3.299   7.336   0.994
 5286TIP3   OH215802   2.724   7.521   2.449
 5286TIP3    H115803   2.725   7.607   2.492
 5286TIP3    H215804   2.634   7.490   2.460
 5287TIP3   OH215805   3.810   6.540   1.132
 5287TIP3    H115806   3.728   6.557   1.178
 5287TIP3    H215807   3.834   6.625   1.093
 5288TIP3   OH215808   2.574   7.283   1.442
 5288TIP3    H115809   2.505   7.331   1.396
 5288TIP3    H215810   2.538   7.195   1.455
 5289TIP3   OH215811   2.389   7.628   2.347
 5289TIP3    H115812   2.294   7.619   2.341
 5289TIP3    H215813   2.419   7.545   2.383
 5290TIP3   OH215814   3.949   7.443   2.328
 5290TIP3    H115815   3.867   7.455   2.280
 5290TIP3    H215816   3.967   7.349   2.323
 5291TIP3   OH215817   2.572   7.820   2.296
 5291TIP3    H115818   2.522   7.887   2.343
 5291TIP3    H215819   2.515   7.744   2.295
 5292TIP3   OH215820   2.936   6.677   2.093
 5292TIP3    H115821   2.866   6.742   2.089
 5292TIP3    H215822   2.953   6.667   2.187
 5293TIP3   OH215823   3.488   6.809   2.343
 5293TIP3    H115824   3.558   6.773   2.397
 5293TIP3    H215825   3.408   6.782   2.387
 5294TIP3   OH215826   3.699   7.226   2.267
 5294TIP3    H115827   3.659   7.231   2.353
 5294TIP3    H215828   3.688   7.313   2.230
 5295TIP3   OH215829   3.339   7.286   0.828
 5295TIP3    H115830   3.281   7.297   0.753
 5295TIP3    H215831   3.410   7.348   0.813
 5296TIP3   OH215832   3.070   6.727   1.110
 5296TIP3    H115833   3.044   6.732   1.202
 5296TIP3    H215834   3.039   6.641   1.081
 5297TIP3   OH215835   2.877   7.216   2.151
 5297TIP3    H115836   2.833   7.227   2.236
 5297TIP3    H215837   2.853   7.295   2.102
 5298TIP3   OH215838   2.756   7.084   1.674
 5298TIP3    H115839   2.664   7.067   1.692
 5298TIP3    H215840   2.768   7.054   1.584
 5299TIP3   OH215841   3.240   7.162   1.401
 5299TIP3    H115842   3.188   7.232   1.363
 5299TIP3    H215843   3.303   7.139   1.333
 5300TIP3   OH215844   3.444   7.409   2.453
 5300TIP3    H115845   3.491   7.335   2.491
 5300TIP3    H215846   3.500   7.485   2.468
 5301TIP3   OH215847   3.405   7.183   1.628
 5301TIP3    H115848   3.339   7.207   1.562
 5301TIP3    H215849   3.450   7.107   1.589
 5302TIP3   OH215850   2.709   7.225   2.371
 5302TIP3    H115851   2.734   7.286   2.439
 5302TIP3    H215852   2.693   7.142   2.417
 5303TIP3   OH215853   2.745   6.703   1.084
 5303TIP3    H115854   2.740   6.710   1.179
 5303TIP3    H215855   2.671   6.755   1.052
 5304TIP3   OH215856   2.458   6.649   1.886
 5304TIP3    H115857   2.471   6.711   1.959
 5304TIP3    H215858   2.376   6.676   1.846
 5305TIP3   OH215859   2.240   6.704   1.470
 5305TIP3    H115860   2.274   6.744   1.390
 5305TIP3    H215861   2.179   6.770   1.506
 5306TIP3   OH215862   3.441   7.431   2.047
 5306TIP3    H115863   3.471   7.368   1.981
 5306TIP3    H215864   3.401   7.376   2.115
 5307TIP3   OH215865   3.098   6.925   1.741
 5307TIP3    H115866   3.036   6.916   1.813
 5307TIP3    H215867   3.176   6.877   1.770
 5308TIP3   OH215868   2.508   6.968   1.714
 5308TIP3    H115869   2.416   6.987   1.698
 5308TIP3    H215870   2.524   6.887   1.665
 5309TIP3   OH215871   2.770   6.963   1.430
 5309TIP3    H115872   2.864   6.977   1.421
 5309TIP3    H215873   2.734   6.983   1.343
 5310TIP3   OH215874   3.615   6.976   1.940
 5310TIP3    H115875   3.574   6.993   2.024
 5310TIP3    H215876   3.576   6.894   1.911
 5311TIP3   OH215877   2.649   6.990   1.186
 5311TIP3    H115878   2.582   6.945   1.134
 5311TIP3    H215879   2.703   7.035   1.121
 5312TIP3   OH215880   2.721   7.750   2.601
 5312TIP3    H115881   2.801   7.767   2.652
 5312TIP3    H215882   2.650   7.765   2.663
 5313TIP3   OH215883   3.174   7.256   1.820
 5313TIP3    H115884   3.234   7.202   1.769
 5313TIP3    H215885   3.168   7.212   1.905
 5314TIP3   OH215886   2.736   6.608   1.738
 5314TIP3    H115887   2.830   6.592   1.744
 5314TIP3    H215888   2.720   6.620   1.645
 5315TIP3   OH215889   3.137   7.152   2.081
 5315TIP3    H115890   3.050   7.181   2.110
 5315TIP3    H215891   3.198   7.198   2.137
 5316TIP3   OH215892   2.877   7.522   1.212
 5316TIP3    H115893   2.807   7.463   1.186
 5316TIP3    H215894   2.842   7.569   1.288
 5317TIP3   OH215895   3.774   7.767   1.822
 5317TIP3    H115896   3.809   7.810   1.744
 5317TIP3    H215897   3.695   7.722   1.791
 5318TIP3   OH215898   3.325   6.820   1.113
 5318TIP3    H115899   3.232   6.795   1.110
 5318TIP3    H215900   3.328   6.904   1.069
 5319TIP3   OH215901   3.285   7.806   2.224
 5319TIP3    H115902   3.338   7.777   2.298
 5319TIP3    H215903   3.195   7.806   2.258
 5320TIP3   OH215904   3.420   7.105   1.199
 5320TIP3    H115905   3.515   7.095   1.209
 5320TIP3    H215906   3.406   7.107   1.104
 5321TIP3   OH215907   2.574   7.495   1.865
 5321TIP3    H115908   2.612   7.487   1.778
 5321TIP3    H215909   2.642   7.460   1.923
 5322TIP3   OH215910   3.037   7.690   1.062
 5322TIP3    H115911   2.980   7.766   1.058
 5322TIP3    H215912   2.987   7.625   1.111
 5323TIP3   OH215913   2.467   7.417   2.505
 5323TIP3    H115914   2.469   7.397   2.598
 5323TIP3    H215915   2.391   7.370   2.471
 5324TIP3   OH215916   3.198   7.515   2.541
 5324TIP3    H115917   3.128   7.471   2.492
 5324TIP3    H215918   3.278   7.487   2.497
 5325TIP3   OH215919   3.835   7.185   1.056
 5325TIP3    H115920   3.772   7.130   1.010
 5325TIP3    H215921   3.811   7.274   1.034
 5326TIP3   OH215922   4.073   7.994   2.089
 5326TIP3    H115923   3.981   8.018   2.074
 5326TIP3    H215924   4.111   7.990   2.001
 5327TIP3   OH215925   3.544   7.627   1.716
 5327TIP3    H115926   3.456   7.608   1.747
 5327TIP3    H215927   3.577   7.543   1.684
 5328TIP3   OH215928   2.266   7.141   1.228
 5328TIP3    H115929   2.309   7.224   1.245
 5328TIP3    H215930   2.188   7.143   1.284
 5329TIP3   OH215931   2.791   7.640   1.447
 5329TIP3    H115932   2.856   7.694   1.492
 5329TIP3    H215933   2.761   7.578   1.513
 5330TIP3   OH215934   3.347   7.847   1.958
 5330TIP3    H115935   3.320   7.835   2.050
 5330TIP3    H215936   3.442   7.834   1.959
 5331TIP3   OH215937   3.283   7.658   0.868
 5331TIP3    H115938   3.347   7.654   0.939
 5331TIP3    H215939   3.199   7.669   0.912
 5332TIP3   OH215940   2.661   6.976   2.499
 5332TIP3    H115941   2.567   6.983   2.510
 5332TIP3    H215942   2.688   6.912   2.565
 5333TIP3   OH215943   3.474   7.644   1.064
 5333TIP3    H115944   3.462   7.571   1.124
 5333TIP3    H215945   3.569   7.655   1.058
 5334TIP3   OH215946   2.651   7.646   0.894
 5334TIP3    H115947   2.644   7.558   0.856
 5334TIP3    H215948   2.739   7.674   0.872
 5335TIP3   OH215949   2.363   7.398   1.302
 5335TIP3    H115950   2.296   7.441   1.355
 5335TIP3    H215951   2.382   7.459   1.232
 5336TIP3   OH215952   3.510   7.038   2.191
 5336TIP3    H115953   3.588   7.083   2.223
 5336TIP3    H215954   3.503   6.959   2.246
 5337TIP3   OH215955   3.391   6.778   1.378
 5337TIP3    H115956   3.371   6.800   1.288
 5337TIP3    H215957   3.435   6.855   1.413
 5338TIP3   OH215958   3.046   6.981   1.476
 5338TIP3    H115959   3.113   7.042   1.447
 5338TIP3    H215960   3.065   6.966   1.569
 5339TIP3   OH215961   3.340   7.261   2.237
 5339TIP3    H115962   3.366   7.301   2.320
 5339TIP3    H215963   3.392   7.181   2.231
 5340TIP3   OH215964   3.219   6.661   1.559
 5340TIP3    H115965   3.248   6.701   1.642
 5340TIP3    H215966   3.277   6.699   1.493
 5341TIP3   OH215967   2.736   6.693   1.366
 5341TIP3    H115968   2.725   6.784   1.392
 5341TIP3    H215969   2.830   6.677   1.369
 5342TIP3   OH215970   3.964   7.168   2.240
 5342TIP3    H115971   3.870   7.178   2.255
 5342TIP3    H215972   3.971   7.110   2.163
 5343TIP3   OH215973   3.628   7.373   1.636
 5343TIP3    H115974   3.552   7.315   1.646
 5343TIP3    H215975   3.697   7.332   1.688
 5344TIP3   OH215976   2.374   7.602   1.091
 5344TIP3    H115977   2.420   7.684   1.071
 5344TIP3    H215978   2.423   7.535   1.044
 5345TIP3   OH215979   2.277   6.859   1.246
 5345TIP3    H115980   2.286   6.954   1.240
 5345TIP3    H215981   2.213   6.837   1.178
 5346TIP3   OH215982   2.688   6.533   2.051
 5346TIP3    H115983   2.783   6.527   2.059
 5346TIP3    H215984   2.655   6.502   2.135
 5347TIP3   OH215985   2.510   7.704   2.784
 5347TIP3    H115986   2.555   7.620   2.772
 5347TIP3    H215987   2.443   7.705   2.716
 5348TIP3   OH215988   2.499   7.382   0.990
 5348TIP3    H115989   2.557   7.363   1.064
 5348TIP3    H215990   2.557   7.384   0.915
 5349TIP3   OH215991   3.129   7.779   2.568
 5349TIP3    H115992   3.098   7.804   2.480
 5349TIP3    H215993   3.160   7.689   2.557
 5350TIP3   OH215994   2.918   7.613   0.821
 5350TIP3    H115995   2.978   7.631   0.894
 5350TIP3    H215996   2.936   7.522   0.797
 5351TIP3   OH215997   3.597   7.853   2.110
 5351TIP3    H115998   3.667   7.908   2.075
 5351TIP3    H215999   3.555   7.907   2.177
 5352TIP3   OH216000   2.659   7.475   2.756
 5352TIP3    H116001   2.739   7.464   2.705
 5352TIP3    H216002   2.689   7.506   2.841
 5353TIP3   OH216003   2.687   7.323   1.180
 5353TIP3    H116004   2.669   7.286   1.266
 5353TIP3    H216005   2.727   7.251   1.131
 5354TIP3   OH216006   2.973   7.405   2.404
 5354TIP3    H116007   2.892   7.456   2.408
 5354TIP3    H216008   3.020   7.441   2.329
 5355TIP3   OH216009   2.796   7.134   1.008
 5355TIP3    H116010   2.770   7.134   0.916
 5355TIP3    H216011   2.891   7.146   1.007
 5356TIP3   OH216012   3.458   7.720   2.513
 5356TIP3    H116013   3.547   7.745   2.485
 5356TIP3    H216014   3.470   7.682   2.600
 5357TIP3   OH216015   3.520   7.481   0.772
 5357TIP3    H116016   3.567   7.474   0.689
 5357TIP3    H216017   3.458   7.552   0.757
 5358TIP3   OH216018   3.076   7.171   2.509
 5358TIP3    H116019   3.090   7.103   2.443
 5358TIP3    H216020   3.041   7.246   2.459
 5359TIP3   OH216021   3.092   6.975   2.310
 5359TIP3    H116022   3.113   7.006   2.222
 5359TIP3    H216023   3.003   6.941   2.303
 5360TIP3   OH216024   3.141   7.505   2.218
 5360TIP3    H116025   3.233   7.496   2.194
 5360TIP3    H216026   3.100   7.545   2.141
 5361TIP3   OH216027   3.729   7.474   2.579
 5361TIP3    H116028   3.793   7.404   2.569
 5361TIP3    H216029   3.780   7.555   2.570
 5362TIP3   OH216030   3.733   7.718   2.307
 5362TIP3    H116031   3.676   7.767   2.247
 5362TIP3    H216032   3.821   7.739   2.277
 5363TIP3   OH216033   3.034   7.218   2.769
 5363TIP3    H116034   2.951   7.172   2.786
 5363TIP3    H216035   3.052   7.200   2.677
 5364TIP3   OH216036   3.223   6.755   2.418
 5364TIP3    H116037   3.182   6.835   2.385
 5364TIP3    H216038   3.158   6.686   2.404
 5365TIP3   OH216039   3.583   7.178   2.513
 5365TIP3    H116040   3.533   7.100   2.534
 5365TIP3    H216041   3.665   7.168   2.560
 5366TIP3   OH216042   3.819   7.142   2.650
 5366TIP3    H116043   3.838   7.048   2.658
 5366TIP3    H216044   3.812   7.172   2.741
 5367TIP3   OH216045   2.808   7.063   2.838
 5367TIP3    H116046   2.808   6.978   2.793
 5367TIP3    H216047   2.849   7.045   2.923
 5368TIP3   OH216048   3.299   6.739   2.682
 5368TIP3    H116049   3.367   6.671   2.680
 5368TIP3    H216050   3.266   6.743   2.593
 5369TIP3   OH216051   3.307   6.965   2.841
 5369TIP3    H116052   3.330   6.896   2.778
 5369TIP3    H216053   3.212   6.958   2.849
 5370TIP3   OH216054   2.111   7.539   1.146
 5370TIP3    H116055   2.196   7.571   1.115
 5370TIP3    H216056   2.089   7.466   1.087
 5371TIP3   OH216057   6.802   0.106   2.362
 5371TIP3    H116058   6.710   0.125   2.345
 5371TIP3    H216059   6.848   0.188   2.340
 5372TIP3   OH216060   3.745   7.659   1.080
 5372TIP3    H116061   3.807   7.730   1.064
 5372TIP3    H216062   3.786   7.605   1.148
 5373TIP3   OH216063   3.886   7.501   1.245
 5373TIP3    H116064   3.828   7.456   1.307
 5373TIP3    H216065   3.954   7.540   1.300
 5374TIP3   OH216066   3.934   7.901   1.641
 5374TIP3    H116067   3.993   7.830   1.618
 5374TIP3    H216068   3.941   7.963   1.568
 5375TIP3   OH216069   3.733   7.425   0.936
 5375TIP3    H116070   3.650   7.433   0.889
 5375TIP3    H216071   3.732   7.498   0.999
 5376TIP3   OH216072   3.603   7.123   0.916
 5376TIP3    H116073   3.663   7.148   0.846
 5376TIP3    H216074   3.590   7.029   0.904
 5377TIP3   OH216075   3.700   7.347   1.373
 5377TIP3    H116076   3.700   7.252   1.361
 5377TIP3    H216077   3.680   7.359   1.466
 5378TIP3   OH216078   2.319   7.409   2.130
 5378TIP3    H116079   2.314   7.382   2.038
 5378TIP3    H216080   2.413   7.415   2.148
 5379TIP3   OH216081   3.987   7.775   2.227
 5379TIP3    H116082   4.052   7.708   2.208
 5379TIP3    H216083   4.015   7.851   2.176
 5380TIP3   OH216084   4.162   7.567   2.209
 5380TIP3    H116085   4.089   7.523   2.253
 5380TIP3    H216086   4.238   7.513   2.229
 5381TIP3   OH216087   3.559   6.868   0.846
 5381TIP3    H116088   3.630   6.818   0.807
 5381TIP3    H216089   3.486   6.807   0.852
 5382TIP3   OH216090   3.694   7.081   1.271
 5382TIP3    H116091   3.732   6.994   1.285
 5382TIP3    H216092   3.749   7.121   1.203
 5383TIP3   OH216093   3.848   7.255   1.763
 5383TIP3    H116094   3.929   7.275   1.715
 5383TIP3    H216095   3.864   7.291   1.850
 5384TIP3   OH216096   3.923   7.399   1.993
 5384TIP3    H116097   3.848   7.428   2.045
 5384TIP3    H216098   3.956   7.478   1.951
 5385TIP3   OH216099   2.541   7.101   2.772
 5385TIP3    H116100   2.635   7.101   2.788
 5385TIP3    H216101   2.511   7.017   2.808
 5386TIP3   OH216102   4.378   7.008   2.525
 5386TIP3    H116103   4.442   6.947   2.487
 5386TIP3    H216104   4.340   7.053   2.450
 5387TIP3   OH216105   3.787   6.833   1.319
 5387TIP3    H116106   3.842   6.810   1.395
 5387TIP3    H216107   3.732   6.755   1.306
 5388TIP3   OH216108   2.521   6.810   2.100
 5388TIP3    H116109   2.540   6.776   2.187
 5388TIP3    H216110   2.576   6.888   2.092
 5389TIP3   OH216111   2.302   7.064   2.180
 5389TIP3    H116112   2.348   7.068   2.096
 5389TIP3    H216113   2.327   7.145   2.225
 5390TIP3   OH216114   4.227   7.111   2.321
 5390TIP3    H116115   4.140   7.151   2.332
 5390TIP3    H216116   4.211   7.031   2.272
 5391TIP3   OH216117   3.875   6.785   1.015
 5391TIP3    H116118   3.893   6.714   0.954
 5391TIP3    H216119   3.850   6.859   0.958
 5392TIP3   OH216120   2.509   6.690   2.518
 5392TIP3    H116121   2.457   6.656   2.592
 5392TIP3    H216122   2.444   6.721   2.455
 5393TIP3   OH216123   4.145   6.858   2.228
 5393TIP3    H116124   4.055   6.839   2.200
 5393TIP3    H216125   4.190   6.774   2.222
 5394TIP3   OH216126   3.306   6.750   1.808
 5394TIP3    H116127   3.289   6.692   1.882
 5394TIP3    H216128   3.400   6.743   1.792
 5395TIP3   OH216129   3.856   6.715   1.764
 5395TIP3    H116130   3.894   6.758   1.688
 5395TIP3    H216131   3.762   6.731   1.756
 5396TIP3   OH216132   3.965   6.783   1.524
 5396TIP3    H116133   4.034   6.725   1.492
 5396TIP3    H216134   3.998   6.871   1.509
 5397TIP3   OH216135   2.411   6.448   1.519
 5397TIP3    H116136   2.452   6.463   1.434
 5397TIP3    H216137   2.348   6.520   1.527
 5398TIP3   OH216138   3.013   6.569   1.752
 5398TIP3    H116139   3.072   6.598   1.683
 5398TIP3    H216140   3.065   6.575   1.832
 5399TIP3   OH216141   3.573   6.707   1.734
 5399TIP3    H116142   3.585   6.681   1.642
 5399TIP3    H216143   3.571   6.624   1.782
 5400TIP3   OH216144   3.611   6.619   1.304
 5400TIP3    H116145   3.530   6.667   1.321
 5400TIP3    H216146   3.599   6.535   1.347
 5401TIP3   OH216147   2.529   6.525   1.275
 5401TIP3    H116148   2.572   6.463   1.216
 5401TIP3    H216149   2.599   6.581   1.307
 5402TIP3   OH216150   3.009   6.727   1.381
 5402TIP3    H116151   3.074   6.678   1.432
 5402TIP3    H216152   3.023   6.818   1.407
 5403TIP3   OH216153   2.819   6.798   2.747
 5403TIP3    H116154   2.787   6.727   2.802
 5403TIP3    H216155   2.914   6.798   2.761
 5404TIP3   OH216156   3.077   6.788   2.859
 5404TIP3    H116157   3.150   6.756   2.805
 5404TIP3    H216158   3.066   6.720   2.926
 5405TIP3   OH216159   3.891   6.874   2.656
 5405TIP3    H116160   3.906   6.842   2.744
 5405TIP3    H216161   3.977   6.868   2.613
 5406TIP3   OH216162   4.958   7.838   0.938
 5406TIP3    H116163   4.978   7.915   0.884
 5406TIP3    H216164   4.872   7.810   0.908
 5407TIP3   OH216165   5.003   7.767   1.355
 5407TIP3    H116166   5.079   7.770   1.413
 5407TIP3    H216167   4.981   7.674   1.348
 5408TIP3   OH216168   4.373   7.654   1.678
 5408TIP3    H116169   4.407   7.596   1.746
 5408TIP3    H216170   4.451   7.688   1.635
 5409TIP3   OH216171   8.138   0.018   0.920
 5409TIP3    H116172   8.214  -0.027   0.958
 5409TIP3    H216173   8.165   0.110   0.914
 5410TIP3   OH216174   4.421   8.011   1.465
 5410TIP3    H116175   4.374   7.936   1.428
 5410TIP3    H216176   4.484   8.035   1.397
 5411TIP3   OH216177   4.053   7.288   1.192
 5411TIP3    H116178   4.009   7.369   1.216
 5411TIP3    H216179   3.983   7.228   1.167
 5412TIP3   OH216180   4.117   7.580   1.372
 5412TIP3    H116181   4.169   7.504   1.396
 5412TIP3    H216182   4.182   7.647   1.349
 5413TIP3   OH216183   4.898   8.021   1.358
 5413TIP3    H116184   4.928   7.932   1.338
 5413TIP3    H216185   4.978   8.069   1.381
 5414TIP3   OH216186   5.926   7.327   1.422
 5414TIP3    H116187   5.955   7.404   1.471
 5414TIP3    H216188   5.868   7.362   1.355
 5415TIP3   OH216189   5.283   7.522   1.407
 5415TIP3    H116190   5.357   7.462   1.405
 5415TIP3    H216191   5.289   7.571   1.325
 5416TIP3   OH216192   4.646   7.144   1.350
 5416TIP3    H116193   4.619   7.218   1.294
 5416TIP3    H216194   4.596   7.070   1.317
 5417TIP3   OH216195   5.334   7.259   0.963
 5417TIP3    H116196   5.424   7.238   0.989
 5417TIP3    H216197   5.343   7.336   0.908
 5418TIP3   OH216198   4.269   7.370   1.460
 5418TIP3    H116199   4.353   7.353   1.503
 5418TIP3    H216200   4.268   7.312   1.384
 5419TIP3   OH216201   4.701   7.557   1.314
 5419TIP3    H116202   4.789   7.527   1.338
 5419TIP3    H216203   4.652   7.476   1.298
 5420TIP3   OH216204   5.985   7.556   1.556
 5420TIP3    H116205   5.895   7.585   1.565
 5420TIP3    H216206   6.027   7.579   1.639
 5421TIP3   OH216207   4.627   7.152   1.776
 5421TIP3    H116208   4.577   7.188   1.703
 5421TIP3    H216209   4.572   7.168   1.853
 5422TIP3   OH216210   7.775   0.042   0.783
 5422TIP3    H116211   7.704   0.028   0.720
 5422TIP3    H216212   7.733   0.082   0.859
 5423TIP3   OH216213   4.738   7.929   1.562
 5423TIP3    H116214   4.682   7.996   1.600
 5423TIP3    H216215   4.789   7.976   1.495
 5424TIP3   OH216216   5.488   7.372   1.311
 5424TIP3    H116217   5.487   7.283   1.276
 5424TIP3    H216218   5.581   7.394   1.318
 5425TIP3   OH216219   4.511   7.267   1.555
 5425TIP3    H116220   4.567   7.342   1.575
 5425TIP3    H216221   4.558   7.220   1.486
 5426TIP3   OH216222   7.402   0.105   1.668
 5426TIP3    H116223   7.346   0.078   1.595
 5426TIP3    H216224   7.340   0.124   1.739
 5427TIP3   OH216225   3.989   7.784   1.033
 5427TIP3    H116226   3.969   7.759   0.943
 5427TIP3    H216227   3.979   7.879   1.034
 5428TIP3   OH216228   5.681   7.240   1.543
 5428TIP3    H116229   5.594   7.257   1.507
 5428TIP3    H216230   5.741   7.272   1.476
 5429TIP3   OH216231   4.978   6.835   1.533
 5429TIP3    H116232   4.965   6.742   1.552
 5429TIP3    H216233   4.900   6.878   1.568
 5430TIP3   OH216234   8.403   0.244   1.525
 5430TIP3    H116235   8.336   0.215   1.463
 5430TIP3    H216236   8.428   0.331   1.493
 5431TIP3   OH216237   4.873   7.585   0.722
 5431TIP3    H116238   4.806   7.650   0.743
 5431TIP3    H216239   4.910   7.614   0.639
 5432TIP3   OH216240   5.803   7.903   1.384
 5432TIP3    H116241   5.710   7.927   1.375
 5432TIP3    H216242   5.838   7.909   1.295
 5433TIP3   OH216243   5.280   7.694   0.610
 5433TIP3    H116244   5.220   7.764   0.635
 5433TIP3    H216245   5.307   7.654   0.692
 5434TIP3   OH216246   5.483   7.739   1.666
 5434TIP3    H116247   5.479   7.816   1.721
 5434TIP3    H216248   5.410   7.748   1.605
 5435TIP3   OH216249   4.491   7.676   1.174
 5435TIP3    H116250   4.451   7.608   1.120
 5435TIP3    H216251   4.571   7.635   1.208
 5436TIP3   OH216252   7.468   0.085   1.312
 5436TIP3    H116253   7.461   0.176   1.285
 5436TIP3    H216254   7.562   0.070   1.320
 5437TIP3   OH216255   4.587   7.708   1.512
 5437TIP3    H116256   4.630   7.669   1.436
 5437TIP3    H216257   4.638   7.787   1.529
 5438TIP3   OH216258   7.647   0.162   1.791
 5438TIP3    H116259   7.630   0.254   1.810
 5438TIP3    H216260   7.567   0.131   1.748
 5439TIP3   OH216261   4.529   7.772   1.947
 5439TIP3    H116262   4.536   7.863   1.973
 5439TIP3    H216263   4.435   7.755   1.941
 5440TIP3   OH216264   4.371   7.519   0.992
 5440TIP3    H116265   4.316   7.589   0.957
 5440TIP3    H216266   4.321   7.439   0.975
 5441TIP3   OH216267   4.171   7.942   1.840
 5441TIP3    H116268   4.113   7.919   1.767
 5441TIP3    H216269   4.209   7.859   1.868
 5442TIP3   OH216270   5.733   7.703   1.841
 5442TIP3    H116271   5.666   7.712   1.773
 5442TIP3    H216272   5.755   7.610   1.840
 5443TIP3   OH216273   7.208   0.120   1.857
 5443TIP3    H116274   7.253   0.086   1.935
 5443TIP3    H216275   7.131   0.064   1.847
 5444TIP3   OH216276   4.737   6.937   1.632
 5444TIP3    H116277   4.654   6.906   1.595
 5444TIP3    H216278   4.715   7.020   1.675
 5445TIP3   OH216279   5.256   7.070   1.855
 5445TIP3    H116280   5.281   7.115   1.936
 5445TIP3    H216281   5.165   7.044   1.870
 5446TIP3   OH216282   5.497   7.475   1.746
 5446TIP3    H116283   5.460   7.470   1.834
 5446TIP3    H216284   5.481   7.565   1.718
 5447TIP3   OH216285   4.824   7.001   0.610
 5447TIP3    H116286   4.804   6.995   0.704
 5447TIP3    H216287   4.794   6.917   0.575
 5448TIP3   OH216288   4.667   7.477   1.641
 5448TIP3    H116289   4.622   7.480   1.725
 5448TIP3    H216290   4.647   7.560   1.599
 5449TIP3   OH216291   4.535   7.362   1.227
 5449TIP3    H116292   4.447   7.326   1.240
 5449TIP3    H216293   4.555   7.346   1.135
 5450TIP3   OH216294   5.268   7.484   0.815
 5450TIP3    H116295   5.195   7.528   0.859
 5450TIP3    H216296   5.228   7.411   0.769
 5451TIP3   OH216297   5.236   7.687   1.963
 5451TIP3    H116298   5.213   7.621   2.028
 5451TIP3    H216299   5.328   7.707   1.981
 5452TIP3   OH216300   5.116   7.427   1.140
 5452TIP3    H116301   5.074   7.455   1.059
 5452TIP3    H216302   5.118   7.332   1.135
 5453TIP3   OH216303   4.504   7.485   1.860
 5453TIP3    H116304   4.525   7.549   1.929
 5453TIP3    H216305   4.490   7.403   1.908
 5454TIP3   OH216306   4.429   6.914   0.612
 5454TIP3    H116307   4.497   6.922   0.678
 5454TIP3    H216308   4.397   7.003   0.599
 5455TIP3   OH216309   4.086   7.014   1.449
 5455TIP3    H116310   4.167   7.040   1.493
 5455TIP3    H216311   4.116   6.968   1.371
 5456TIP3   OH216312   4.088   7.033   1.026
 5456TIP3    H116313   4.096   6.982   0.945
 5456TIP3    H216314   4.000   7.070   1.022
 5457TIP3   OH216315   5.179   7.709   1.570
 5457TIP3    H116316   5.219   7.647   1.510
 5457TIP3    H216317   5.157   7.657   1.647
 5458TIP3   OH216318   4.911   7.201   1.274
 5458TIP3    H116319   4.831   7.172   1.318
 5458TIP3    H216320   4.980   7.148   1.313
 5459TIP3   OH216321   4.312   7.206   1.247
 5459TIP3    H116322   4.221   7.198   1.219
 5459TIP3    H216323   4.349   7.118   1.235
 5460TIP3   OH216324   4.593   7.293   0.977
 5460TIP3    H116325   4.688   7.282   0.966
 5460TIP3    H216326   4.561   7.307   0.888
 5461TIP3   OH216327   5.387   7.168   1.489
 5461TIP3    H116328   5.327   7.220   1.542
 5461TIP3    H216329   5.339   7.152   1.408
 5462TIP3   OH216330   4.428   7.329   0.747
 5462TIP3    H116331   4.379   7.248   0.757
 5462TIP3    H216332   4.479   7.316   0.667
 5463TIP3   OH216333   7.348   0.008   2.069
 5463TIP3    H116334   7.425   0.030   2.121
 5463TIP3    H216335   7.276   0.009   2.131
 5464TIP3   OH216336   4.960   7.496   1.357
 5464TIP3    H116337   5.021   7.456   1.295
 5464TIP3    H216338   4.969   7.444   1.437
 5465TIP3   OH216339   4.458   6.972   1.241
 5465TIP3    H116340   4.427   6.894   1.288
 5465TIP3    H216341   4.484   6.938   1.155
 5466TIP3   OH216342   4.932   7.399   1.614
 5466TIP3    H116343   4.845   7.439   1.624
 5466TIP3    H216344   4.990   7.457   1.662
 5467TIP3   OH216345   4.723   7.808   0.773
 5467TIP3    H116346   4.678   7.780   0.693
 5467TIP3    H216347   4.655   7.806   0.840
 5468TIP3   OH216348   5.553   7.974   1.310
 5468TIP3    H116349   5.573   8.041   1.246
 5468TIP3    H216350   5.467   7.998   1.345
 5469TIP3   OH216351   7.917   0.103   1.728
 5469TIP3    H116352   7.956   0.088   1.814
 5469TIP3    H216353   7.825   0.123   1.747
 5470TIP3   OH216354   4.334   7.756   1.376
 5470TIP3    H116355   4.381   7.739   1.295
 5470TIP3    H216356   4.395   7.729   1.445
 5471TIP3   OH216357   4.256   7.713   1.980
 5471TIP3    H116358   4.266   7.691   2.073
 5471TIP3    H216359   4.178   7.666   1.952
 5472TIP3   OH216360   4.996   7.825   2.005
 5472TIP3    H116361   4.928   7.768   1.967
 5472TIP3    H216362   5.078   7.790   1.971
 5473TIP3   OH216363   0.192   0.242   1.611
 5473TIP3    H116364   0.111   0.280   1.642
 5473TIP3    H216365   0.235   0.313   1.562
 5474TIP3   OH216366   5.281   7.884   1.322
 5474TIP3    H116367   5.221   7.925   1.259
 5474TIP3    H216368   5.295   7.796   1.288
 5475TIP3   OH216369   4.108   7.391   0.647
 5475TIP3    H116370   4.190   7.440   0.637
 5475TIP3    H216371   4.065   7.431   0.723
 5476TIP3   OH216372   4.535   7.847   0.964
 5476TIP3    H116373   4.606   7.885   1.016
 5476TIP3    H216374   4.497   7.780   1.020
 5477TIP3   OH216375   7.979   0.071   1.463
 5477TIP3    H116376   7.956   0.075   1.556
 5477TIP3    H216377   8.025  -0.012   1.453
 5478TIP3   OH216378   4.459   7.232   1.982
 5478TIP3    H116379   4.364   7.239   1.985
 5478TIP3    H216380   4.481   7.179   2.059
 5479TIP3   OH216381   4.222   7.719   0.883
 5479TIP3    H116382   4.163   7.748   0.952
 5479TIP3    H216383   4.201   7.773   0.808
 5480TIP3   OH216384   5.279   7.306   1.705
 5480TIP3    H116385   5.366   7.344   1.714
 5480TIP3    H216386   5.284   7.223   1.751
 5481TIP3   OH216387   5.098   7.132   0.943
 5481TIP3    H116388   5.068   7.167   0.859
 5481TIP3    H216389   5.188   7.164   0.952
 5482TIP3   OH216390   4.862   7.273   1.020
 5482TIP3    H116391   4.946   7.255   0.977
 5482TIP3    H216392   4.878   7.253   1.112
 5483TIP3   OH216393   5.125   7.526   1.764
 5483TIP3    H116394   5.168   7.572   1.836
 5483TIP3    H216395   5.178   7.449   1.749
 5484TIP3   OH216396   5.012   6.937   1.113
 5484TIP3    H116397   5.045   6.975   1.195
 5484TIP3    H216398   5.048   6.993   1.044
 5485TIP3   OH216399   4.499   6.889   0.986
 5485TIP3    H116400   4.468   6.975   0.959
 5485TIP3    H216401   4.568   6.867   0.923
 5486TIP3   OH216402   5.764   7.429   1.749
 5486TIP3    H116403   5.669   7.440   1.752
 5486TIP3    H216404   5.778   7.361   1.683
 5487TIP3   OH216405   5.527   7.550   1.102
 5487TIP3    H116406   5.441   7.592   1.103
 5487TIP3    H216407   5.521   7.482   1.170
 5488TIP3   OH216408   4.160   7.824   0.633
 5488TIP3    H116409   4.156   7.917   0.608
 5488TIP3    H216410   4.232   7.789   0.581
 5489TIP3   OH216411   4.085   7.131   0.757
 5489TIP3    H116412   4.122   7.186   0.826
 5489TIP3    H216413   4.024   7.189   0.711
 5490TIP3   OH216414   4.474   6.855   1.594
 5490TIP3    H116415   4.442   6.821   1.511
 5490TIP3    H216416   4.466   6.781   1.655
 5491TIP3   OH216417   4.304   8.002   2.242
 5491TIP3    H116418   4.321   7.908   2.248
 5491TIP3    H216419   4.217   8.008   2.201
 5492TIP3   OH216420   7.736   0.071   2.037
 5492TIP3    H116421   7.709   0.094   1.948
 5492TIP3    H216422   7.782  -0.013   2.027
 5493TIP3   OH216423   8.210   0.117   1.682
 5493TIP3    H116424   8.271   0.174   1.635
 5493TIP3    H216425   8.124   0.154   1.663
 5494TIP3   OH216426   4.430   7.749   2.239
 5494TIP3    H116427   4.507   7.745   2.182
 5494TIP3    H216428   4.463   7.781   2.323
 5495TIP3   OH216429   4.601   7.637   0.587
 5495TIP3    H116430   4.591   7.594   0.672
 5495TIP3    H216431   4.656   7.578   0.536
 5496TIP3   OH216432   4.781   7.661   1.899
 5496TIP3    H116433   4.698   7.706   1.907
 5496TIP3    H216434   4.818   7.691   1.817
 5497TIP3   OH216435   8.100   0.040   2.003
 5497TIP3    H116436   8.173   0.012   1.948
 5497TIP3    H216437   8.103  -0.019   2.078
 5498TIP3   OH216438   4.891   7.438   2.014
 5498TIP3    H116439   4.890   7.364   1.953
 5498TIP3    H216440   4.856   7.511   1.963
 5499TIP3   OH216441   4.884   7.229   1.825
 5499TIP3    H116442   4.914   7.273   1.745
 5499TIP3    H216443   4.793   7.206   1.807
 5500TIP3   OH216444   4.912   7.759   1.684
 5500TIP3    H116445   4.997   7.765   1.641
 5500TIP3    H216446   4.857   7.824   1.639
 5501TIP3   OH216447   5.494   7.732   2.058
 5501TIP3    H116448   5.540   7.670   2.115
 5501TIP3    H216449   5.563   7.773   2.006
 5502TIP3   OH216450   5.523   7.964   1.828
 5502TIP3    H116451   5.466   8.024   1.779
 5502TIP3    H216452   5.610   7.978   1.791
 5503TIP3   OH216453   4.768   7.525   2.252
 5503TIP3    H116454   4.698   7.463   2.270
 5503TIP3    H216455   4.798   7.503   2.164
 5504TIP3   OH216456   4.998   6.994   1.907
 5504TIP3    H116457   4.955   7.075   1.879
 5504TIP3    H216458   4.932   6.926   1.893
 5505TIP3   OH216459   5.148   7.476   2.116
 5505TIP3    H116460   5.126   7.467   2.208
 5505TIP3    H216461   5.066   7.459   2.070
 5506TIP3   OH216462   5.396   7.417   1.992
 5506TIP3    H116463   5.319   7.430   2.048
 5506TIP3    H216464   5.466   7.393   2.052
 5507TIP3   OH216465   5.626   7.351   2.156
 5507TIP3    H116466   5.613   7.287   2.225
 5507TIP3    H216467   5.614   7.436   2.199
 5508TIP3   OH216468   4.599   7.307   2.315
 5508TIP3    H116469   4.606   7.218   2.281
 5508TIP3    H216470   4.636   7.302   2.403
 5509TIP3   OH216471   5.108   6.995   2.157
 5509TIP3    H116472   5.167   6.920   2.151
 5509TIP3    H216473   5.061   6.995   2.074
 5510TIP3   OH216474   5.181   7.206   2.317
 5510TIP3    H116475   5.154   7.137   2.257
 5510TIP3    H216476   5.108   7.268   2.316
 5511TIP3   OH216477   3.902   7.830   0.474
 5511TIP3    H116478   3.813   7.856   0.499
 5511TIP3    H216479   3.895   7.737   0.451
 5512TIP3   OH216480   0.098   0.390   1.867
 5512TIP3    H116481   0.028   0.384   1.932
 5512TIP3    H216482   0.127   0.481   1.872
 5513TIP3   OH216483   8.454   0.128   1.112
 5513TIP3    H116484   8.516   0.131   1.039
 5513TIP3    H216485   8.378   0.178   1.081
 5514TIP3   OH216486   5.481   7.676   0.825
 5514TIP3    H116487   5.485   7.583   0.850
 5514TIP3    H216488   5.551   7.717   0.875
 5515TIP3   OH216489   4.111   7.696   1.620
 5515TIP3    H116490   4.101   7.655   1.534
 5515TIP3    H216491   4.206   7.691   1.637
 5516TIP3   OH216492   0.101   0.007   1.722
 5516TIP3    H116493   0.169  -0.060   1.713
 5516TIP3    H216494   0.131   0.078   1.665
 5517TIP3   OH216495   5.955   7.822   1.725
 5517TIP3    H116496   5.881   7.774   1.762
 5517TIP3    H216497   6.032   7.772   1.753
 5518TIP3   OH216498   5.534   7.224   0.566
 5518TIP3    H116499   5.537   7.188   0.654
 5518TIP3    H216500   5.500   7.313   0.577
 5519TIP3   OH216501   5.730   7.481   1.323
 5519TIP3    H116502   5.779   7.533   1.259
 5519TIP3    H216503   5.697   7.545   1.386
 5520TIP3   OH216504   5.741   7.677   1.538
 5520TIP3    H116505   5.646   7.683   1.548
 5520TIP3    H216506   5.764   7.752   1.483
 5521TIP3   OH216507   4.335   7.359   2.255
 5521TIP3    H116508   4.429   7.357   2.273
 5521TIP3    H216509   4.302   7.277   2.292
 5522TIP3   OH216510   6.193   7.260   2.028
 5522TIP3    H116511   6.251   7.200   1.981
 5522TIP3    H216512   6.135   7.295   1.960
 5523TIP3   OH216513   5.574   7.101   0.801
 5523TIP3    H116514   5.614   7.058   0.876
 5523TIP3    H216515   5.486   7.065   0.796
 5524TIP3   OH216516   4.306   7.075   1.611
 5524TIP3    H116517   4.362   6.998   1.614
 5524TIP3    H216518   4.366   7.148   1.594
 5525TIP3   OH216519   4.091   7.347   1.673
 5525TIP3    H116520   4.140   7.339   1.591
 5525TIP3    H216521   4.135   7.417   1.721
 5526TIP3   OH216522   6.023   7.362   1.836
 5526TIP3    H116523   5.938   7.405   1.844
 5526TIP3    H216524   6.004   7.279   1.794
 5527TIP3   OH216525   4.080   6.845   1.221
 5527TIP3    H116526   3.987   6.823   1.213
 5527TIP3    H216527   4.095   6.910   1.153
 5528TIP3   OH216528   4.299   6.913   1.994
 5528TIP3    H116529   4.244   6.901   2.072
 5528TIP3    H216530   4.243   6.959   1.932
 5529TIP3   OH216531   5.937   7.123   1.732
 5529TIP3    H116532   5.844   7.102   1.718
 5529TIP3    H216533   5.978   7.038   1.749
 5530TIP3   OH216534   5.093   7.015   1.361
 5530TIP3    H116535   5.074   6.949   1.428
 5530TIP3    H216536   5.188   7.009   1.348
 5531TIP3   OH216537   5.647   6.989   1.299
 5531TIP3    H116538   5.680   7.070   1.261
 5531TIP3    H216539   5.554   7.005   1.314
 5532TIP3   OH216540   5.753   7.011   0.984
 5532TIP3    H116541   5.824   6.954   0.956
 5532TIP3    H216542   5.784   7.100   0.966
 5533TIP3   OH216543   4.375   6.744   1.364
 5533TIP3    H116544   4.285   6.711   1.371
 5533TIP3    H216545   4.429   6.667   1.351
 5534TIP3   OH216546   4.170   6.629   1.066
 5534TIP3    H116547   4.188   6.673   0.983
 5534TIP3    H216548   4.145   6.699   1.125
 5535TIP3   OH216549   4.836   6.805   1.275
 5535TIP3    H116550   4.877   6.854   1.204
 5535TIP3    H216551   4.882   6.833   1.354
 5536TIP3   OH216552   5.361   6.938   1.301
 5536TIP3    H116553   5.377   6.927   1.207
 5536TIP3    H216554   5.349   6.848   1.334
 5537TIP3   OH216555   5.485   6.788   0.810
 5537TIP3    H116556   5.427   6.854   0.773
 5537TIP3    H216557   5.433   6.746   0.879
 5538TIP3   OH216558   4.243   6.833   0.871
 5538TIP3    H116559   4.239   6.760   0.810
 5538TIP3    H216560   4.333   6.833   0.904
 5539TIP3   OH216561   4.810   7.025   0.892
 5539TIP3    H116562   4.852   6.946   0.928
 5539TIP3    H216563   4.836   7.095   0.952
 5540TIP3   OH216564   4.610   7.035   2.232
 5540TIP3    H116565   4.574   6.968   2.290
 5540TIP3    H216566   4.702   7.042   2.257
 5541TIP3   OH216567   4.857   7.040   2.359
 5541TIP3    H116568   4.939   7.016   2.317
 5541TIP3    H216569   4.843   6.973   2.425
 5542TIP3   OH216570   6.214   7.878   1.075
 5542TIP3    H116571   6.210   7.919   1.161
 5542TIP3    H216572   6.155   7.930   1.021
 5543TIP3   OH216573   6.072   7.621   0.846
 5543TIP3    H116574   6.120   7.551   0.890
 5543TIP3    H216575   6.122   7.638   0.766
 5544TIP3   OH216576   6.386   7.471   1.241
 5544TIP3    H116577   6.315   7.530   1.216
 5544TIP3    H216578   6.358   7.435   1.325
 5545TIP3   OH216579   6.242   7.416   0.976
 5545TIP3    H116580   6.243   7.491   1.035
 5545TIP3    H216581   6.334   7.400   0.955
 5546TIP3   OH216582   6.780   7.206   0.986
 5546TIP3    H116583   6.755   7.160   0.907
 5546TIP3    H216584   6.703   7.204   1.042
 5547TIP3   OH216585   0.697   0.108   1.544
 5547TIP3    H116586   0.604   0.129   1.534
 5547TIP3    H216587   0.710   0.032   1.488
 5548TIP3   OH216588   0.373   0.178   1.329
 5548TIP3    H116589   0.284   0.194   1.298
 5548TIP3    H216590   0.362   0.123   1.407
 5549TIP3   OH216591   6.548   7.224   1.141
 5549TIP3    H116592   6.473   7.176   1.107
 5549TIP3    H216593   6.520   7.256   1.227
 5550TIP3   OH216594   7.123   7.272   1.343
 5550TIP3    H116595   7.174   7.349   1.368
 5550TIP3    H216596   7.032   7.302   1.345
 5551TIP3   OH216597   6.487   7.765   1.214
 5551TIP3    H116598   6.437   7.766   1.296
 5551TIP3    H216599   6.472   7.852   1.177
 5552TIP3   OH216600   6.334   7.737   1.440
 5552TIP3    H116601   6.272   7.803   1.409
 5552TIP3    H216602   6.280   7.661   1.460
 5553TIP3   OH216603   5.816   7.257   0.860
 5553TIP3    H116604   5.870   7.315   0.912
 5553TIP3    H216605   5.833   7.283   0.769
 5554TIP3   OH216606   6.026   7.989   1.513
 5554TIP3    H116607   6.036   7.951   1.600
 5554TIP3    H216608   5.936   7.967   1.488
 5555TIP3   OH216609   6.256   7.470   1.500
 5555TIP3    H116610   6.162   7.470   1.520
 5555TIP3    H216611   6.294   7.408   1.562
 5556TIP3   OH216612   6.331   7.114   1.037
 5556TIP3    H116613   6.254   7.153   0.997
 5556TIP3    H216614   6.330   7.023   1.008
 5557TIP3   OH216615   0.441   0.233   1.734
 5557TIP3    H116616   0.466   0.141   1.738
 5557TIP3    H216617   0.353   0.233   1.696
 5558TIP3   OH216618   6.225   7.996   1.756
 5558TIP3    H116619   6.302   8.005   1.700
 5558TIP3    H216620   6.252   8.032   1.840
 5559TIP3   OH216621   6.746   7.711   1.624
 5559TIP3    H116622   6.830   7.719   1.579
 5559TIP3    H216623   6.691   7.662   1.562
 5560TIP3   OH216624   6.661   7.503   1.186
 5560TIP3    H116625   6.688   7.575   1.129
 5560TIP3    H216626   6.566   7.513   1.195
 5561TIP3   OH216627   6.533   7.824   1.761
 5561TIP3    H116628   6.475   7.750   1.778
 5561TIP3    H216629   6.608   7.786   1.716
 5562TIP3   OH216630   6.866   7.348   1.300
 5562TIP3    H116631   6.809   7.421   1.273
 5562TIP3    H216632   6.814   7.270   1.280
 5563TIP3   OH216633   6.399   7.578   1.812
 5563TIP3    H116634   6.405   7.493   1.767
 5563TIP3    H216635   6.434   7.561   1.900
 5564TIP3   OH216636   6.988   7.293   1.622
 5564TIP3    H116637   7.051   7.222   1.623
 5564TIP3    H216638   6.906   7.252   1.592
 5565TIP3   OH216639   7.005   7.463   1.834
 5565TIP3    H116640   7.000   7.409   1.755
 5565TIP3    H216641   6.922   7.510   1.836
 5566TIP3   OH216642   5.907   7.942   1.132
 5566TIP3    H116643   5.905   7.920   1.039
 5566TIP3    H216644   5.976   8.008   1.140
 5567TIP3   OH216645   6.130   7.615   1.780
 5567TIP3    H116646   6.225   7.617   1.789
 5567TIP3    H216647   6.105   7.532   1.820
 5568TIP3   OH216648   6.119   7.281   1.183
 5568TIP3    H116649   6.103   7.192   1.151
 5568TIP3    H216650   6.176   7.320   1.118
 5569TIP3   OH216651   5.866   7.661   1.183
 5569TIP3    H116652   5.833   7.712   1.109
 5569TIP3    H216653   5.928   7.720   1.227
 5570TIP3   OH216654   6.073   7.114   1.492
 5570TIP3    H116655   6.030   7.122   1.578
 5570TIP3    H216656   6.038   7.187   1.441
 5571TIP3   OH216657   6.245   6.924   0.872
 5571TIP3    H116658   6.151   6.907   0.866
 5571TIP3    H216659   6.266   6.973   0.792
 5572TIP3   OH216660   6.391   7.308   1.720
 5572TIP3    H116661   6.355   7.252   1.788
 5572TIP3    H216662   6.485   7.310   1.737
 5573TIP3   OH216663   6.634   7.293   1.841
 5573TIP3    H116664   6.726   7.319   1.833
 5573TIP3    H216665   6.634   7.225   1.908
 5574TIP3   OH216666   1.864   0.504   5.799
 5574TIP3    H116667   1.770   0.499   5.812
 5574TIP3    H216668   1.887   0.594   5.822
 5575TIP3   OH216669   1.512   0.936   5.783
 5575TIP3    H116670   1.552   0.874   5.722
 5575TIP3    H216671   1.521   0.895   5.869
 5576TIP3   OH216672   2.492  -0.005   6.340
 5576TIP3    H116673   2.413  -0.032   6.292
 5576TIP3    H216674   2.471   0.083   6.373
 5577TIP3   OH216675   1.514   0.451   5.539
 5577TIP3    H116676   1.465   0.387   5.488
 5577TIP3    H216677   1.457   0.528   5.544
 5578TIP3   OH216678   1.888   0.766   5.902
 5578TIP3    H116679   1.798   0.761   5.932
 5578TIP3    H216680   1.894   0.849   5.855
 5579TIP3   OH216681   1.622   0.789   5.577
 5579TIP3    H116682   1.676   0.712   5.563
 5579TIP3    H216683   1.672   0.861   5.540
 5580TIP3   OH216684   1.767   0.566   5.520
 5580TIP3    H116685   1.692   0.508   5.511
 5580TIP3    H216686   1.828   0.519   5.577
 5581TIP3   OH216687   2.129   0.652   6.247
 5581TIP3    H116688   2.113   0.581   6.185
 5581TIP3    H216689   2.109   0.732   6.198
 5582TIP3   OH216690   2.312   0.313   6.108
 5582TIP3    H116691   2.228   0.360   6.105
 5582TIP3    H216692   2.343   0.315   6.017
 5583TIP3   OH216693   1.796   0.173   5.508
 5583TIP3    H116694   1.726   0.178   5.573
 5583TIP3    H216695   1.869   0.132   5.555
 5584TIP3   OH216696   1.634   0.762   6.003
 5584TIP3    H116697   1.631   0.838   6.061
 5584TIP3    H216698   1.642   0.687   6.063
 5585TIP3   OH216699   1.365   0.690   5.544
 5585TIP3    H116700   1.448   0.729   5.572
 5585TIP3    H216701   1.313   0.765   5.515
 5586TIP3   OH216702   1.938   0.600   4.923
 5586TIP3    H116703   1.934   0.693   4.900
 5586TIP3    H216704   2.028   0.575   4.904
 5587TIP3   OH216705   2.377   0.999   6.332
 5587TIP3    H116706   2.379   0.903   6.342
 5587TIP3    H216707   2.293   1.025   6.369
 5588TIP3   OH216708   1.483   0.803   6.391
 5588TIP3    H116709   1.477   0.892   6.425
 5588TIP3    H216710   1.434   0.750   6.455
 5589TIP3   OH216711   1.240   0.903   5.399
 5589TIP3    H116712   1.200   0.889   5.313
 5589TIP3    H216713   1.210   0.989   5.426
 5590TIP3   OH216714   1.448   0.825   5.031
 5590TIP3    H116715   1.500   0.754   4.994
 5590TIP3    H216716   1.482   0.836   5.120
 5591TIP3   OH216717   1.498   0.868   5.299
 5591TIP3    H116718   1.412   0.872   5.342
 5591TIP3    H216719   1.556   0.828   5.363
 5592TIP3   OH216720   2.249   0.146   6.589
 5592TIP3    H116721   2.181   0.214   6.583
 5592TIP3    H216722   2.202   0.064   6.581
 5593TIP3   OH216723   7.397   7.954   5.078
 5593TIP3    H116724   7.331   7.961   5.009
 5593TIP3    H216725   7.447   8.035   5.071
 5594TIP3   OH216726   2.081   1.362   6.389
 5594TIP3    H116727   2.073   1.373   6.294
 5594TIP3    H216728   2.161   1.411   6.412
 5595TIP3   OH216729   2.083   0.462   6.050
 5595TIP3    H116730   2.137   0.510   5.988
 5595TIP3    H216731   2.005   0.437   6.001
 5596TIP3   OH216732   1.393   0.400   5.213
 5596TIP3    H116733   1.327   0.461   5.247
 5596TIP3    H216734   1.352   0.314   5.221
 5597TIP3   OH216735   1.764   0.798   6.380
 5597TIP3    H116736   1.669   0.796   6.369
 5597TIP3    H216737   1.777   0.831   6.469
 5598TIP3   OH216738   7.869   7.871   5.229
 5598TIP3    H116739   7.802   7.814   5.190
 5598TIP3    H216740   7.847   7.958   5.197
 5599TIP3   OH216741   2.381   0.715   6.333
 5599TIP3    H116742   2.286   0.707   6.327
 5599TIP3    H216743   2.412   0.689   6.246
 5600TIP3   OH216744   1.855   0.668   5.188
 5600TIP3    H116745   1.837   0.596   5.248
 5600TIP3    H216746   1.880   0.625   5.106
 5601TIP3   OH216747   1.273   0.898   6.218
 5601TIP3    H116748   1.315   0.964   6.163
 5601TIP3    H216749   1.345   0.856   6.265
 5602TIP3   OH216750   1.701   0.549   6.173
 5602TIP3    H116751   1.644   0.523   6.246
 5602TIP3    H216752   1.790   0.538   6.207
 5603TIP3   OH216753   1.637   0.415   5.091
 5603TIP3    H116754   1.700   0.380   5.155
 5603TIP3    H216755   1.554   0.417   5.139
 5604TIP3   OH216756   1.889   1.039   6.250
 5604TIP3    H116757   1.819   0.976   6.260
 5604TIP3    H216758   1.863   1.092   6.174
 5605TIP3   OH216759   1.939   0.874   4.881
 5605TIP3    H116760   1.977   0.945   4.828
 5605TIP3    H216761   1.864   0.914   4.924
 5606TIP3   OH216762   1.811   0.322   5.275
 5606TIP3    H116763   1.796   0.268   5.352
 5606TIP3    H216764   1.907   0.322   5.265
 5607TIP3   OH216765   1.200   0.579   5.291
 5607TIP3    H116766   1.176   0.593   5.383
 5607TIP3    H216767   1.202   0.667   5.254
 5608TIP3   OH216768   1.918   1.025   5.814
 5608TIP3    H116769   1.878   1.077   5.744
 5608TIP3    H216770   2.013   1.037   5.801
 5609TIP3   OH216771   1.125   0.574   5.011
 5609TIP3    H116772   1.163   0.534   5.089
 5609TIP3    H216773   1.172   0.535   4.938
 5610TIP3   OH216774   1.814   0.884   6.639
 5610TIP3    H116775   1.825   0.842   6.724
 5610TIP3    H216776   1.887   0.946   6.634
 5611TIP3   OH216777   1.592   0.627   4.914
 5611TIP3    H116778   1.639   0.569   4.974
 5611TIP3    H216779   1.644   0.625   4.834
 5612TIP3   OH216780   1.917   0.561   6.399
 5612TIP3    H116781   1.998   0.594   6.361
 5612TIP3    H216782   1.860   0.638   6.403
 5613TIP3   OH216783   1.902   0.128   4.957
 5613TIP3    H116784   1.897   0.080   4.875
 5613TIP3    H216785   1.871   0.216   4.935
 5614TIP3   OH216786   2.079   0.372   6.559
 5614TIP3    H116787   2.004   0.419   6.521
 5614TIP3    H216788   2.156   0.412   6.518
 5615TIP3   OH216789   0.944   0.917   5.194
 5615TIP3    H116790   1.027   0.876   5.171
 5615TIP3    H216791   0.908   0.948   5.111
 5616TIP3   OH216792   2.190   1.073   5.813
 5616TIP3    H116793   2.203   1.102   5.903
 5616TIP3    H216794   2.242   1.133   5.760
 5617TIP3   OH216795   2.211   1.107   6.088
 5617TIP3    H116796   2.165   1.023   6.092
 5617TIP3    H216797   2.271   1.106   6.163
 5618TIP3   OH216798   2.274   0.802   6.622
 5618TIP3    H116799   2.200   0.807   6.683
 5618TIP3    H216800   2.316   0.887   6.629
 5619TIP3   OH216801   2.086   0.320   5.264
 5619TIP3    H116802   2.145   0.390   5.236
 5619TIP3    H216803   2.121   0.291   5.348
 5620TIP3   OH216804   2.179   0.205   5.495
 5620TIP3    H116805   2.120   0.173   5.563
 5620TIP3    H216806   2.254   0.240   5.543
 5621TIP3   OH216807   2.271   0.581   5.893
 5621TIP3    H116808   2.313   0.515   5.839
 5621TIP3    H216809   2.267   0.659   5.837
 5622TIP3   OH216810   2.059   0.873   6.100
 5622TIP3    H116811   1.993   0.919   6.151
 5622TIP3    H216812   2.010   0.833   6.027
 5623TIP3   OH216813   2.117   0.092   5.117
 5623TIP3    H116814   2.042   0.100   5.058
 5623TIP3    H216815   2.113   0.169   5.173
 5624TIP3   OH216816   7.673   7.807   5.039
 5624TIP3    H116817   7.622   7.879   5.078
 5624TIP3    H216818   7.607   7.754   4.993
 5625TIP3   OH216819   2.006   0.049   5.660
 5625TIP3    H116820   2.025  -0.037   5.623
 5625TIP3    H216821   2.021   0.039   5.754
 5626TIP3   OH216822   2.316   0.464   6.455
 5626TIP3    H116823   2.377   0.396   6.428
 5626TIP3    H216824   2.342   0.542   6.405
 5627TIP3   OH216825   2.481   0.241   6.468
 5627TIP3    H116826   2.408   0.210   6.522
 5627TIP3    H216827   2.541   0.282   6.530
 5628TIP3   OH216828   7.823   7.980   5.983
 5628TIP3    H116829   7.910   7.995   5.947
 5628TIP3    H216830   7.834   7.990   6.078
 5629TIP3   OH216831   2.229   0.081   6.238
 5629TIP3    H116832   2.147   0.116   6.275
 5629TIP3    H216833   2.266   0.154   6.189
 5630TIP3   OH216834   1.742   0.993   5.449
 5630TIP3    H116835   1.795   0.978   5.371
 5630TIP3    H216836   1.788   1.061   5.497
 5631TIP3   OH216837   1.480   1.051   6.499
 5631TIP3    H116838   1.510   1.041   6.589
 5631TIP3    H216839   1.544   1.110   6.458
 5632TIP3   OH216840   1.671   1.212   6.385
 5632TIP3    H116841   1.740   1.161   6.343
 5632TIP3    H216842   1.717   1.279   6.436
 5633TIP3   OH216843   1.380   1.096   6.057
 5633TIP3    H116844   1.317   1.118   5.988
 5633TIP3    H216845   1.397   1.180   6.101
 5634TIP3   OH216846   1.634   1.013   6.115
 5634TIP3    H116847   1.543   1.036   6.099
 5634TIP3    H216848   1.685   1.083   6.074
 5635TIP3   OH216849   1.831   1.187   6.020
 5635TIP3    H116850   1.828   1.276   5.985
 5635TIP3    H216851   1.859   1.133   5.947
 5636TIP3   OH216852   1.191   0.812   5.131
 5636TIP3    H116853   1.275   0.835   5.091
 5636TIP3    H216854   1.155   0.744   5.074
 5637TIP3   OH216855   1.891   0.937   5.220
 5637TIP3    H116856   1.882   0.842   5.213
 5637TIP3    H216857   1.850   0.972   5.141
 5638TIP3   OH216858   2.124   1.089   6.393
 5638TIP3    H116859   2.044   1.061   6.348
 5638TIP3    H216860   2.116   1.184   6.400
 5639TIP3   OH216861   3.377   0.464   5.163
 5639TIP3    H116862   3.352   0.553   5.136
 5639TIP3    H216863   3.303   0.409   5.134
 5640TIP3   OH216864   3.381   0.469   5.581
 5640TIP3    H116865   3.434   0.442   5.656
 5640TIP3    H216866   3.332   0.391   5.557
 5641TIP3   OH216867   2.689   0.315   5.920
 5641TIP3    H116868   2.724   0.242   5.868
 5641TIP3    H216869   2.734   0.392   5.886
 5642TIP3   OH216870   3.652   0.770   5.252
 5642TIP3    H116871   3.628   0.709   5.323
 5642TIP3    H216872   3.674   0.851   5.297
 5643TIP3   OH216873   2.687   0.770   5.653
 5643TIP3    H116874   2.668   0.677   5.657
 5643TIP3    H216875   2.777   0.775   5.621
 5644TIP3   OH216876   7.998   7.993   5.442
 5644TIP3    H116877   7.948   8.074   5.451
 5644TIP3    H216878   7.949   7.942   5.378
 5645TIP3   OH216879   2.432   0.274   5.590
 5645TIP3    H116880   2.484   0.195   5.603
 5645TIP3    H216881   2.479   0.323   5.523
 5646TIP3   OH216882   3.318   1.196   5.269
 5646TIP3    H116883   3.339   1.132   5.200
 5646TIP3    H216884   3.323   1.147   5.350
 5647TIP3   OH216885   3.185   0.684   5.582
 5647TIP3    H116886   3.226   0.603   5.551
 5647TIP3    H216887   3.258   0.738   5.610
 5648TIP3   OH216888   3.634   0.160   5.638
 5648TIP3    H116889   3.704   0.094   5.633
 5648TIP3    H216890   3.586   0.150   5.556
 5649TIP3   OH216891   0.044   7.849   5.606
 5649TIP3    H116892   0.056   7.915   5.537
 5649TIP3    H216893  -0.005   7.779   5.564
 5650TIP3   OH216894   0.734   7.967   5.263
 5650TIP3    H116895   0.805   7.906   5.285
 5650TIP3    H216896   0.701   7.936   5.179
 5651TIP3   OH216897   2.574   0.047   5.679
 5651TIP3    H116898   2.658   0.037   5.725
 5651TIP3    H216899   2.583  -0.010   5.602
 5652TIP3   OH216900   2.988   0.229   5.544
 5652TIP3    H116901   3.082   0.218   5.530
 5652TIP3    H216902   2.947   0.165   5.486
 5653TIP3   OH216903   4.245   0.235   5.777
 5653TIP3    H116904   4.159   0.278   5.772
 5653TIP3    H216905   4.275   0.252   5.866
 5654TIP3   OH216906   3.292   0.680   5.012
 5654TIP3    H116907   3.249   0.650   4.932
 5654TIP3    H216908   3.238   0.753   5.043
 5655TIP3   OH216909   3.042   0.599   5.803
 5655TIP3    H116910   2.984   0.667   5.836
 5655TIP3    H216911   3.083   0.638   5.725
 5656TIP3   OH216912  -0.019   8.024   5.808
 5656TIP3    H116913   0.064   8.056   5.842
 5656TIP3    H216914   0.006   7.956   5.745
 5657TIP3   OH216915   2.882   0.793   5.915
 5657TIP3    H116916   2.865   0.879   5.876
 5657TIP3    H216917   2.802   0.772   5.964
 5658TIP3   OH216918   2.255   0.513   5.161
 5658TIP3    H116919   2.227   0.537   5.073
 5658TIP3    H216920   2.296   0.592   5.196
 5659TIP3   OH216921   3.692   1.013   5.391
 5659TIP3    H116922   3.604   1.005   5.429
 5659TIP3    H216923   3.691   1.097   5.346
 5660TIP3   OH216924   3.395   1.051   5.043
 5660TIP3    H116925   3.447   0.971   5.034
 5660TIP3    H216926   3.454   1.120   5.013
 5661TIP3   OH216927   3.534   0.819   5.006
 5661TIP3    H116928   3.462   0.757   5.003
 5661TIP3    H216929   3.584   0.793   5.084
 5662TIP3   OH216930   3.924   0.907   5.736
 5662TIP3    H116931   3.904   0.833   5.678
 5662TIP3    H216932   3.907   0.985   5.682
 5663TIP3   OH216933   3.208   0.314   5.000
 5663TIP3    H116934   3.123   0.355   4.985
 5663TIP3    H216935   3.250   0.314   4.914
 5664TIP3   OH216936   3.166   0.116   4.721
 5664TIP3    H116937   3.237   0.176   4.745
 5664TIP3    H216938   3.199   0.029   4.743
 5665TIP3   OH216939   4.111   0.592   5.611
 5665TIP3    H116940   4.024   0.633   5.606
 5665TIP3    H216941   4.141   0.589   5.520
 5666TIP3   OH216942   3.555   0.406   4.964
 5666TIP3    H116943   3.495   0.428   5.035
 5666TIP3    H216944   3.641   0.403   5.006
 5667TIP3   OH216945   3.787   0.438   5.899
 5667TIP3    H116946   3.777   0.519   5.949
 5667TIP3    H216947   3.703   0.426   5.854
 5668TIP3   OH216948   2.932   0.804   5.522
 5668TIP3    H116949   2.894   0.778   5.438
 5668TIP3    H216950   3.016   0.759   5.525
 5669TIP3   OH216951   2.929   0.350   5.776
 5669TIP3    H116952   2.951   0.312   5.691
 5669TIP3    H216953   2.972   0.436   5.775
 5670TIP3   OH216954   3.450   1.005   5.514
 5670TIP3    H116955   3.437   1.084   5.567
 5670TIP3    H216956   3.435   0.933   5.575
 5671TIP3   OH216957   3.079   0.905   6.069
 5671TIP3    H116958   3.018   0.965   6.112
 5671TIP3    H216959   3.025   0.848   6.015
 5672TIP3   OH216960   3.396   0.262   4.789
 5672TIP3    H116961   3.452   0.326   4.832
 5672TIP3    H216962   3.428   0.258   4.699
 5673TIP3   OH216963   2.818   0.457   6.218
 5673TIP3    H116964   2.827   0.550   6.237
 5673TIP3    H216965   2.723   0.444   6.207
 5674TIP3   OH216966   3.156   0.913   5.064
 5674TIP3    H116967   3.230   0.972   5.063
 5674TIP3    H216968   3.087   0.959   5.016
 5675TIP3   OH216969   2.868   1.063   6.144
 5675TIP3    H116970   2.835   1.065   6.054
 5675TIP3    H216971   2.791   1.040   6.197
 5676TIP3   OH216972   2.687   0.223   5.160
 5676TIP3    H116973   2.688   0.300   5.216
 5676TIP3    H216974   2.598   0.188   5.168
 5677TIP3   OH216975   3.734   0.858   4.408
 5677TIP3    H116976   3.730   0.951   4.388
 5677TIP3    H216977   3.824   0.833   4.388
 5678TIP3   OH216978   2.460   0.611   6.094
 5678TIP3    H116979   2.394   0.600   6.026
 5678TIP3    H216980   2.490   0.522   6.113
 5679TIP3   OH216981   2.295   0.819   5.752
 5679TIP3    H116982   2.388   0.841   5.755
 5679TIP3    H216983   2.251   0.898   5.780
 5680TIP3   OH216984   4.157   1.263   5.801
 5680TIP3    H116985   4.162   1.168   5.816
 5680TIP3    H216986   4.078   1.290   5.847
 5681TIP3   OH216987   3.258   1.046   5.917
 5681TIP3    H116988   3.257   1.138   5.946
 5681TIP3    H216989   3.194   1.002   5.973
 5682TIP3   OH216990   3.040   1.162   4.871
 5682TIP3    H116991   2.987   1.134   4.796
 5682TIP3    H216992   2.996   1.240   4.904
 5683TIP3   OH216993   2.474   1.006   5.268
 5683TIP3    H116994   2.521   0.993   5.350
 5683TIP3    H216995   2.426   0.924   5.255
 5684TIP3   OH216996   3.242   1.083   4.510
 5684TIP3    H116997   3.291   1.010   4.473
 5684TIP3    H216998   3.275   1.092   4.599
 5685TIP3   OH216999   3.293   1.126   4.779
 5685TIP3    H117000   3.206   1.133   4.816
 5685TIP3    H217001   3.346   1.085   4.848
 5686TIP3   OH217002   4.041   0.387   6.078
 5686TIP3    H117003   3.966   0.433   6.041
 5686TIP3    H217004   4.014   0.295   6.079
 5687TIP3   OH217005   2.652   0.806   6.068
 5687TIP3    H117006   2.692   0.810   6.155
 5687TIP3    H217007   2.584   0.739   6.076
 5688TIP3   OH217008   3.847   0.196   6.039
 5688TIP3    H117009   3.780   0.197   6.107
 5688TIP3    H217010   3.814   0.255   5.971
 5689TIP3   OH217011   3.483   0.232   4.529
 5689TIP3    H117012   3.431   0.235   4.449
 5689TIP3    H217013   3.559   0.287   4.511
 5690TIP3   OH217014   3.011   0.153   5.947
 5690TIP3    H117015   2.956   0.174   6.022
 5690TIP3    H217016   2.994   0.223   5.885
 5691TIP3   OH217017   2.859   0.018   5.402
 5691TIP3    H117018   2.764   0.009   5.407
 5691TIP3    H217019   2.881  -0.008   5.313
 5692TIP3   OH217020   3.319   0.130   5.167
 5692TIP3    H117021   3.267   0.195   5.120
 5692TIP3    H217022   3.392   0.111   5.109
 5693TIP3   OH217023   3.539   0.393   6.200
 5693TIP3    H117024   3.509   0.325   6.261
 5693TIP3    H217025   3.630   0.409   6.225
 5694TIP3   OH217026   3.488   0.172   5.397
 5694TIP3    H117027   3.420   0.205   5.338
 5694TIP3    H217028   3.517   0.091   5.355
 5695TIP3   OH217029   2.766   0.164   6.169
 5695TIP3    H117030   2.758   0.258   6.154
 5695TIP3    H217031   2.702   0.125   6.109
 5696TIP3   OH217032   8.137   7.782   5.220
 5696TIP3    H117033   8.137   7.775   5.124
 5696TIP3    H217034   8.047   7.806   5.242
 5697TIP3   OH217035   3.538   0.363   5.789
 5697TIP3    H117036   3.575   0.296   5.732
 5697TIP3    H217037   3.498   0.314   5.861
 5698TIP3   OH217038   8.261   7.925   5.431
 5698TIP3    H117039   8.170   7.955   5.440
 5698TIP3    H217040   8.258   7.860   5.360
 5699TIP3   OH217041   0.079   7.920   5.155
 5699TIP3    H117042   0.167   7.914   5.119
 5699TIP3    H217043   0.021   7.906   5.080
 5700TIP3   OH217044   8.427   7.903   4.918
 5700TIP3    H117045   8.343   7.950   4.927
 5700TIP3    H217046   8.478   7.958   4.858
 5701TIP3   OH217047   3.870   1.608   5.893
 5701TIP3    H117048   3.866   1.625   5.799
 5701TIP3    H217049   3.951   1.651   5.922
 5702TIP3   OH217050   2.812   0.714   6.318
 5702TIP3    H117051   2.893   0.741   6.363
 5702TIP3    H217052   2.742   0.736   6.380
 5703TIP3   OH217053   3.267   0.211   5.568
 5703TIP3    H117054   3.342   0.171   5.524
 5703TIP3    H217055   3.266   0.170   5.654
 5704TIP3   OH217056   3.263   0.120   5.826
 5704TIP3    H117057   3.179   0.120   5.871
 5704TIP3    H217058   3.325   0.153   5.891
 5705TIP3   OH217059   2.971   0.445   4.947
 5705TIP3    H117060   2.897   0.389   4.925
 5705TIP3    H217061   2.951   0.479   5.034
 5706TIP3   OH217062   3.865   0.706   5.558
 5706TIP3    H117063   3.895   0.754   5.481
 5706TIP3    H217064   3.779   0.671   5.533
 5707TIP3   OH217065   0.469   7.906   4.817
 5707TIP3    H117066   0.454   7.813   4.833
 5707TIP3    H217067   0.488   7.942   4.904
 5708TIP3   OH217068   3.389   0.786   5.957
 5708TIP3    H117069   3.433   0.782   6.042
 5708TIP3    H217070   3.342   0.870   5.958
 5709TIP3   OH217071   3.501   0.072   4.964
 5709TIP3    H117072   3.591   0.096   4.986
 5709TIP3    H217073   3.468   0.145   4.913
 5710TIP3   OH217074   2.687   0.489   5.646
 5710TIP3    H117075   2.660   0.491   5.554
 5710TIP3    H217076   2.762   0.430   5.648
 5711TIP3   OH217077   3.129   0.606   4.794
 5711TIP3    H117078   3.085   0.691   4.793
 5711TIP3    H217079   3.070   0.549   4.845
 5712TIP3   OH217080   2.552   0.372   6.228
 5712TIP3    H117081   2.553   0.333   6.315
 5712TIP3    H217082   2.473   0.337   6.187
 5713TIP3   OH217083   3.299   0.535   6.262
 5713TIP3    H117084   3.231   0.479   6.224
 5713TIP3    H217085   3.381   0.505   6.221
 5714TIP3   OH217086   3.532   1.068   5.844
 5714TIP3    H117087   3.437   1.054   5.847
 5714TIP3    H217088   3.554   1.105   5.929
 5715TIP3   OH217089   3.916   0.154   4.764
 5715TIP3    H117090   3.866   0.100   4.703
 5715TIP3    H217091   3.925   0.238   4.720
 5716TIP3   OH217092   4.171   0.981   5.824
 5716TIP3    H117093   4.076   0.971   5.816
 5716TIP3    H217094   4.206   0.950   5.740
 5717TIP3   OH217095   3.658   0.926   4.675
 5717TIP3    H117096   3.627   0.856   4.733
 5717TIP3    H217097   3.674   0.882   4.591
 5718TIP3   OH217098   3.616   0.594   5.474
 5718TIP3    H117099   3.526   0.569   5.497
 5718TIP3    H217100   3.653   0.515   5.435
 5719TIP3   OH217101   2.780   0.772   5.293
 5719TIP3    H117102   2.744   0.834   5.229
 5719TIP3    H217103   2.714   0.704   5.300
 5720TIP3   OH217104   2.345   0.070   4.960
 5720TIP3    H117105   2.386   0.156   4.974
 5720TIP3    H217106   2.264   0.074   5.012
 5721TIP3   OH217107   2.898   0.545   5.184
 5721TIP3    H117108   2.895   0.635   5.217
 5721TIP3    H217109   2.829   0.499   5.233
 5722TIP3   OH217110   3.051   1.134   5.728
 5722TIP3    H117111   3.094   1.208   5.684
 5722TIP3    H217112   3.122   1.089   5.773
 5723TIP3   OH217113   2.701   1.006   5.114
 5723TIP3    H117114   2.616   1.014   5.157
 5723TIP3    H217115   2.740   1.093   5.120
 5724TIP3   OH217116   3.427   0.783   5.683
 5724TIP3    H117117   3.418   0.777   5.778
 5724TIP3    H217118   3.499   0.723   5.663
 5725TIP3   OH217119   3.413   0.666   4.554
 5725TIP3    H117120   3.462   0.637   4.632
 5725TIP3    H217121   3.328   0.621   4.562
 5726TIP3   OH217122   3.679   1.287   5.735
 5726TIP3    H117123   3.611   1.221   5.748
 5726TIP3    H217124   3.649   1.339   5.661
 5727TIP3   OH217125   3.740   1.131   4.367
 5727TIP3    H117126   3.768   1.194   4.301
 5727TIP3    H217127   3.668   1.174   4.413
 5728TIP3   OH217128   3.583   0.578   4.748
 5728TIP3    H117129   3.567   0.530   4.829
 5728TIP3    H217130   3.678   0.590   4.745
 5729TIP3   OH217131   2.516   0.992   5.884
 5729TIP3    H117132   2.575   0.923   5.914
 5729TIP3    H217133   2.483   1.032   5.964
 5730TIP3   OH217134   2.774   0.636   4.577
 5730TIP3    H117135   2.784   0.545   4.548
 5730TIP3    H217136   2.758   0.630   4.671
 5731TIP3   OH217137   2.720   0.648   4.847
 5731TIP3    H117138   2.773   0.617   4.920
 5731TIP3    H217139   2.722   0.743   4.855
 5732TIP3   OH217140   2.424   0.323   5.028
 5732TIP3    H117141   2.388   0.371   5.103
 5732TIP3    H217142   2.455   0.392   4.968
 5733TIP3   OH217143   2.996   0.843   4.790
 5733TIP3    H117144   2.908   0.860   4.823
 5733TIP3    H217145   3.013   0.913   4.727
 5734TIP3   OH217146   0.362   7.901   5.135
 5734TIP3    H117147   0.399   7.987   5.154
 5734TIP3    H217148   0.345   7.862   5.221
 5735TIP3   OH217149   3.453   0.216   6.007
 5735TIP3    H117150   3.471   0.284   6.071
 5735TIP3    H217151   3.493   0.137   6.043
 5736TIP3   OH217152   2.742   0.921   4.857
 5736TIP3    H117153   2.715   0.993   4.801
 5736TIP3    H217154   2.723   0.951   4.946
 5737TIP3   OH217155   3.700   0.352   5.378
 5737TIP3    H117156   3.626   0.293   5.387
 5737TIP3    H217157   3.772   0.309   5.424
 5738TIP3   OH217158   2.468   0.531   4.835
 5738TIP3    H117159   2.542   0.591   4.849
 5738TIP3    H217160   2.502   0.465   4.774
 5739TIP3   OH217161   8.034   7.807   4.953
 5739TIP3    H117162   8.042   7.902   4.949
 5739TIP3    H217163   7.946   7.791   4.987
 5740TIP3   OH217164   3.715   1.278   5.308
 5740TIP3    H117165   3.674   1.331   5.239
 5740TIP3    H217166   3.809   1.290   5.294
 5741TIP3   OH217167   2.305   0.789   5.227
 5741TIP3    H117168   2.244   0.815   5.296
 5741TIP3    H217169   2.266   0.823   5.147
 5742TIP3   OH217170   2.459   1.265   6.297
 5742TIP3    H117171   2.546   1.279   6.335
 5742TIP3    H217172   2.438   1.174   6.318
 5743TIP3   OH217173   2.963   1.231   6.341
 5743TIP3    H117174   3.055   1.209   6.356
 5743TIP3    H217175   2.936   1.175   6.269
 5744TIP3   OH217176   2.932   0.829   4.465
 5744TIP3    H117177   2.882   0.761   4.509
 5744TIP3    H217178   3.005   0.783   4.424
 5745TIP3   OH217179   3.590   1.170   6.091
 5745TIP3    H117180   3.600   1.101   6.156
 5745TIP3    H217181   3.664   1.229   6.107
 5746TIP3   OH217182   3.369   0.876   4.386
 5746TIP3    H117183   3.400   0.809   4.448
 5746TIP3    H217184   3.427   0.867   4.311
 5747TIP3   OH217185   2.601   0.718   6.501
 5747TIP3    H117186   2.611   0.625   6.523
 5747TIP3    H217187   2.517   0.722   6.456
 5748TIP3   OH217188   2.605   0.342   4.694
 5748TIP3    H117189   2.652   0.315   4.773
 5748TIP3    H217190   2.673   0.353   4.628
 5749TIP3   OH217191   3.231   0.808   6.276
 5749TIP3    H117192   3.187   0.827   6.193
 5749TIP3    H217193   3.266   0.720   6.264
 5750TIP3   OH217194   3.162   0.546   4.528
 5750TIP3    H117195   3.138   0.559   4.620
 5750TIP3    H217196   3.146   0.453   4.512
 5751TIP3   OH217197   3.700   0.844   5.887
 5751TIP3    H117198   3.777   0.873   5.840
 5751TIP3    H217199   3.633   0.909   5.867
 5752TIP3   OH217200   2.696   0.438   6.505
 5752TIP3    H117201   2.760   0.457   6.436
 5752TIP3    H217202   2.739   0.466   6.586
 5753TIP3   OH217203   2.767   0.267   4.903
 5753TIP3    H117204   2.741   0.247   4.992
 5753TIP3    H217205   2.812   0.187   4.873
 5754TIP3   OH217206   3.080   0.355   6.180
 5754TIP3    H117207   2.997   0.403   6.183
 5754TIP3    H217208   3.119   0.380   6.096
 5755TIP3   OH217209   2.896   0.066   4.757
 5755TIP3    H117210   2.866   0.079   4.667
 5755TIP3    H217211   2.989   0.087   4.755
 5756TIP3   OH217212   3.581   0.724   6.253
 5756TIP3    H117213   3.647   0.683   6.197
 5756TIP3    H217214   3.578   0.668   6.331
 5757TIP3   OH217215   3.701   0.365   4.423
 5757TIP3    H117216   3.685   0.330   4.335
 5757TIP3    H217217   3.679   0.457   4.416
 5758TIP3   OH217218   3.038   0.102   6.269
 5758TIP3    H117219   3.094   0.046   6.215
 5758TIP3    H217220   3.065   0.191   6.247
 5759TIP3   OH217221   3.211   0.454   5.963
 5759TIP3    H117222   3.296   0.460   5.920
 5759TIP3    H217223   3.152   0.506   5.909
 5760TIP3   OH217224   3.792   0.410   6.312
 5760TIP3    H117225   3.820   0.357   6.386
 5760TIP3    H217226   3.865   0.470   6.296
 5761TIP3   OH217227   3.818   0.671   6.057
 5761TIP3    H117228   3.763   0.732   6.008
 5761TIP3    H217229   3.906   0.686   6.024
 5762TIP3   OH217230   3.448   0.179   6.341
 5762TIP3    H117231   3.492   0.128   6.408
 5762TIP3    H217232   3.355   0.170   6.361
 5763TIP3   OH217233   2.731   1.137   4.679
 5763TIP3    H117234   2.819   1.111   4.650
 5763TIP3    H217235   2.692   1.177   4.601
 5764TIP3   OH217236   2.199   0.520   4.868
 5764TIP3    H117237   2.292   0.538   4.863
 5764TIP3    H217238   2.190   0.429   4.839
 5765TIP3   OH217239   2.098   1.094   5.312
 5765TIP3    H117240   2.034   1.039   5.268
 5765TIP3    H217241   2.141   1.035   5.374
 5766TIP3   OH217242   2.233   0.938   5.494
 5766TIP3    H117243   2.227   0.864   5.555
 5766TIP3    H217244   2.290   1.001   5.537
 5767TIP3   OH217245   3.985   1.330   5.296
 5767TIP3    H117246   4.003   1.362   5.385
 5767TIP3    H217247   4.039   1.385   5.239
 5768TIP3   OH217248   3.998   1.368   5.578
 5768TIP3    H117249   3.952   1.284   5.573
 5768TIP3    H217250   4.069   1.352   5.640
 5769TIP3   OH217251   4.056   1.064   6.151
 5769TIP3    H117252   3.981   1.073   6.210
 5769TIP3    H217253   4.102   1.148   6.158
 5770TIP3   OH217254   3.860   0.599   4.749
 5770TIP3    H117255   3.919   0.667   4.717
 5770TIP3    H217256   3.902   0.567   4.829
 5771TIP3   OH217257   3.987   0.485   4.964
 5771TIP3    H117258   3.918   0.464   5.027
 5771TIP3    H217259   4.056   0.525   5.016
 5772TIP3   OH217260   4.051   0.841   5.393
 5772TIP3    H117261   4.093   0.771   5.345
 5772TIP3    H217262   4.051   0.915   5.332
 5773TIP3   OH217263   3.857   1.128   5.586
 5773TIP3    H117264   3.789   1.172   5.636
 5773TIP3    H217265   3.809   1.086   5.513
 5774TIP3   OH217266   3.909   0.373   4.603
 5774TIP3    H117267   3.839   0.366   4.538
 5774TIP3    H217268   3.888   0.453   4.652
 5775TIP3   OH217269   3.771   0.058   4.553
 5775TIP3    H117270   3.738   0.119   4.487
 5775TIP3    H217271   3.692   0.023   4.595
 5776TIP3   OH217272   3.785   0.386   5.120
 5776TIP3    H117273   3.793   0.291   5.103
 5776TIP3    H217274   3.755   0.392   5.210
 5777TIP3   OH217275   2.422   0.336   5.856
 5777TIP3    H117276   2.418   0.324   5.761
 5777TIP3    H217277   2.516   0.341   5.875
 5778TIP3   OH217278   4.070   0.718   5.956
 5778TIP3    H117279   4.141   0.655   5.940
 5778TIP3    H217280   4.083   0.785   5.889
 5779TIP3   OH217281   4.253   0.514   5.959
 5779TIP3    H117282   4.177   0.469   5.996
 5779TIP3    H217283   4.328   0.460   5.985
 5780TIP3   OH217284   3.767   0.128   4.993
 5780TIP3    H117285   3.831   0.115   5.063
 5780TIP3    H217286   3.820   0.142   4.915
 5781TIP3   OH217287   3.925   0.259   5.501
 5781TIP3    H117288   4.000   0.283   5.446
 5781TIP3    H217289   3.948   0.291   5.588
 5782TIP3   OH217290   4.007   0.369   5.741
 5782TIP3    H117291   3.931   0.393   5.793
 5782TIP3    H217292   4.041   0.453   5.708
 5783TIP3   OH217293   2.737   0.022   6.456
 5783TIP3    H117294   2.725   0.015   6.551
 5783TIP3    H217295   2.651  -0.001   6.420
 5784TIP3   OH217296   2.405   0.054   5.901
 5784TIP3    H117297   2.457   0.025   5.826
 5784TIP3    H217298   2.404   0.150   5.895
 5785TIP3   OH217299   3.542   1.250   4.936
 5785TIP3    H117300   3.596   1.233   4.859
 5785TIP3    H217301   3.593   1.312   4.987
 5786TIP3   OH217302   2.660   1.019   6.320
 5786TIP3    H117303   2.566   1.005   6.328
 5786TIP3    H217304   2.678   1.092   6.379
 5787TIP3   OH217305   2.820   1.061   5.867
 5787TIP3    H117306   2.744   1.069   5.810
 5787TIP3    H217307   2.893   1.095   5.815
 5788TIP3   OH217308   3.266   1.312   5.994
 5788TIP3    H117309   3.298   1.306   6.084
 5788TIP3    H217310   3.336   1.360   5.948
 5789TIP3   OH217311   3.460   1.467   5.871
 5789TIP3    H117312   3.528   1.414   5.830
 5789TIP3    H217313   3.508   1.527   5.928
 5790TIP3   OH217314   2.558   1.388   5.845
 5790TIP3    H117315   2.462   1.388   5.844
 5790TIP3    H217316   2.580   1.364   5.935
 5791TIP3   OH217317   3.156   1.346   5.584
 5791TIP3    H117318   3.088   1.361   5.518
 5791TIP3    H217319   3.166   1.431   5.628
 5792TIP3   OH217320   3.418   1.264   5.604
 5792TIP3    H117321   3.326   1.289   5.596
 5792TIP3    H217322   3.466   1.334   5.559
 5793TIP3   OH217323   3.617   1.440   5.508
 5793TIP3    H117324   3.618   1.528   5.469
 5793TIP3    H217325   3.649   1.383   5.439
 5794TIP3   OH217326   2.422   1.101   5.642
 5794TIP3    H117327   2.450   1.075   5.729
 5794TIP3    H217328   2.491   1.068   5.584
 5795TIP3   OH217329   2.623   0.991   5.500
 5795TIP3    H117330   2.637   0.907   5.544
 5795TIP3    H217331   2.711   1.026   5.488
 5796TIP3   OH217332   2.891   1.078   5.508
 5796TIP3    H117333   2.910   0.986   5.491
 5796TIP3    H217334   2.946   1.101   5.583
 5797TIP3   OH217335   2.192   0.892   5.000
 5797TIP3    H117336   2.106   0.856   4.976
 5797TIP3    H217337   2.189   0.982   4.969
 5798TIP3   OH217338   2.984   1.056   4.605
 5798TIP3    H117339   3.068   1.081   4.568
 5798TIP3    H217340   2.955   0.983   4.550
 5799TIP3   OH217341   3.692   1.194   4.710
 5799TIP3    H117342   3.685   1.099   4.702
 5799TIP3    H217343   3.652   1.227   4.630
 5800TIP3   OH217344   2.290   0.896   4.667
 5800TIP3    H117345   2.285   0.898   4.763
 5800TIP3    H217346   2.372   0.851   4.648
 5801TIP3   OH217347   3.907   1.334   5.895
 5801TIP3    H117348   3.830   1.306   5.845
 5801TIP3    H217349   3.895   1.429   5.905
 5802TIP3   OH217350   5.170   0.708   4.666
 5802TIP3    H117351   5.155   0.801   4.649
 5802TIP3    H217352   5.100   0.664   4.619
 5803TIP3   OH217353   5.184   0.753   5.035
 5803TIP3    H117354   5.215   0.737   5.124
 5803TIP3    H217355   5.140   0.672   5.010
 5804TIP3   OH217356   4.474   0.623   5.404
 5804TIP3    H117357   4.518   0.586   5.480
 5804TIP3    H217358   4.544   0.652   5.347
 5805TIP3   OH217359   5.446   1.031   4.734
 5805TIP3    H117360   5.433   0.970   4.808
 5805TIP3    H217361   5.471   1.113   4.775
 5806TIP3   OH217362   4.465   1.015   5.105
 5806TIP3    H117363   4.446   0.922   5.104
 5806TIP3    H217364   4.560   1.020   5.093
 5807TIP3   OH217365   4.135   0.258   4.916
 5807TIP3    H117366   4.086   0.340   4.926
 5807TIP3    H217367   4.079   0.204   4.860
 5808TIP3   OH217368   4.222   0.568   5.084
 5808TIP3    H117369   4.287   0.501   5.107
 5808TIP3    H217370   4.274   0.644   5.058
 5809TIP3   OH217371   5.100   1.457   4.743
 5809TIP3    H117372   5.131   1.391   4.681
 5809TIP3    H217373   5.097   1.411   4.827
 5810TIP3   OH217374   4.982   0.951   5.068
 5810TIP3    H117375   5.026   0.876   5.029
 5810TIP3    H217376   5.052   1.006   5.101
 5811TIP3   OH217377   5.362   0.459   5.103
 5811TIP3    H117378   5.369   0.364   5.096
 5811TIP3    H217379   5.323   0.486   5.020
 5812TIP3   OH217380   4.810   0.005   5.035
 5812TIP3    H117381   4.780   0.055   5.111
 5812TIP3    H217382   4.730  -0.016   4.987
 5813TIP3   OH217383   5.347   0.144   4.779
 5813TIP3    H117384   5.440   0.128   4.797
 5813TIP3    H217385   5.346   0.219   4.720
 5814TIP3   OH217386   4.419   0.413   5.184
 5814TIP3    H117387   4.449   0.400   5.274
 5814TIP3    H217388   4.470   0.349   5.133
 5815TIP3   OH217389   4.787   0.552   4.992
 5815TIP3    H117390   4.883   0.544   4.992
 5815TIP3    H217391   4.756   0.472   4.951
 5816TIP3   OH217392   6.048   0.470   5.257
 5816TIP3    H117393   5.962   0.510   5.244
 5816TIP3    H217394   6.074   0.499   5.344
 5817TIP3   OH217395   5.088   0.931   4.510
 5817TIP3    H117396   5.049   0.903   4.428
 5817TIP3    H217397   5.036   1.007   4.537
 5818TIP3   OH217398   4.835   0.874   5.290
 5818TIP3    H117399   4.777   0.942   5.322
 5818TIP3    H217400   4.878   0.912   5.214
 5819TIP3   OH217401   4.575   0.260   5.366
 5819TIP3    H117402   4.650   0.320   5.355
 5819TIP3    H217403   4.573   0.210   5.285
 5820TIP3   OH217404   4.666   1.065   5.388
 5820TIP3    H117405   4.652   1.155   5.357
 5820TIP3    H217406   4.588   1.045   5.440
 5821TIP3   OH217407   4.043   0.775   4.637
 5821TIP3    H117408   4.010   0.794   4.549
 5821TIP3    H217409   4.067   0.861   4.672
 5822TIP3   OH217410   5.492   1.270   4.876
 5822TIP3    H117411   5.405   1.261   4.915
 5822TIP3    H217412   5.489   1.355   4.831
 5823TIP3   OH217413   5.196   1.298   4.535
 5823TIP3    H117414   5.248   1.219   4.521
 5823TIP3    H217415   5.252   1.370   4.505
 5824TIP3   OH217416   5.334   1.068   4.486
 5824TIP3    H117417   5.261   1.006   4.486
 5824TIP3    H217418   5.383   1.048   4.565
 5825TIP3   OH217419   5.718   1.161   5.231
 5825TIP3    H117420   5.702   1.089   5.170
 5825TIP3    H217421   5.698   1.240   5.180
 5826TIP3   OH217422   4.999   0.584   4.487
 5826TIP3    H117423   4.916   0.626   4.465
 5826TIP3    H217424   5.047   0.579   4.404
 5827TIP3   OH217425   4.958   0.404   4.185
 5827TIP3    H117426   5.026   0.462   4.218
 5827TIP3    H217427   4.993   0.316   4.198
 5828TIP3   OH217428   5.910   0.845   5.095
 5828TIP3    H117429   5.823   0.884   5.094
 5828TIP3    H217430   5.938   0.845   5.004
 5829TIP3   OH217431   5.351   0.666   4.458
 5829TIP3    H117432   5.296   0.685   4.534
 5829TIP3    H217433   5.440   0.666   4.493
 5830TIP3   OH217434   5.600   0.742   5.363
 5830TIP3    H117435   5.533   0.807   5.343
 5830TIP3    H217436   5.556   0.657   5.350
 5831TIP3   OH217437   4.570   0.650   4.847
 5831TIP3    H117438   4.539   0.584   4.785
 5831TIP3    H217439   4.647   0.611   4.888
 5832TIP3   OH217440   4.725   1.054   5.001
 5832TIP3    H117441   4.703   1.041   4.909
 5832TIP3    H217442   4.814   1.019   5.010
 5833TIP3   OH217443   4.683   0.658   5.223
 5833TIP3    H117444   4.719   0.624   5.141
 5833TIP3    H217445   4.736   0.735   5.242
 5834TIP3   OH217446   5.254   1.259   5.006
 5834TIP3    H117447   5.237   1.341   5.052
 5834TIP3    H217448   5.236   1.191   5.071
 5835TIP3   OH217449   4.865   1.158   5.556
 5835TIP3    H117450   4.807   1.219   5.602
 5835TIP3    H217451   4.807   1.109   5.499
 5836TIP3   OH217452   5.184   0.538   4.280
 5836TIP3    H117453   5.246   0.594   4.327
 5836TIP3    H217454   5.218   0.534   4.191
 5837TIP3   OH217455   4.622   0.745   5.672
 5837TIP3    H117456   4.627   0.834   5.707
 5837TIP3    H217457   4.531   0.718   5.688
 5838TIP3   OH217458   4.951   1.171   4.545
 5838TIP3    H117459   5.031   1.224   4.549
 5838TIP3    H217460   4.888   1.226   4.498
 5839TIP3   OH217461   4.660   1.321   5.639
 5839TIP3    H117462   4.635   1.335   5.548
 5839TIP3    H217463   4.577   1.307   5.685
 5840TIP3   OH217464   4.448   0.474   4.652
 5840TIP3    H117465   4.377   0.527   4.616
 5840TIP3    H217466   4.405   0.402   4.697
 5841TIP3   OH217467   5.531   1.113   3.893
 5841TIP3    H117468   5.527   1.207   3.875
 5841TIP3    H217469   5.622   1.089   3.872
 5842TIP3   OH217470   4.251   0.871   5.587
 5842TIP3    H117471   4.178   0.865   5.525
 5842TIP3    H217472   4.283   0.781   5.595
 5843TIP3   OH217473   4.102   1.069   5.234
 5843TIP3    H117474   4.196   1.085   5.239
 5843TIP3    H217475   4.062   1.149   5.271
 5844TIP3   OH217476   5.955   1.533   5.286
 5844TIP3    H117477   5.960   1.438   5.294
 5844TIP3    H217478   5.874   1.556   5.331
 5845TIP3   OH217479   5.057   1.289   5.409
 5845TIP3    H117480   5.059   1.381   5.434
 5845TIP3    H217481   4.987   1.251   5.462
 5846TIP3   OH217482   4.838   1.407   4.369
 5846TIP3    H117483   4.792   1.389   4.287
 5846TIP3    H217484   4.801   1.491   4.398
 5847TIP3   OH217485   4.270   1.264   4.746
 5847TIP3    H117486   4.315   1.257   4.830
 5847TIP3    H217487   4.221   1.182   4.737
 5848TIP3   OH217488   5.037   1.339   3.996
 5848TIP3    H117489   5.089   1.267   3.959
 5848TIP3    H217490   5.072   1.352   4.084
 5849TIP3   OH217491   5.091   1.382   4.265
 5849TIP3    H117492   5.005   1.385   4.308
 5849TIP3    H217493   5.150   1.350   4.333
 5850TIP3   OH217494   5.810   0.679   5.535
 5850TIP3    H117495   5.738   0.727   5.494
 5850TIP3    H217496   5.797   0.589   5.506
 5851TIP3   OH217497   4.448   1.064   5.556
 5851TIP3    H117498   4.495   1.061   5.639
 5851TIP3    H217499   4.378   0.999   5.565
 5852TIP3   OH217500   5.738   0.416   5.500
 5852TIP3    H117501   5.652   0.404   5.542
 5852TIP3    H217502   5.719   0.416   5.407
 5853TIP3   OH217503   5.271   0.506   4.025
 5853TIP3    H117504   5.224   0.513   3.942
 5853TIP3    H217505   5.357   0.545   4.008
 5854TIP3   OH217506   4.759   0.461   5.395
 5854TIP3    H117507   4.717   0.478   5.480
 5854TIP3    H217508   4.727   0.531   5.338
 5855TIP3   OH217509   4.652   0.358   4.860
 5855TIP3    H117510   4.560   0.334   4.859
 5855TIP3    H217511   4.688   0.319   4.780
 5856TIP3   OH217512   5.116   0.393   4.640
 5856TIP3    H117513   5.064   0.462   4.599
 5856TIP3    H217514   5.174   0.362   4.571
 5857TIP3   OH217515   5.392   0.679   5.727
 5857TIP3    H117516   5.318   0.619   5.741
 5857TIP3    H217517   5.441   0.675   5.808
 5858TIP3   OH217518   5.280   0.513   4.835
 5858TIP3    H117519   5.239   0.586   4.789
 5858TIP3    H217520   5.216   0.442   4.827
 5859TIP3   OH217521   4.575   0.451   5.614
 5859TIP3    H117522   4.529   0.516   5.666
 5859TIP3    H217523   4.514   0.378   5.606
 5860TIP3   OH217524   4.217   0.066   4.688
 5860TIP3    H117525   4.308   0.049   4.663
 5860TIP3    H217526   4.206   0.022   4.772
 5861TIP3   OH217527   5.295   0.669   5.272
 5861TIP3    H117528   5.331   0.600   5.216
 5861TIP3    H217529   5.274   0.625   5.354
 5862TIP3   OH217530   4.404   0.237   4.860
 5862TIP3    H117531   4.311   0.253   4.878
 5862TIP3    H217532   4.404   0.161   4.802
 5863TIP3   OH217533   4.703   0.225   4.626
 5863TIP3    H117534   4.798   0.215   4.624
 5863TIP3    H217535   4.677   0.228   4.534
 5864TIP3   OH217536   4.588   0.158   4.394
 5864TIP3    H117537   4.493   0.157   4.385
 5864TIP3    H217538   4.619   0.216   4.325
 5865TIP3   OH217539   5.666   1.865   5.378
 5865TIP3    H117540   5.660   1.886   5.285
 5865TIP3    H217541   5.744   1.912   5.409
 5866TIP3   OH217542   4.609   0.992   5.796
 5866TIP3    H117543   4.689   1.009   5.845
 5866TIP3    H217544   4.539   0.996   5.861
 5867TIP3   OH217545   5.056   0.511   5.030
 5867TIP3    H117546   5.094   0.426   5.007
 5867TIP3    H217547   5.047   0.507   5.126
 5868TIP3   OH217548   5.009   0.493   5.297
 5868TIP3    H117549   4.928   0.481   5.347
 5868TIP3    H217550   5.058   0.559   5.347
 5869TIP3   OH217551   4.760   0.710   4.429
 5869TIP3    H117552   4.685   0.654   4.411
 5869TIP3    H217553   4.741   0.749   4.515
 5870TIP3   OH217554   5.668   0.966   5.047
 5870TIP3    H117555   5.702   1.015   4.972
 5870TIP3    H217556   5.584   0.931   5.017
 5871TIP3   OH217557   5.100   0.176   4.228
 5871TIP3    H117558   5.072   0.098   4.275
 5871TIP3    H217559   5.184   0.199   4.268
 5872TIP3   OH217560   5.172   1.027   5.453
 5872TIP3    H117561   5.222   1.039   5.533
 5872TIP3    H217562   5.128   1.111   5.439
 5873TIP3   OH217563   5.267   0.312   4.431
 5873TIP3    H117564   5.343   0.334   4.485
 5873TIP3    H217565   5.258   0.387   4.371
 5874TIP3   OH217566   4.447   0.738   5.077
 5874TIP3    H117567   4.483   0.717   4.990
 5874TIP3    H217568   4.509   0.698   5.138
 5875TIP3   OH217569   4.930   0.865   4.283
 5875TIP3    H117570   4.886   0.950   4.280
 5875TIP3    H217571   4.869   0.809   4.332
 5876TIP3   OH217572   4.372   0.619   5.720
 5876TIP3    H117573   4.369   0.615   5.815
 5876TIP3    H217574   4.285   0.592   5.692
 5877TIP3   OH217575   5.073   0.786   5.750
 5877TIP3    H117576   5.001   0.728   5.725
 5877TIP3    H217577   5.146   0.760   5.693
 5878TIP3   OH217578   5.335   1.299   5.350
 5878TIP3    H117579   5.239   1.295   5.349
 5878TIP3    H217580   5.356   1.350   5.427
 5879TIP3   OH217581   5.709   0.401   4.212
 5879TIP3    H117582   5.647   0.354   4.156
 5879TIP3    H217583   5.720   0.486   4.170
 5880TIP3   OH217584   5.968   1.254   5.303
 5880TIP3    H117585   5.874   1.237   5.300
 5880TIP3    H217586   6.000   1.219   5.220
 5881TIP3   OH217587   5.454   1.185   4.159
 5881TIP3    H117588   5.425   1.117   4.219
 5881TIP3    H217589   5.471   1.140   4.077
 5882TIP3   OH217590   5.430   0.854   4.951
 5882TIP3    H117591   5.340   0.828   4.971
 5882TIP3    H217592   5.468   0.778   4.908
 5883TIP3   OH217593   4.589   1.060   4.753
 5883TIP3    H117594   4.586   1.137   4.696
 5883TIP3    H217595   4.498   1.046   4.778
 5884TIP3   OH217596   4.156   0.336   4.495
 5884TIP3    H117597   4.195   0.423   4.488
 5884TIP3    H217598   4.074   0.349   4.543
 5885TIP3   OH217599   4.685   0.819   4.662
 5885TIP3    H117600   4.667   0.910   4.688
 5885TIP3    H217601   4.646   0.766   4.731
 5886TIP3   OH217602   4.871   1.377   5.207
 5886TIP3    H117603   4.906   1.452   5.158
 5886TIP3    H217604   4.946   1.343   5.256
 5887TIP3   OH217605   4.505   1.281   4.601
 5887TIP3    H117606   4.418   1.288   4.640
 5887TIP3    H217607   4.540   1.370   4.605
 5888TIP3   OH217608   5.223   1.040   5.178
 5888TIP3    H117609   5.216   1.029   5.273
 5888TIP3    H217610   5.298   0.986   5.153
 5889TIP3   OH217611   5.211   0.923   4.043
 5889TIP3    H117612   5.259   0.896   4.121
 5889TIP3    H217613   5.124   0.883   4.053
 5890TIP3   OH217614   5.475   1.545   5.219
 5890TIP3    H117615   5.398   1.488   5.225
 5890TIP3    H217616   5.456   1.604   5.146
 5891TIP3   OH217617   5.532   1.387   3.858
 5891TIP3    H117618   5.557   1.449   3.790
 5891TIP3    H217619   5.460   1.429   3.905
 5892TIP3   OH217620   5.377   0.837   4.240
 5892TIP3    H117621   5.364   0.790   4.323
 5892TIP3    H217622   5.471   0.852   4.235
 5893TIP3   OH217623   4.299   1.271   5.368
 5893TIP3    H117624   4.350   1.211   5.422
 5893TIP3    H217625   4.313   1.357   5.409
 5894TIP3   OH217626   4.570   0.895   4.062
 5894TIP3    H117627   4.580   0.804   4.035
 5894TIP3    H217628   4.553   0.890   4.156
 5895TIP3   OH217629   4.512   0.904   4.333
 5895TIP3    H117630   4.583   0.877   4.391
 5895TIP3    H217631   4.511   0.999   4.340
 5896TIP3   OH217632   4.237   0.604   4.534
 5896TIP3    H117633   4.172   0.651   4.587
 5896TIP3    H217634   4.256   0.662   4.461
 5897TIP3   OH217635   4.783   1.093   4.275
 5897TIP3    H117636   4.698   1.116   4.310
 5897TIP3    H217637   4.806   1.166   4.218
 5898TIP3   OH217638   4.969   0.173   4.624
 5898TIP3    H117639   5.021   0.253   4.628
 5898TIP3    H217640   4.955   0.149   4.716
 5899TIP3   OH217641   5.233   0.503   5.485
 5899TIP3    H117642   5.173   0.504   5.559
 5899TIP3    H217643   5.314   0.465   5.520
 5900TIP3   OH217644   4.531   1.175   4.349
 5900TIP3    H117645   4.510   1.245   4.288
 5900TIP3    H217646   4.520   1.215   4.436
 5901TIP3   OH217647   5.526   0.621   4.839
 5901TIP3    H117648   5.445   0.573   4.856
 5901TIP3    H217649   5.589   0.583   4.901
 5902TIP3   OH217650   4.262   0.782   4.321
 5902TIP3    H117651   4.334   0.844   4.331
 5902TIP3    H217652   4.293   0.718   4.257
 5903TIP3   OH217653   4.016   0.138   4.357
 5903TIP3    H117654   4.053   0.207   4.412
 5903TIP3    H217655   4.009   0.062   4.415
 5904TIP3   OH217656   5.508   1.534   4.790
 5904TIP3    H117657   5.465   1.585   4.721
 5904TIP3    H217658   5.602   1.547   4.776
 5905TIP3   OH217659   4.097   1.040   4.723
 5905TIP3    H117660   4.053   1.076   4.800
 5905TIP3    H217661   4.055   1.083   4.648
 5906TIP3   OH217662   4.305   1.576   5.786
 5906TIP3    H117663   4.385   1.586   5.837
 5906TIP3    H217664   4.295   1.481   5.775
 5907TIP3   OH217665   4.763   1.474   5.847
 5907TIP3    H117666   4.858   1.461   5.841
 5907TIP3    H217667   4.728   1.425   5.772
 5908TIP3   OH217668   4.727   1.091   3.951
 5908TIP3    H117669   4.680   1.021   3.996
 5908TIP3    H217670   4.801   1.047   3.910
 5909TIP3   OH217671   5.384   1.428   5.589
 5909TIP3    H117672   5.399   1.360   5.655
 5909TIP3    H217673   5.458   1.488   5.601
 5910TIP3   OH217674   5.167   1.132   3.873
 5910TIP3    H117675   5.198   1.066   3.935
 5910TIP3    H217676   5.226   1.125   3.798
 5911TIP3   OH217677   4.401   0.973   5.979
 5911TIP3    H117678   4.424   0.880   5.985
 5911TIP3    H217679   4.314   0.974   5.940
 5912TIP3   OH217680   4.389   0.589   4.177
 5912TIP3    H117681   4.438   0.566   4.256
 5912TIP3    H217682   4.457   0.604   4.111
 5913TIP3   OH217683   5.024   1.062   5.759
 5913TIP3    H117684   4.975   1.083   5.680
 5913TIP3    H217685   5.047   0.970   5.750
 5914TIP3   OH217686   4.953   0.814   4.014
 5914TIP3    H117687   4.933   0.823   4.107
 5914TIP3    H217688   4.934   0.723   3.993
 5915TIP3   OH217689   5.496   1.068   5.377
 5915TIP3    H117690   5.574   1.101   5.331
 5915TIP3    H217691   5.431   1.138   5.366
 5916TIP3   OH217692   4.528   0.721   5.975
 5916TIP3    H117693   4.614   0.700   5.938
 5916TIP3    H217694   4.546   0.735   6.068
 5917TIP3   OH217695   4.556   0.529   4.394
 5917TIP3    H117696   4.534   0.496   4.482
 5917TIP3    H217697   4.604   0.457   4.353
 5918TIP3   OH217698   4.870   0.628   5.631
 5918TIP3    H117699   4.785   0.669   5.646
 5918TIP3    H217700   4.906   0.676   5.556
 5919TIP3   OH217701   4.690   0.351   4.232
 5919TIP3    H117702   4.656   0.356   4.143
 5919TIP3    H217703   4.783   0.371   4.222
 5920TIP3   OH217704   5.388   0.971   5.749
 5920TIP3    H117705   5.394   0.889   5.699
 5920TIP3    H217706   5.374   0.943   5.840
 5921TIP3   OH217707   5.495   0.622   3.907
 5921TIP3    H117708   5.477   0.586   3.820
 5921TIP3    H217709   5.472   0.714   3.901
 5922TIP3   OH217710   4.984   0.381   5.655
 5922TIP3    H117711   4.927   0.316   5.614
 5922TIP3    H217712   4.937   0.463   5.645
 5923TIP3   OH217713   5.030   0.749   5.436
 5923TIP3    H117714   5.107   0.806   5.428
 5923TIP3    H217715   4.962   0.793   5.385
 5924TIP3   OH217716   5.661   0.980   5.584
 5924TIP3    H117717   5.581   0.997   5.533
 5924TIP3    H217718   5.729   0.970   5.518
 5925TIP3   OH217719   4.829   0.574   6.006
 5925TIP3    H117720   4.749   0.521   6.014
 5925TIP3    H217721   4.890   0.517   5.959
 5926TIP3   OH217722   5.214   0.480   5.768
 5926TIP3    H117723   5.239   0.452   5.856
 5926TIP3    H217724   5.135   0.430   5.749
 5927TIP3   OH217725   4.524   1.380   4.164
 5927TIP3    H117726   4.614   1.363   4.138
 5927TIP3    H217727   4.486   1.427   4.089
 5928TIP3   OH217728   3.990   0.771   4.352
 5928TIP3    H117729   4.084   0.787   4.343
 5928TIP3    H217730   3.976   0.687   4.309
 5929TIP3   OH217731   3.895   1.351   4.806
 5929TIP3    H117732   3.832   1.296   4.760
 5929TIP3    H217733   3.941   1.291   4.865
 5930TIP3   OH217734   4.039   1.185   4.974
 5930TIP3    H117735   4.030   1.117   5.040
 5930TIP3    H217736   4.091   1.253   5.016
 5931TIP3   OH217737   5.778   1.585   4.782
 5931TIP3    H117738   5.795   1.619   4.870
 5931TIP3    H217739   5.829   1.643   4.725
 5932TIP3   OH217740   5.787   1.625   5.063
 5932TIP3    H117741   5.744   1.540   5.061
 5932TIP3    H217742   5.861   1.613   5.123
 5933TIP3   OH217743   5.856   1.312   5.652
 5933TIP3    H117744   5.782   1.335   5.709
 5933TIP3    H217745   5.905   1.394   5.643
 5934TIP3   OH217746   5.652   0.863   4.228
 5934TIP3    H117747   5.708   0.932   4.192
 5934TIP3    H217748   5.700   0.831   4.305
 5935TIP3   OH217749   5.798   0.757   4.432
 5935TIP3    H117750   5.728   0.736   4.494
 5935TIP3    H217751   5.867   0.796   4.485
 5936TIP3   OH217752   5.848   1.098   4.879
 5936TIP3    H117753   5.891   1.030   4.827
 5936TIP3    H217754   5.847   1.175   4.821
 5937TIP3   OH217755   5.652   1.380   5.078
 5937TIP3    H117756   5.583   1.426   5.125
 5937TIP3    H217757   5.607   1.340   5.003
 5938TIP3   OH217758   5.706   0.639   4.080
 5938TIP3    H117759   5.635   0.632   4.017
 5938TIP3    H217760   5.685   0.717   4.132
 5939TIP3   OH217761   5.530   0.313   4.018
 5939TIP3    H117762   5.537   0.387   3.958
 5939TIP3    H217763   5.512   0.238   3.962
 5940TIP3   OH217764   5.598   0.650   4.580
 5940TIP3    H117765   5.625   0.561   4.556
 5940TIP3    H217766   5.581   0.646   4.674
 5941TIP3   OH217767   4.209   0.602   5.354
 5941TIP3    H117768   4.200   0.593   5.259
 5941TIP3    H217769   4.303   0.618   5.368
 5942TIP3   OH217770   5.886   0.989   5.431
 5942TIP3    H117771   5.950   0.920   5.412
 5942TIP3    H217772   5.889   1.046   5.354
 5943TIP3   OH217773   6.054   0.777   5.435
 5943TIP3    H117774   5.974   0.735   5.467
 5943TIP3    H217775   6.124   0.736   5.485
 5944TIP3   OH217776   5.654   0.403   4.476
 5944TIP3    H117777   5.616   0.316   4.473
 5944TIP3    H217778   5.684   0.420   4.387
 5945TIP3   OH217779   5.719   0.538   5.003
 5945TIP3    H117780   5.801   0.552   4.955
 5945TIP3    H217781   5.742   0.554   5.094
 5946TIP3   OH217782   5.821   0.627   5.239
 5946TIP3    H117783   5.746   0.666   5.283
 5946TIP3    H217784   5.864   0.701   5.196
 5947TIP3   OH217785   4.361   0.265   6.038
 5947TIP3    H117786   4.410   0.194   5.997
 5947TIP3    H217787   4.311   0.223   6.107
 5948TIP3   OH217788   4.174   0.316   5.385
 5948TIP3    H117789   4.215   0.283   5.305
 5948TIP3    H217790   4.193   0.410   5.385
 5949TIP3   OH217791   5.336   1.497   4.424
 5949TIP3    H117792   5.393   1.489   4.347
 5949TIP3    H217793   5.375   1.568   4.475
 5950TIP3   OH217794   4.432   1.295   5.798
 5950TIP3    H117795   4.339   1.273   5.797
 5950TIP3    H217796   4.455   1.303   5.890
 5951TIP3   OH217797   4.642   1.340   5.355
 5951TIP3    H117798   4.590   1.413   5.323
 5951TIP3    H217799   4.727   1.350   5.311
 5952TIP3   OH217800   5.067   1.553   5.477
 5952TIP3    H117801   5.093   1.558   5.569
 5952TIP3    H217802   5.127   1.613   5.432
 5953TIP3   OH217803   5.246   1.730   5.363
 5953TIP3    H117804   5.315   1.685   5.313
 5953TIP3    H217805   5.293   1.790   5.420
 5954TIP3   OH217806   4.300   1.575   5.402
 5954TIP3    H117807   4.209   1.595   5.380
 5954TIP3    H217808   4.324   1.641   5.467
 5955TIP3   OH217809   4.530   1.568   5.249
 5955TIP3    H117810   4.446   1.573   5.296
 5955TIP3    H217811   4.509   1.595   5.160
 5956TIP3   OH217812   4.952   1.587   5.044
 5956TIP3    H117813   4.880   1.600   4.981
 5956TIP3    H217814   4.963   1.673   5.085
 5957TIP3   OH217815   5.215   1.518   5.092
 5957TIP3    H117816   5.124   1.541   5.076
 5957TIP3    H217817   5.265   1.587   5.048
 5958TIP3   OH217818   5.415   1.695   4.994
 5958TIP3    H117819   5.414   1.783   4.956
 5958TIP3    H217820   5.445   1.638   4.922
 5959TIP3   OH217821   4.213   1.363   5.119
 5959TIP3    H117822   4.238   1.339   5.208
 5959TIP3    H217823   4.285   1.332   5.064
 5960TIP3   OH217824   4.416   1.251   4.978
 5960TIP3    H117825   4.427   1.168   5.026
 5960TIP3    H217826   4.503   1.291   4.982
 5961TIP3   OH217827   4.684   1.332   5.003
 5961TIP3    H117828   4.702   1.239   4.990
 5961TIP3    H217829   4.738   1.357   5.078
 5962TIP3   OH217830   3.982   1.161   4.506
 5962TIP3    H117831   3.899   1.126   4.473
 5962TIP3    H217832   3.985   1.250   4.473
 5963TIP3   OH217833   4.783   1.313   4.099
 5963TIP3    H117834   4.866   1.342   4.061
 5963TIP3    H217835   4.754   1.243   4.041
 5964TIP3   OH217836   5.488   1.454   4.195
 5964TIP3    H117837   5.481   1.359   4.187
 5964TIP3    H217838   5.444   1.489   4.117
 5965TIP3   OH217839   4.086   1.156   4.153
 5965TIP3    H117840   4.089   1.169   4.248
 5965TIP3    H217841   4.167   1.110   4.132
 5966TIP3   OH217842   5.701   1.591   5.382
 5966TIP3    H117843   5.626   1.562   5.331
 5966TIP3    H217844   5.690   1.686   5.389
 5967TIP3   OH217845   6.965   0.959   4.151
 5967TIP3    H117846   6.943   1.051   4.140
 5967TIP3    H217847   6.896   0.912   4.103
 5968TIP3   OH217848   6.985   1.010   4.529
 5968TIP3    H117849   7.025   0.991   4.614
 5968TIP3    H217850   6.939   0.929   4.506
 5969TIP3   OH217851   6.270   0.871   4.892
 5969TIP3    H117852   6.316   0.832   4.967
 5969TIP3    H217853   6.340   0.898   4.832
 5970TIP3   OH217854   7.250   1.284   4.217
 5970TIP3    H117855   7.233   1.224   4.290
 5970TIP3    H217856   7.270   1.368   4.258
 5971TIP3   OH217857   6.265   1.273   4.594
 5971TIP3    H117858   6.246   1.179   4.591
 5971TIP3    H217859   6.360   1.278   4.578
 5972TIP3   OH217860   5.946   0.526   4.408
 5972TIP3    H117861   5.892   0.605   4.410
 5972TIP3    H217862   5.915   0.479   4.330
 5973TIP3   OH217863   6.022   0.833   4.570
 5973TIP3    H117864   6.083   0.762   4.593
 5973TIP3    H217865   6.079   0.907   4.549
 5974TIP3   OH217866   6.898   1.712   4.232
 5974TIP3    H117867   6.925   1.648   4.166
 5974TIP3    H217868   6.896   1.663   4.314
 5975TIP3   OH217869   6.779   1.208   4.558
 5975TIP3    H117870   6.825   1.133   4.518
 5975TIP3    H217871   6.850   1.264   4.591
 5976TIP3   OH217872   7.155   0.714   4.581
 5976TIP3    H117873   7.171   0.620   4.574
 5976TIP3    H217874   7.110   0.736   4.499
 5977TIP3   OH217875   6.609   0.269   4.512
 5977TIP3    H117876   6.581   0.302   4.597
 5977TIP3    H217877   6.527   0.248   4.467
 5978TIP3   OH217878   7.143   0.415   4.285
 5978TIP3    H117879   7.210   0.430   4.352
 5978TIP3    H217880   7.167   0.473   4.213
 5979TIP3   OH217881   6.207   0.666   4.674
 5979TIP3    H117882   6.240   0.657   4.764
 5979TIP3    H217883   6.260   0.605   4.623
 5980TIP3   OH217884   6.587   0.819   4.478
 5980TIP3    H117885   6.682   0.813   4.477
 5980TIP3    H217886   6.557   0.739   4.436
 5981TIP3   OH217887   7.842   0.721   4.757
 5981TIP3    H117888   7.758   0.765   4.746
 5981TIP3    H217889   7.876   0.755   4.840
 5982TIP3   OH217890   6.843   1.174   4.022
 5982TIP3    H117891   6.830   1.164   3.928
 5982TIP3    H217892   6.806   1.259   4.043
 5983TIP3   OH217893   6.631   1.127   4.777
 5983TIP3    H117894   6.574   1.196   4.809
 5983TIP3    H217895   6.675   1.165   4.701
 5984TIP3   OH217896   6.372   0.519   4.855
 5984TIP3    H117897   6.446   0.579   4.843
 5984TIP3    H217898   6.367   0.470   4.774
 5985TIP3   OH217899   6.464   1.322   4.875
 5985TIP3    H117900   6.449   1.411   4.842
 5985TIP3    H217901   6.386   1.303   4.927
 5986TIP3   OH217902   5.839   1.036   4.119
 5986TIP3    H117903   5.810   1.055   4.030
 5986TIP3    H217904   5.863   1.121   4.156
 5987TIP3   OH217905   7.287   1.526   4.362
 5987TIP3    H117906   7.200   1.517   4.401
 5987TIP3    H217907   7.284   1.611   4.317
 5988TIP3   OH217908   6.986   1.556   4.021
 5988TIP3    H117909   7.036   1.475   4.008
 5988TIP3    H217910   7.045   1.626   3.992
 5989TIP3   OH217911   7.134   1.337   3.971
 5989TIP3    H117912   7.147   1.265   3.910
 5989TIP3    H217913   7.178   1.308   4.051
 5990TIP3   OH217914   7.527   1.415   4.715
 5990TIP3    H117915   7.505   1.344   4.654
 5990TIP3    H217916   7.510   1.495   4.665
 5991TIP3   OH217917   6.797   0.834   3.967
 5991TIP3    H117918   6.716   0.883   3.949
 5991TIP3    H217919   6.845   0.835   3.885
 5992TIP3   OH217920   6.758   0.663   3.667
 5992TIP3    H117921   6.827   0.720   3.700
 5992TIP3    H217922   6.793   0.575   3.675
 5993TIP3   OH217923   7.690   1.084   4.561
 5993TIP3    H117924   7.606   1.129   4.558
 5993TIP3    H217925   7.725   1.095   4.472
 5994TIP3   OH217926   7.145   0.924   3.941
 5994TIP3    H117927   7.087   0.942   4.016
 5994TIP3    H217928   7.232   0.918   3.979
 5995TIP3   OH217929   7.395   0.991   4.852
 5995TIP3    H117930   7.369   1.065   4.906
 5995TIP3    H217931   7.314   0.960   4.811
 5996TIP3   OH217932   6.365   0.908   4.332
 5996TIP3    H117933   6.336   0.841   4.270
 5996TIP3    H217934   6.444   0.872   4.371
 5997TIP3   OH217935   6.523   1.310   4.487
 5997TIP3    H117936   6.501   1.298   4.395
 5997TIP3    H217937   6.612   1.276   4.496
 5998TIP3   OH217938   6.478   0.912   4.711
 5998TIP3    H117939   6.515   0.879   4.630
 5998TIP3    H217940   6.530   0.989   4.732
 5999TIP3   OH217941   7.051   1.518   4.496
 5999TIP3    H117942   7.035   1.600   4.544
 5999TIP3    H217943   7.034   1.449   4.560
 6000TIP3   OH217944   6.662   1.422   5.040
 6000TIP3    H117945   6.603   1.481   5.086
 6000TIP3    H217946   6.605   1.371   4.983
 6001TIP3   OH217947   6.985   0.795   3.758
 6001TIP3    H117948   7.044   0.851   3.809
 6001TIP3    H217949   7.020   0.800   3.669
 6002TIP3   OH217950   6.418   0.998   5.160
 6002TIP3    H117951   6.426   1.087   5.195
 6002TIP3    H217952   6.326   0.975   5.173
 6003TIP3   OH217953   6.739   1.434   4.035
 6003TIP3    H117954   6.824   1.479   4.037
 6003TIP3    H217955   6.682   1.491   3.983
 6004TIP3   OH217956   6.455   1.582   5.126
 6004TIP3    H117957   6.429   1.592   5.035
 6004TIP3    H217958   6.374   1.564   5.173
 6005TIP3   OH217959   6.249   0.728   4.142
 6005TIP3    H117960   6.179   0.782   4.106
 6005TIP3    H217961   6.203   0.658   4.189
 6006TIP3   OH217962   7.317   1.369   3.397
 6006TIP3    H117963   7.311   1.458   3.363
 6006TIP3    H217964   7.395   1.332   3.355
 6007TIP3   OH217965   6.047   1.131   5.073
 6007TIP3    H117966   5.976   1.122   5.009
 6007TIP3    H217967   6.084   1.042   5.080
 6008TIP3   OH217968   5.891   1.331   4.727
 6008TIP3    H117969   5.984   1.353   4.736
 6008TIP3    H217970   5.845   1.410   4.756
 6009TIP3   OH217971   7.755   1.802   4.767
 6009TIP3    H117972   7.766   1.707   4.773
 6009TIP3    H217973   7.673   1.820   4.814
 6010TIP3   OH217974   6.854   1.559   4.900
 6010TIP3    H117975   6.848   1.651   4.928
 6010TIP3    H217976   6.786   1.514   4.950
 6011TIP3   OH217977   6.634   1.661   3.855
 6011TIP3    H117978   6.591   1.642   3.772
 6011TIP3    H217979   6.597   1.745   3.882
 6012TIP3   OH217980   6.067   1.520   4.232
 6012TIP3    H117981   6.112   1.513   4.316
 6012TIP3    H217982   6.018   1.438   4.224
 6013TIP3   OH217983   6.838   1.585   3.481
 6013TIP3    H117984   6.887   1.511   3.445
 6013TIP3    H217985   6.874   1.598   3.568
 6014TIP3   OH217986   6.888   1.636   3.751
 6014TIP3    H117987   6.802   1.639   3.794
 6014TIP3    H217988   6.946   1.601   3.818
 6015TIP3   OH217989   7.613   0.915   5.021
 6015TIP3    H117990   7.551   0.967   4.971
 6015TIP3    H217991   7.605   0.826   4.985
 6016TIP3   OH217992   6.246   1.322   5.044
 6016TIP3    H117993   6.295   1.316   5.126
 6016TIP3    H217994   6.176   1.258   5.053
 6017TIP3   OH217995   7.538   0.656   4.971
 6017TIP3    H117996   7.459   0.640   5.024
 6017TIP3    H217997   7.507   0.657   4.881
 6018TIP3   OH217998   7.083   0.795   3.505
 6018TIP3    H117999   7.033   0.787   3.423
 6018TIP3    H218000   7.156   0.853   3.482
 6019TIP3   OH218001   6.561   0.718   4.886
 6019TIP3    H118002   6.517   0.731   4.970
 6019TIP3    H218003   6.527   0.789   4.830
 6020TIP3   OH218004   6.467   0.622   4.339
 6020TIP3    H118005   6.373   0.605   4.336
 6020TIP3    H218006   6.503   0.575   4.263
 6021TIP3   OH218007   6.904   0.639   4.122
 6021TIP3    H118008   6.853   0.709   4.081
 6021TIP3    H218009   6.961   0.607   4.052
 6022TIP3   OH218010   7.107   0.956   5.161
 6022TIP3    H118011   7.082   0.874   5.202
 6022TIP3    H218012   7.203   0.957   5.165
 6023TIP3   OH218013   7.071   0.755   4.311
 6023TIP3    H118014   7.038   0.837   4.273
 6023TIP3    H218015   7.008   0.689   4.284
 6024TIP3   OH218016   6.379   0.709   5.103
 6024TIP3    H118017   6.350   0.781   5.159
 6024TIP3    H218018   6.306   0.647   5.104
 6025TIP3   OH218019   6.014   0.356   4.191
 6025TIP3    H118020   6.107   0.351   4.168
 6025TIP3    H218021   6.002   0.294   4.262
 6026TIP3   OH218022   7.131   0.923   4.753
 6026TIP3    H118023   7.149   0.853   4.691
 6026TIP3    H218024   7.094   0.879   4.829
 6027TIP3   OH218025   6.217   0.511   4.358
 6027TIP3    H118026   6.124   0.523   4.378
 6027TIP3    H218027   6.219   0.430   4.307
 6028TIP3   OH218028   6.508   0.472   4.111
 6028TIP3    H118029   6.603   0.460   4.103
 6028TIP3    H218030   6.478   0.485   4.021
 6029TIP3   OH218031   6.369   0.443   3.883
 6029TIP3    H118032   6.279   0.443   3.851
 6029TIP3    H218033   6.419   0.492   3.817
 6030TIP3   OH218034   7.461   2.122   4.868
 6030TIP3    H118035   7.456   2.140   4.774
 6030TIP3    H218036   7.538   2.171   4.898
 6031TIP3   OH218037   6.403   1.250   5.279
 6031TIP3    H118038   6.484   1.265   5.328
 6031TIP3    H218039   6.334   1.255   5.345
 6032TIP3   OH218040   6.855   0.768   4.518
 6032TIP3    H118041   6.893   0.684   4.494
 6032TIP3    H218042   6.846   0.764   4.613
 6033TIP3   OH218043   6.810   0.730   4.781
 6033TIP3    H118044   6.729   0.723   4.830
 6033TIP3    H218045   6.871   0.774   4.840
 6034TIP3   OH218046   6.564   0.972   3.908
 6034TIP3    H118047   6.489   0.915   3.891
 6034TIP3    H218048   6.545   1.012   3.993
 6035TIP3   OH218049   7.459   1.228   4.529
 6035TIP3    H118050   7.494   1.274   4.453
 6035TIP3    H218051   7.375   1.192   4.500
 6036TIP3   OH218052   6.900   0.437   3.701
 6036TIP3    H118053   6.870   0.357   3.744
 6036TIP3    H218054   6.969   0.471   3.758
 6037TIP3   OH218055   6.972   1.278   4.946
 6037TIP3    H118056   7.032   1.280   5.021
 6037TIP3    H218057   6.935   1.366   4.943
 6038TIP3   OH218058   7.048   0.563   3.902
 6038TIP3    H118059   7.125   0.576   3.957
 6038TIP3    H218060   7.043   0.644   3.850
 6039TIP3   OH218061   6.248   0.996   4.564
 6039TIP3    H118062   6.281   0.976   4.476
 6039TIP3    H218063   6.312   0.959   4.623
 6040TIP3   OH218064   6.738   1.123   3.754
 6040TIP3    H118065   6.693   1.207   3.753
 6040TIP3    H218066   6.680   1.065   3.804
 6041TIP3   OH218067   6.165   0.882   5.202
 6041TIP3    H118068   6.158   0.865   5.295
 6041TIP3    H218069   6.081   0.854   5.165
 6042TIP3   OH218070   6.866   1.057   5.235
 6042TIP3    H118071   6.805   0.996   5.194
 6042TIP3    H218072   6.952   1.035   5.199
 6043TIP3   OH218073   7.124   1.581   4.824
 6043TIP3    H118074   7.029   1.569   4.829
 6043TIP3    H218075   7.147   1.621   4.908
 6044TIP3   OH218076   7.494   0.666   3.689
 6044TIP3    H118077   7.430   0.622   3.633
 6044TIP3    H218078   7.502   0.753   3.652
 6045TIP3   OH218079   7.775   1.524   4.784
 6045TIP3    H118080   7.683   1.497   4.791
 6045TIP3    H218081   7.803   1.490   4.699
 6046TIP3   OH218082   7.245   1.442   3.653
 6046TIP3    H118083   7.210   1.368   3.702
 6046TIP3    H218084   7.264   1.406   3.566
 6047TIP3   OH218085   7.225   1.112   4.434
 6047TIP3    H118086   7.136   1.087   4.458
 6047TIP3    H218087   7.263   1.032   4.396
 6048TIP3   OH218088   6.388   1.317   4.239
 6048TIP3    H118089   6.387   1.393   4.182
 6048TIP3    H218090   6.296   1.300   4.259
 6049TIP3   OH218091   5.952   0.607   3.968
 6049TIP3    H118092   5.999   0.691   3.970
 6049TIP3    H218093   5.870   0.624   4.015
 6050TIP3   OH218094   6.478   1.075   4.141
 6050TIP3    H118095   6.465   1.165   4.169
 6050TIP3    H218096   6.439   1.023   4.212
 6051TIP3   OH218097   6.667   1.634   4.694
 6051TIP3    H118098   6.702   1.708   4.644
 6051TIP3    H218099   6.743   1.602   4.744
 6052TIP3   OH218100   6.301   1.537   4.087
 6052TIP3    H118101   6.214   1.544   4.126
 6052TIP3    H218102   6.336   1.626   4.091
 6053TIP3   OH218103   7.020   1.300   4.670
 6053TIP3    H118104   7.013   1.287   4.765
 6053TIP3    H218105   7.095   1.246   4.644
 6054TIP3   OH218106   6.987   1.182   3.578
 6054TIP3    H118107   7.057   1.168   3.642
 6054TIP3    H218108   6.906   1.163   3.626
 6055TIP3   OH218109   7.277   1.798   4.704
 6055TIP3    H118110   7.203   1.738   4.718
 6055TIP3    H218111   7.249   1.855   4.633
 6056TIP3   OH218112   7.327   1.645   3.340
 6056TIP3    H118113   7.333   1.698   3.260
 6056TIP3    H218114   7.258   1.686   3.391
 6057TIP3   OH218115   7.181   1.141   3.773
 6057TIP3    H118116   7.165   1.063   3.826
 6057TIP3    H218117   7.272   1.134   3.745
 6058TIP3   OH218118   6.095   1.531   4.853
 6058TIP3    H118119   6.150   1.472   4.906
 6058TIP3    H218120   6.111   1.618   4.891
 6059TIP3   OH218121   6.357   1.153   3.548
 6059TIP3    H118122   6.375   1.063   3.519
 6059TIP3    H218123   6.346   1.146   3.643
 6060TIP3   OH218124   6.311   1.159   3.821
 6060TIP3    H118125   6.386   1.132   3.875
 6060TIP3    H218126   6.311   1.255   3.827
 6061TIP3   OH218127   6.042   0.867   4.029
 6061TIP3    H118128   5.975   0.913   4.079
 6061TIP3    H218129   6.061   0.925   3.955
 6062TIP3   OH218130   6.584   1.346   3.759
 6062TIP3    H118131   6.499   1.370   3.796
 6062TIP3    H218132   6.605   1.418   3.700
 6063TIP3   OH218133   6.771   0.407   4.095
 6063TIP3    H118134   6.815   0.490   4.113
 6063TIP3    H218135   6.762   0.366   4.181
 6064TIP3   OH218136   7.032   0.766   4.958
 6064TIP3    H118137   6.995   0.835   5.014
 6064TIP3    H218138   7.101   0.727   5.012
 6065TIP3   OH218139   6.331   1.431   3.835
 6065TIP3    H118140   6.311   1.501   3.773
 6065TIP3    H218141   6.319   1.471   3.922
 6066TIP3   OH218142   7.317   0.873   4.333
 6066TIP3    H118143   7.241   0.817   4.349
 6066TIP3    H218144   7.386   0.837   4.389
 6067TIP3   OH218145   6.061   1.039   3.810
 6067TIP3    H118146   6.133   1.101   3.820
 6067TIP3    H218147   6.092   0.975   3.747
 6068TIP3   OH218148   5.802   0.403   3.858
 6068TIP3    H118149   5.851   0.471   3.904
 6068TIP3    H218150   5.811   0.326   3.913
 6069TIP3   OH218151   7.304   1.792   4.280
 6069TIP3    H118152   7.261   1.843   4.211
 6069TIP3    H218153   7.397   1.804   4.264
 6070TIP3   OH218154   5.893   1.297   4.210
 6070TIP3    H118155   5.850   1.334   4.288
 6070TIP3    H218156   5.850   1.341   4.136
 6071TIP3   OH218157   6.089   1.830   5.273
 6071TIP3    H118158   6.171   1.833   5.321
 6071TIP3    H218159   6.069   1.737   5.264
 6072TIP3   OH218160   6.557   1.746   5.323
 6072TIP3    H118161   6.650   1.727   5.329
 6072TIP3    H218162   6.525   1.692   5.251
 6073TIP3   OH218163   6.521   1.347   3.440
 6073TIP3    H118164   6.475   1.275   3.483
 6073TIP3    H218165   6.597   1.304   3.399
 6074TIP3   OH218166   7.180   1.686   5.071
 6074TIP3    H118167   7.193   1.619   5.138
 6074TIP3    H218168   7.254   1.747   5.083
 6075TIP3   OH218169   6.968   1.371   3.371
 6075TIP3    H118170   7.004   1.305   3.430
 6075TIP3    H218171   7.028   1.371   3.295
 6076TIP3   OH218172   6.194   1.234   5.466
 6076TIP3    H118173   6.222   1.143   5.466
 6076TIP3    H218174   6.110   1.234   5.420
 6077TIP3   OH218175   6.185   0.844   3.666
 6077TIP3    H118176   6.236   0.822   3.743
 6077TIP3    H218177   6.250   0.861   3.598
 6078TIP3   OH218178   6.813   1.329   5.248
 6078TIP3    H118179   6.768   1.349   5.166
 6078TIP3    H218180   6.844   1.239   5.237
 6079TIP3   OH218181   6.684   1.067   3.484
 6079TIP3    H118182   6.701   1.076   3.578
 6079TIP3    H218183   6.693   0.974   3.467
 6080TIP3   OH218184   7.290   1.359   4.855
 6080TIP3    H118185   7.370   1.384   4.808
 6080TIP3    H218186   7.228   1.430   4.837
 6081TIP3   OH218187   6.337   0.993   5.463
 6081TIP3    H118188   6.417   0.951   5.432
 6081TIP3    H218189   6.356   1.015   5.554
 6082TIP3   OH218190   6.356   0.787   3.882
 6082TIP3    H118191   6.335   0.753   3.969
 6082TIP3    H218192   6.405   0.717   3.839
 6083TIP3   OH218193   6.672   0.885   5.123
 6083TIP3    H118194   6.585   0.924   5.133
 6083TIP3    H218195   6.707   0.925   5.043
 6084TIP3   OH218196   6.494   0.612   3.716
 6084TIP3    H118197   6.458   0.617   3.628
 6084TIP3    H218198   6.586   0.633   3.706
 6085TIP3   OH218199   7.170   1.250   5.213
 6085TIP3    H118200   7.242   1.216   5.160
 6085TIP3    H218201   7.165   1.190   5.287
 6086TIP3   OH218202   7.282   0.947   3.378
 6086TIP3    H118203   7.265   0.901   3.296
 6086TIP3    H218204   7.280   1.040   3.354
 6087TIP3   OH218205   6.781   0.629   5.143
 6087TIP3    H118206   6.721   0.568   5.100
 6087TIP3    H218207   6.740   0.715   5.131
 6088TIP3   OH218208   6.829   1.006   4.927
 6088TIP3    H118209   6.896   1.073   4.932
 6088TIP3    H218210   6.762   1.043   4.869
 6089TIP3   OH218211   7.372   0.899   5.212
 6089TIP3    H118212   7.370   0.894   5.307
 6089TIP3    H218213   7.451   0.949   5.192
 6090TIP3   OH218214   7.404   1.204   5.044
 6090TIP3    H118215   7.352   1.262   4.988
 6090TIP3    H218216   7.493   1.210   5.010
 6091TIP3   OH218217   6.619   0.846   5.457
 6091TIP3    H118218   6.585   0.765   5.418
 6091TIP3    H218219   6.692   0.872   5.400
 6092TIP3   OH218220   7.023   0.721   5.253
 6092TIP3    H118221   7.041   0.693   5.343
 6092TIP3    H218222   6.943   0.673   5.229
 6093TIP3   OH218223   6.325   1.637   3.650
 6093TIP3    H118224   6.415   1.619   3.624
 6093TIP3    H218225   6.287   1.684   3.576
 6094TIP3   OH218226   5.788   1.027   3.834
 6094TIP3    H118227   5.882   1.042   3.827
 6094TIP3    H218228   5.775   0.941   3.793
 6095TIP3   OH218229   5.695   1.607   4.290
 6095TIP3    H118230   5.630   1.554   4.244
 6095TIP3    H218231   5.739   1.545   4.349
 6096TIP3   OH218232   5.836   1.438   4.459
 6096TIP3    H118233   5.826   1.372   4.527
 6096TIP3    H218234   5.888   1.507   4.500
 6097TIP3   OH218235   7.574   1.838   4.263
 6097TIP3    H118236   7.599   1.871   4.349
 6097TIP3    H218237   7.636   1.879   4.203
 6098TIP3   OH218238   7.587   1.880   4.544
 6098TIP3    H118239   7.544   1.795   4.543
 6098TIP3    H218240   7.662   1.867   4.602
 6099TIP3   OH218241   7.645   1.575   5.127
 6099TIP3    H118242   7.570   1.585   5.185
 6099TIP3    H218243   7.687   1.661   5.126
 6100TIP3   OH218244   7.448   1.115   3.717
 6100TIP3    H118245   7.505   1.181   3.677
 6100TIP3    H218246   7.496   1.086   3.795
 6101TIP3   OH218247   7.582   1.021   3.933
 6101TIP3    H118248   7.508   0.992   3.987
 6101TIP3    H218249   7.647   1.050   3.996
 6102TIP3   OH218250   7.643   1.344   4.356
 6102TIP3    H118251   7.687   1.279   4.301
 6102TIP3    H218252   7.645   1.424   4.303
 6103TIP3   OH218253   7.452   1.633   4.562
 6103TIP3    H118254   7.384   1.681   4.610
 6103TIP3    H218255   7.406   1.594   4.488
 6104TIP3   OH218256   7.487   0.901   3.553
 6104TIP3    H118257   7.420   0.910   3.485
 6104TIP3    H218258   7.474   0.976   3.610
 6105TIP3   OH218259   7.335   0.566   3.489
 6105TIP3    H118260   7.324   0.628   3.416
 6105TIP3    H218261   7.322   0.480   3.450
 6106TIP3   OH218262   7.385   0.899   4.072
 6106TIP3    H118263   7.424   0.814   4.052
 6106TIP3    H218264   7.371   0.896   4.167
 6107TIP3   OH218265   6.007   0.859   4.840
 6107TIP3    H118266   5.998   0.851   4.745
 6107TIP3    H218267   6.100   0.871   4.855
 6108TIP3   OH218268   7.650   1.234   4.924
 6108TIP3    H118269   7.723   1.175   4.906
 6108TIP3    H218270   7.639   1.284   4.844
 6109TIP3   OH218271   7.860   1.059   4.930
 6109TIP3    H118272   7.812   0.979   4.953
 6109TIP3    H218273   7.935   1.060   4.989
 6110TIP3   OH218274   7.449   0.659   3.960
 6110TIP3    H118275   7.435   0.564   3.959
 6110TIP3    H218276   7.474   0.680   3.870
 6111TIP3   OH218277   7.523   0.790   4.479
 6111TIP3    H118278   7.609   0.805   4.439
 6111TIP3    H218279   7.539   0.797   4.573
 6112TIP3   OH218280   7.613   0.874   4.724
 6112TIP3    H118281   7.534   0.908   4.765
 6112TIP3    H218282   7.646   0.948   4.672
 6113TIP3   OH218283   6.134   0.513   5.523
 6113TIP3    H118284   6.189   0.445   5.485
 6113TIP3    H218285   6.085   0.469   5.592
 6114TIP3   OH218286   5.976   0.579   4.886
 6114TIP3    H118287   6.017   0.542   4.807
 6114TIP3    H218288   5.993   0.673   4.881
 6115TIP3   OH218289   7.133   1.755   3.915
 6115TIP3    H118290   7.187   1.744   3.837
 6115TIP3    H218291   7.176   1.825   3.964
 6116TIP3   OH218292   6.233   1.548   5.290
 6116TIP3    H118293   6.138   1.533   5.283
 6116TIP3    H218294   6.250   1.547   5.384
 6117TIP3   OH218295   6.439   1.598   4.843
 6117TIP3    H118296   6.387   1.672   4.811
 6117TIP3    H218297   6.523   1.607   4.799
 6118TIP3   OH218298   6.841   1.827   4.978
 6118TIP3    H118299   6.878   1.822   5.066
 6118TIP3    H218300   6.902   1.881   4.929
 6119TIP3   OH218301   7.030   1.984   4.853
 6119TIP3    H118302   7.093   1.934   4.800
 6119TIP3    H218303   7.084   2.041   4.907
 6120TIP3   OH218304   6.098   1.834   4.890
 6120TIP3    H118305   6.008   1.851   4.866
 6120TIP3    H218306   6.120   1.902   4.954
 6121TIP3   OH218307   6.329   1.827   4.738
 6121TIP3    H118308   6.246   1.833   4.785
 6121TIP3    H218309   6.308   1.853   4.649
 6122TIP3   OH218310   6.746   1.844   4.530
 6122TIP3    H118311   6.677   1.856   4.466
 6122TIP3    H218312   6.757   1.930   4.570
 6123TIP3   OH218313   7.011   1.780   4.581
 6123TIP3    H118314   6.920   1.800   4.561
 6123TIP3    H218315   7.061   1.847   4.533
 6124TIP3   OH218316   7.212   1.955   4.482
 6124TIP3    H118317   7.207   2.042   4.442
 6124TIP3    H218318   7.242   1.898   4.411
 6125TIP3   OH218319   6.008   1.618   4.603
 6125TIP3    H118320   6.033   1.595   4.692
 6125TIP3    H218321   6.081   1.587   4.549
 6126TIP3   OH218322   6.213   1.506   4.465
 6126TIP3    H118323   6.224   1.424   4.513
 6126TIP3    H218324   6.300   1.547   4.468
 6127TIP3   OH218325   6.481   1.589   4.489
 6127TIP3    H118326   6.499   1.496   4.475
 6127TIP3    H218327   6.535   1.613   4.565
 6128TIP3   OH218328   5.776   1.416   3.993
 6128TIP3    H118329   5.692   1.383   3.961
 6128TIP3    H218330   5.781   1.505   3.960
 6129TIP3   OH218331   6.583   1.568   3.585
 6129TIP3    H118332   6.667   1.594   3.548
 6129TIP3    H218333   6.552   1.498   3.527
 6130TIP3   OH218334   7.282   1.710   3.685
 6130TIP3    H118335   7.275   1.615   3.678
 6130TIP3    H218336   7.239   1.743   3.606
 6131TIP3   OH218337   5.883   1.410   3.640
 6131TIP3    H118338   5.887   1.427   3.734
 6131TIP3    H218339   5.964   1.365   3.620
 6132TIP3   OH218340   7.500   1.849   4.868
 6132TIP3    H118341   7.426   1.819   4.816
 6132TIP3    H218342   7.487   1.944   4.876
 6133TIP3   OH218343   8.058   1.526   4.120
 6133TIP3    H118344   8.053   1.436   4.089
 6133TIP3    H218345   8.143   1.533   4.163
 6134TIP3   OH218346   7.748   0.785   3.940
 6134TIP3    H118347   7.675   0.831   3.899
 6134TIP3    H218348   7.796   0.745   3.867
 6135TIP3   OH218349   7.848   1.011   4.057
 6135TIP3    H118350   7.816   0.926   4.027
 6135TIP3    H218351   7.900   1.044   3.984
 6136TIP3   OH218352   7.632   1.283   3.598
 6136TIP3    H118353   7.593   1.305   3.514
 6136TIP3    H218354   7.654   1.367   3.638
 6137TIP3   OH218355   8.271   1.899   4.663
 6137TIP3    H118356   8.267   1.859   4.576
 6137TIP3    H218357   8.189   1.873   4.705
 6138TIP3   OH218358   7.841   1.404   4.547
 6138TIP3    H118359   7.769   1.379   4.489
 6138TIP3    H218360   7.874   1.322   4.582
 6139TIP3   OH218361   7.690   1.584   4.219
 6139TIP3    H118362   7.781   1.611   4.233
 6139TIP3    H218363   7.638   1.660   4.244
 6140TIP3   OH218364   7.845   1.779   3.740
 6140TIP3    H118365   7.916   1.769   3.804
 6140TIP3    H218366   7.817   1.690   3.721
 6141TIP3   OH218367   8.015   1.616   4.524
 6141TIP3    H118368   8.093   1.583   4.567
 6141TIP3    H218369   7.954   1.543   4.525
 6142TIP3   OH218370   7.864   0.665   3.722
 6142TIP3    H118371   7.845   0.659   3.628
 6142TIP3    H218372   7.848   0.576   3.755
 6143TIP3   OH218373   8.197   1.486   4.732
 6143TIP3    H118374   8.148   1.550   4.785
 6143TIP3    H218375   8.176   1.402   4.771
 6144TIP3   OH218376   7.924   1.178   4.674
 6144TIP3    H118377   7.948   1.155   4.764
 6144TIP3    H218378   7.849   1.121   4.654
 6145TIP3   OH218379   7.742   0.847   3.466
 6145TIP3    H118380   7.791   0.929   3.465
 6145TIP3    H218381   7.655   0.872   3.498
 6146TIP3   OH218382   7.882   1.788   4.342
 6146TIP3    H118383   7.936   1.732   4.398
 6146TIP3    H218384   7.898   1.877   4.375
 6147TIP3   OH218385   7.824   1.110   3.484
 6147TIP3    H118386   7.766   1.160   3.540
 6147TIP3    H218387   7.840   1.168   3.409
 6148TIP3   OH218388   7.847   1.306   3.276
 6148TIP3    H118389   7.919   1.365   3.300
 6148TIP3    H218390   7.853   1.298   3.181
 6149TIP3   OH218391   7.658   0.624   3.339
 6149TIP3    H118392   7.682   0.709   3.378
 6149TIP3    H218393   7.631   0.571   3.414
 6150TIP3   OH218394   7.679   1.542   3.696
 6150TIP3    H118395   7.639   1.585   3.771
 6150TIP3    H218396   7.642   1.587   3.620
 6151TIP3   OH218397   7.867   2.071   4.763
 6151TIP3    H118398   7.948   2.069   4.814
 6151TIP3    H218399   7.839   1.979   4.759
 6152TIP3   OH218400   7.996   1.491   4.951
 6152TIP3    H118401   8.029   1.402   4.939
 6152TIP3    H218402   7.914   1.493   4.902
 6153TIP3   OH218403   8.137   1.247   4.887
 6153TIP3    H118404   8.206   1.192   4.851
 6153TIP3    H218405   8.107   1.200   4.965
 6154TIP3   OH218406   7.573   1.276   3.312
 6154TIP3    H118407   7.666   1.299   3.307
 6154TIP3    H218408   7.570   1.184   3.284
 6155TIP3   OH218409   7.486   1.864   3.780
 6155TIP3    H118410   7.421   1.811   3.735
 6155TIP3    H218411   7.532   1.803   3.838
 6156TIP3   OH218412   7.622   1.690   3.948
 6156TIP3    H118413   7.615   1.626   4.018
 6156TIP3    H218414   7.685   1.754   3.980
 6157TIP3   OH218415   7.823   1.117   4.311
 6157TIP3    H118416   7.823   1.077   4.224
 6157TIP3    H218417   7.908   1.160   4.318
 6158TIP3   OH218418   7.922   0.798   5.047
 6158TIP3    H118419   8.011   0.831   5.038
 6158TIP3    H218420   7.931   0.702   5.043
 6159TIP3   OH218421   7.788   0.832   4.395
 6159TIP3    H118422   7.834   0.798   4.319
 6159TIP3    H218423   7.819   0.922   4.404
 6160TIP3   OH218424   8.047   1.796   4.800
 6160TIP3    H118425   7.966   1.779   4.751
 6160TIP3    H218426   8.022   1.784   4.892
 6161TIP3   OH218427   7.882   2.072   4.389
 6161TIP3    H118428   7.794   2.100   4.363
 6161TIP3    H218429   7.911   2.139   4.451
 6162TIP3   OH218430   8.105   2.031   4.227
 6162TIP3    H118431   8.032   2.044   4.286
 6162TIP3    H218432   8.087   2.089   4.153
 6163TIP3   OH218433   7.804   1.866   4.088
 6163TIP3    H118434   7.834   1.846   4.176
 6163TIP3    H218435   7.875   1.837   4.031
 6164TIP3   OH218436   8.016   1.749   3.962
 6164TIP3    H118437   8.024   1.669   4.014
 6164TIP3    H218438   8.098   1.796   3.977
 6165TIP3   OH218439   7.574   1.660   3.471
 6165TIP3    H118440   7.489   1.633   3.437
 6165TIP3    H218441   7.581   1.753   3.449
 6166TIP3   OH218442   7.641   1.702   3.169
 6166TIP3    H118443   7.608   1.767   3.231
 6166TIP3    H218444   7.676   1.632   3.224
 6167TIP3   OH218445   1.228   2.024   5.305
 6167TIP3    H118446   1.197   2.111   5.279
 6167TIP3    H218447   1.158   1.965   5.277
 6168TIP3   OH218448   1.223   2.018   5.728
 6168TIP3    H118449   1.277   2.000   5.805
 6168TIP3    H218450   1.183   1.934   5.706
 6169TIP3   OH218451   0.522   1.901   6.082
 6169TIP3    H118452   0.562   1.841   6.146
 6169TIP3    H218453   0.593   1.923   6.023
 6170TIP3   OH218454   1.487   2.328   5.401
 6170TIP3    H118455   1.480   2.259   5.466
 6170TIP3    H218456   1.511   2.406   5.451
 6171TIP3   OH218457   0.511   2.293   5.771
 6171TIP3    H118458   0.495   2.198   5.769
 6171TIP3    H218459   0.606   2.301   5.773
 6172TIP3   OH218460   0.293   1.833   5.769
 6172TIP3    H118461   0.337   1.750   5.784
 6172TIP3    H218462   0.364   1.894   5.749
 6173TIP3   OH218463   1.154   2.754   5.414
 6173TIP3    H118464   1.177   2.691   5.346
 6173TIP3    H218465   1.168   2.706   5.496
 6174TIP3   OH218466   1.032   2.239   5.738
 6174TIP3    H118467   1.075   2.158   5.710
 6174TIP3    H218468   1.104   2.296   5.765
 6175TIP3   OH218469   2.073   1.538   5.755
 6175TIP3    H118470   2.082   1.624   5.796
 6175TIP3    H218471   2.111   1.549   5.668
 6176TIP3   OH218472   1.440   1.731   5.766
 6176TIP3    H118473   1.478   1.647   5.794
 6176TIP3    H218474   1.403   1.713   5.680
 6177TIP3   OH218475   0.816   1.408   5.731
 6177TIP3    H118476   0.796   1.481   5.673
 6177TIP3    H218477   0.781   1.331   5.687
 6178TIP3   OH218478   1.495   1.488   5.361
 6178TIP3    H118479   1.560   1.481   5.431
 6178TIP3    H218480   1.544   1.521   5.285
 6179TIP3   OH218481   0.441   1.602   5.817
 6179TIP3    H118482   0.504   1.579   5.885
 6179TIP3    H218483   0.455   1.537   5.748
 6180TIP3   OH218484   0.847   1.809   5.672
 6180TIP3    H118485   0.941   1.794   5.678
 6180TIP3    H218486   0.812   1.728   5.636
 6181TIP3   OH218487   2.096   1.758   5.921
 6181TIP3    H118488   2.013   1.806   5.911
 6181TIP3    H218489   2.095   1.727   6.011
 6182TIP3   OH218490   0.791   1.365   6.157
 6182TIP3    H118491   0.736   1.412   6.094
 6182TIP3    H218492   0.734   1.354   6.234
 6183TIP3   OH218493   1.122   2.241   5.168
 6183TIP3    H118494   1.083   2.214   5.085
 6183TIP3    H218495   1.070   2.317   5.195
 6184TIP3   OH218496   0.871   2.165   5.953
 6184TIP3    H118497   0.817   2.235   5.989
 6184TIP3    H218498   0.920   2.207   5.882
 6185TIP3   OH218499   1.660   1.509   5.578
 6185TIP3    H118500   1.619   1.493   5.662
 6185TIP3    H218501   1.719   1.583   5.594
 6186TIP3   OH218502   0.675   1.504   5.950
 6186TIP3    H118503   0.728   1.581   5.972
 6186TIP3    H218504   0.722   1.464   5.877
 6187TIP3   OH218505   0.705   2.363   6.061
 6187TIP3    H118506   0.694   2.453   6.031
 6187TIP3    H218507   0.627   2.345   6.113
 6188TIP3   OH218508   0.052   2.047   5.318
 6188TIP3    H118509   0.038   2.027   5.226
 6188TIP3    H218510   0.098   2.131   5.318
 6189TIP3   OH218511   1.527   2.574   5.543
 6189TIP3    H118512   1.440   2.568   5.581
 6189TIP3    H218513   1.528   2.658   5.497
 6190TIP3   OH218514   1.865   1.449   5.918
 6190TIP3    H118515   1.782   1.471   5.875
 6190TIP3    H218516   1.931   1.472   5.853
 6191TIP3   OH218517   1.156   1.113   5.884
 6191TIP3    H118518   1.156   1.019   5.905
 6191TIP3    H218519   1.075   1.146   5.923
 6192TIP3   OH218520   1.237   2.606   5.193
 6192TIP3    H118521   1.288   2.525   5.184
 6192TIP3    H218522   1.297   2.675   5.165
 6193TIP3   OH218523   1.382   2.380   5.150
 6193TIP3    H118524   1.321   2.307   5.137
 6193TIP3    H218525   1.430   2.357   5.230
 6194TIP3   OH218526   1.764   2.463   5.883
 6194TIP3    H118527   1.748   2.388   5.826
 6194TIP3    H218528   1.751   2.540   5.827
 6195TIP3   OH218529   1.056   1.866   5.152
 6195TIP3    H118530   0.974   1.912   5.131
 6195TIP3    H218531   1.103   1.863   5.069
 6196TIP3   OH218532   1.029   1.665   4.852
 6196TIP3    H118533   1.094   1.716   4.900
 6196TIP3    H218534   1.079   1.599   4.805
 6197TIP3   OH218535   1.951   2.126   5.746
 6197TIP3    H118536   1.867   2.172   5.743
 6197TIP3    H218537   1.982   2.128   5.655
 6198TIP3   OH218538   1.411   1.959   5.112
 6198TIP3    H118539   1.358   1.985   5.187
 6198TIP3    H218540   1.493   1.927   5.150
 6199TIP3   OH218541   1.644   1.986   6.056
 6199TIP3    H118542   1.642   2.069   6.103
 6199TIP3    H218543   1.561   1.984   6.008
 6200TIP3   OH218544   0.644   1.933   5.520
 6200TIP3    H118545   0.612   1.870   5.456
 6200TIP3    H218546   0.719   1.890   5.561
 6201TIP3   OH218547   0.781   2.351   5.663
 6201TIP3    H118548   0.763   2.331   5.572
 6201TIP3    H218549   0.868   2.314   5.679
 6202TIP3   OH218550   0.736   1.935   5.893
 6202TIP3    H118551   0.778   1.899   5.815
 6202TIP3    H218552   0.786   2.014   5.914
 6203TIP3   OH218553   1.285   2.573   5.670
 6203TIP3    H118554   1.275   2.651   5.726
 6203TIP3    H218555   1.276   2.500   5.731
 6204TIP3   OH218556   0.912   2.467   6.218
 6204TIP3    H118557   0.854   2.526   6.266
 6204TIP3    H218558   0.853   2.414   6.165
 6205TIP3   OH218559   1.244   1.818   4.946
 6205TIP3    H118560   1.304   1.875   4.994
 6205TIP3    H218561   1.270   1.828   4.854
 6206TIP3   OH218562   0.693   2.036   6.327
 6206TIP3    H118563   0.694   2.123   6.367
 6206TIP3    H218564   0.601   2.012   6.324
 6207TIP3   OH218565   0.988   2.485   5.206
 6207TIP3    H118566   1.072   2.532   5.210
 6207TIP3    H218567   0.931   2.543   5.156
 6208TIP3   OH218568   0.706   2.635   6.301
 6208TIP3    H118569   0.686   2.643   6.208
 6208TIP3    H218570   0.620   2.627   6.344
 6209TIP3   OH218571   1.752   1.040   5.001
 6209TIP3    H118572   1.677   1.061   5.056
 6209TIP3    H218573   1.764   1.117   4.946
 6210TIP3   OH218574   0.529   1.772   5.317
 6210TIP3    H118575   0.448   1.811   5.285
 6210TIP3    H218576   0.512   1.677   5.316
 6211TIP3   OH218577   1.560   2.395   4.538
 6211TIP3    H118578   1.561   2.491   4.531
 6211TIP3    H218579   1.652   2.370   4.530
 6212TIP3   OH218580   0.325   2.145   6.227
 6212TIP3    H118581   0.290   2.096   6.152
 6212TIP3    H218582   0.357   2.077   6.287
 6213TIP3   OH218583   0.191   2.320   5.829
 6213TIP3    H118584   0.284   2.321   5.850
 6213TIP3    H218585   0.150   2.371   5.899
 6214TIP3   OH218586   2.004   2.824   5.951
 6214TIP3    H118587   2.009   2.729   5.964
 6214TIP3    H218588   1.925   2.850   5.997
 6215TIP3   OH218589   1.104   2.605   6.079
 6215TIP3    H118590   1.100   2.696   6.108
 6215TIP3    H218591   1.037   2.561   6.130
 6216TIP3   OH218592   0.877   2.707   5.033
 6216TIP3    H118593   0.833   2.687   4.950
 6216TIP3    H218594   0.843   2.793   5.059
 6217TIP3   OH218595   0.319   2.562   5.406
 6217TIP3    H118596   0.373   2.561   5.485
 6217TIP3    H218597   0.267   2.482   5.411
 6218TIP3   OH218598   1.080   2.643   4.663
 6218TIP3    H118599   1.131   2.569   4.631
 6218TIP3    H218600   1.114   2.660   4.751
 6219TIP3   OH218601   1.132   2.686   4.933
 6219TIP3    H118602   1.046   2.689   4.973
 6219TIP3    H218603   1.189   2.646   4.999
 6220TIP3   OH218604   1.897   1.935   6.209
 6220TIP3    H118605   1.815   1.952   6.163
 6220TIP3    H218606   1.908   1.840   6.203
 6221TIP3   OH218607   0.489   2.365   6.249
 6221TIP3    H118608   0.552   2.331   6.313
 6221TIP3    H218609   0.426   2.294   6.238
 6222TIP3   OH218610   0.913   1.176   5.994
 6222TIP3    H118611   0.834   1.146   5.951
 6222TIP3    H218612   0.883   1.242   6.057
 6223TIP3   OH218613   1.461   1.302   6.223
 6223TIP3    H118614   1.528   1.273   6.285
 6223TIP3    H218615   1.378   1.288   6.270
 6224TIP3   OH218616   1.623   1.725   6.147
 6224TIP3    H118617   1.592   1.721   6.238
 6224TIP3    H218618   1.619   1.817   6.124
 6225TIP3   OH218619   1.319   1.832   4.685
 6225TIP3    H118620   1.281   1.811   4.599
 6225TIP3    H218621   1.401   1.876   4.664
 6226TIP3   OH218622   1.041   1.231   4.993
 6226TIP3    H118623   1.004   1.235   5.081
 6226TIP3    H218624   1.008   1.148   4.957
 6227TIP3   OH218625   0.827   1.716   6.036
 6227TIP3    H118626   0.783   1.723   6.121
 6227TIP3    H218627   0.803   1.795   5.989
 6228TIP3   OH218628   0.713   1.595   5.559
 6228TIP3    H118629   0.627   1.561   5.583
 6228TIP3    H218630   0.727   1.563   5.470
 6229TIP3   OH218631   1.188   1.665   5.287
 6229TIP3    H118632   1.139   1.736   5.245
 6229TIP3    H218633   1.247   1.633   5.219
 6230TIP3   OH218634   1.375   1.942   6.354
 6230TIP3    H118635   1.341   1.875   6.413
 6230TIP3    H218636   1.466   1.952   6.380
 6231TIP3   OH218637   1.350   1.674   5.514
 6231TIP3    H118638   1.285   1.697   5.449
 6231TIP3    H218639   1.398   1.600   5.475
 6232TIP3   OH218640   0.668   1.739   6.263
 6232TIP3    H118641   0.732   1.799   6.303
 6232TIP3    H218642   0.642   1.680   6.333
 6233TIP3   OH218643   0.708   1.199   4.997
 6233TIP3    H118644   0.688   1.191   5.090
 6233TIP3    H218645   0.632   1.243   4.960
 6234TIP3   OH218646   1.386   1.930   5.941
 6234TIP3    H118647   1.413   1.864   5.878
 6234TIP3    H218648   1.346   1.881   6.013
 6235TIP3   OH218649   1.082   1.396   5.613
 6235TIP3    H118650   1.009   1.396   5.675
 6235TIP3    H218651   1.159   1.384   5.669
 6236TIP3   OH218652   0.503   1.417   5.615
 6236TIP3    H118653   0.423   1.382   5.576
 6236TIP3    H218654   0.566   1.345   5.609
 6237TIP3   OH218655   0.726   1.473   5.314
 6237TIP3    H118656   0.821   1.480   5.303
 6237TIP3    H218657   0.690   1.491   5.227
 6238TIP3   OH218658   1.522   1.469   5.817
 6238TIP3    H118659   1.500   1.485   5.909
 6238TIP3    H218660   1.453   1.410   5.785
 6239TIP3   OH218661   0.599   1.509   5.075
 6239TIP3    H118662   0.550   1.446   5.022
 6239TIP3    H218663   0.657   1.552   5.012
 6240TIP3   OH218664   1.711   3.167   6.047
 6240TIP3    H118665   1.710   3.178   5.952
 6240TIP3    H218666   1.790   3.211   6.076
 6241TIP3   OH218667   0.658   2.280   6.455
 6241TIP3    H118668   0.738   2.300   6.504
 6241TIP3    H218669   0.589   2.278   6.521
 6242TIP3   OH218670   1.117   1.748   5.715
 6242TIP3    H118671   1.181   1.698   5.665
 6242TIP3    H218672   1.117   1.708   5.802
 6243TIP3   OH218673   0.694   1.209   5.573
 6243TIP3    H118674   0.670   1.182   5.484
 6243TIP3    H218675   0.775   1.162   5.591
 6244TIP3   OH218676   1.092   1.654   5.979
 6244TIP3    H118677   1.005   1.687   6.002
 6244TIP3    H218678   1.152   1.704   6.034
 6245TIP3   OH218679   0.819   2.006   5.097
 6245TIP3    H118680   0.745   1.950   5.073
 6245TIP3    H218681   0.793   2.045   5.181
 6246TIP3   OH218682   1.712   2.259   5.704
 6246TIP3    H118683   1.748   2.304   5.628
 6246TIP3    H218684   1.633   2.216   5.671
 6247TIP3   OH218685   1.294   1.327   5.001
 6247TIP3    H118686   1.201   1.307   4.996
 6247TIP3    H218687   1.298   1.421   5.014
 6248TIP3   OH218688   1.229   2.339   6.111
 6248TIP3    H118689   1.281   2.326   6.191
 6248TIP3    H218690   1.190   2.426   6.122
 6249TIP3   OH218691   1.351   1.589   5.073
 6249TIP3    H118692   1.447   1.590   5.082
 6249TIP3    H218693   1.332   1.665   5.018
 6250TIP3   OH218694   0.509   2.012   5.746
 6250TIP3    H118695   0.548   1.994   5.661
 6250TIP3    H218696   0.575   1.983   5.809
 6251TIP3   OH218697   0.972   2.166   4.940
 6251TIP3    H118698   0.924   2.249   4.939
 6251TIP3    H218699   0.918   2.107   4.993
 6252TIP3   OH218700   0.430   1.968   6.419
 6252TIP3    H118701   0.475   1.974   6.503
 6252TIP3    H218702   0.379   1.887   6.425
 6253TIP3   OH218703   1.136   2.082   6.406
 6253TIP3    H118704   1.073   2.016   6.377
 6253TIP3    H218705   1.221   2.049   6.377
 6254TIP3   OH218706   1.372   2.629   5.992
 6254TIP3    H118707   1.278   2.611   6.001
 6254TIP3    H218708   1.398   2.666   6.075
 6255TIP3   OH218709   1.754   1.666   4.897
 6255TIP3    H118710   1.697   1.628   4.829
 6255TIP3    H218711   1.767   1.757   4.869
 6256TIP3   OH218712   2.012   2.540   5.975
 6256TIP3    H118713   1.917   2.526   5.973
 6256TIP3    H218714   2.043   2.509   5.890
 6257TIP3   OH218715   1.493   2.474   4.816
 6257TIP3    H118716   1.471   2.410   4.884
 6257TIP3    H218717   1.506   2.421   4.737
 6258TIP3   OH218718   1.483   2.121   5.602
 6258TIP3    H118719   1.393   2.098   5.626
 6258TIP3    H218720   1.519   2.041   5.566
 6259TIP3   OH218721   0.634   2.362   5.415
 6259TIP3    H118722   0.634   2.430   5.348
 6259TIP3    H218723   0.565   2.388   5.476
 6260TIP3   OH218724   0.177   1.638   5.131
 6260TIP3    H118725   0.227   1.718   5.145
 6260TIP3    H218726   0.108   1.641   5.197
 6261TIP3   OH218727   0.717   2.115   5.322
 6261TIP3    H118728   0.696   2.204   5.352
 6261TIP3    H218729   0.695   2.059   5.396
 6262TIP3   OH218730   0.923   2.676   5.874
 6262TIP3    H118731   0.961   2.751   5.827
 6262TIP3    H218732   0.995   2.642   5.927
 6263TIP3   OH218733   0.551   2.584   5.257
 6263TIP3    H118734   0.465   2.587   5.300
 6263TIP3    H218735   0.584   2.674   5.264
 6264TIP3   OH218736   1.271   2.345   5.838
 6264TIP3    H118737   1.259   2.340   5.933
 6264TIP3    H218738   1.344   2.287   5.819
 6265TIP3   OH218739   1.277   2.195   4.681
 6265TIP3    H118740   1.327   2.178   4.761
 6265TIP3    H218741   1.192   2.155   4.697
 6266TIP3   OH218742   1.526   2.841   5.881
 6266TIP3    H118743   1.458   2.776   5.899
 6266TIP3    H218744   1.490   2.894   5.810
 6267TIP3   OH218745   1.568   2.672   4.517
 6267TIP3    H118746   1.590   2.729   4.443
 6267TIP3    H218747   1.501   2.720   4.565
 6268TIP3   OH218748   1.432   2.147   4.905
 6268TIP3    H118749   1.415   2.090   4.980
 6268TIP3    H218750   1.527   2.151   4.899
 6269TIP3   OH218751   0.371   2.570   6.009
 6269TIP3    H118752   0.397   2.510   6.080
 6269TIP3    H218753   0.384   2.657   6.046
 6270TIP3   OH218754   0.612   2.189   4.727
 6270TIP3    H118755   0.623   2.099   4.699
 6270TIP3    H218756   0.597   2.184   4.821
 6271TIP3   OH218757   0.557   2.202   5.001
 6271TIP3    H118758   0.627   2.175   5.060
 6271TIP3    H218759   0.557   2.298   5.005
 6272TIP3   OH218760   0.295   1.881   5.208
 6272TIP3    H118761   0.240   1.934   5.266
 6272TIP3    H218762   0.314   1.939   5.134
 6273TIP3   OH218763   1.451   1.529   6.073
 6273TIP3    H118764   1.522   1.586   6.103
 6273TIP3    H218765   1.455   1.452   6.131
 6274TIP3   OH218766   1.349   1.271   5.267
 6274TIP3    H118767   1.330   1.290   5.175
 6274TIP3    H218768   1.393   1.349   5.300
 6275TIP3   OH218769   0.825   2.392   4.938
 6275TIP3    H118770   0.739   2.416   4.973
 6275TIP3    H218771   0.848   2.465   4.880
 6276TIP3   OH218772   1.003   1.477   5.362
 6276TIP3    H118773   1.066   1.543   5.333
 6276TIP3    H218774   1.029   1.457   5.452
 6277TIP3   OH218775   1.291   1.764   6.140
 6277TIP3    H118776   1.318   1.808   6.221
 6277TIP3    H218777   1.340   1.682   6.139
 6278TIP3   OH218778   1.164   1.175   5.448
 6278TIP3    H118779   1.151   1.251   5.504
 6278TIP3    H218780   1.233   1.201   5.387
 6279TIP3   OH218781   0.571   2.475   5.009
 6279TIP3    H118782   0.552   2.547   4.948
 6279TIP3    H218783   0.564   2.514   5.096
 6280TIP3   OH218784   0.686   1.199   5.283
 6280TIP3    H118785   0.687   1.294   5.298
 6280TIP3    H218786   0.778   1.175   5.271
 6281TIP3   OH218787   1.883   1.664   6.112
 6281TIP3    H118788   1.789   1.675   6.126
 6281TIP3    H218789   1.889   1.588   6.053
 6282TIP3   OH218790   1.578   1.864   5.514
 6282TIP3    H118791   1.503   1.806   5.529
 6282TIP3    H218792   1.650   1.824   5.564
 6283TIP3   OH218793   0.311   2.069   5.000
 6283TIP3    H118794   0.382   2.134   5.009
 6283TIP3    H218795   0.341   2.010   4.931
 6284TIP3   OH218796   0.259   1.391   5.016
 6284TIP3    H118797   0.246   1.473   5.064
 6284TIP3    H218798   0.255   1.323   5.083
 6285TIP3   OH218799   1.551   2.842   5.462
 6285TIP3    H118800   1.512   2.895   5.392
 6285TIP3    H218801   1.646   2.852   5.448
 6286TIP3   OH218802   0.108   2.296   5.391
 6286TIP3    H118803   0.113   2.358   5.463
 6286TIP3    H218804   0.081   2.349   5.315
 6287TIP3   OH218805   0.348   2.852   6.460
 6287TIP3    H118806   0.420   2.884   6.514
 6287TIP3    H218807   0.373   2.763   6.438
 6288TIP3   OH218808   0.814   2.799   6.495
 6288TIP3    H118809   0.903   2.766   6.509
 6288TIP3    H218810   0.779   2.744   6.425
 6289TIP3   OH218811   0.773   2.386   4.618
 6289TIP3    H118812   0.724   2.316   4.661
 6289TIP3    H218813   0.847   2.342   4.577
 6290TIP3   OH218814   1.431   2.734   6.236
 6290TIP3    H118815   1.433   2.662   6.298
 6290TIP3    H218816   1.507   2.788   6.258
 6291TIP3   OH218817   1.213   2.430   4.553
 6291TIP3    H118818   1.246   2.360   4.611
 6291TIP3    H218819   1.275   2.432   4.480
 6292TIP3   OH218820   0.442   2.245   6.623
 6292TIP3    H118821   0.475   2.157   6.642
 6292TIP3    H218822   0.355   2.230   6.585
 6293TIP3   OH218823   0.435   1.884   4.843
 6293TIP3    H118824   0.488   1.860   4.919
 6293TIP3    H218825   0.498   1.897   4.772
 6294TIP3   OH218826   1.067   2.359   6.422
 6294TIP3    H118827   1.024   2.380   6.339
 6294TIP3    H218828   1.103   2.271   6.409
 6295TIP3   OH218829   1.010   2.102   4.676
 6295TIP3    H118830   0.990   2.118   4.768
 6295TIP3    H218831   0.990   2.009   4.663
 6296TIP3   OH218832   1.543   2.403   6.037
 6296TIP3    H118833   1.621   2.431   5.988
 6296TIP3    H218834   1.477   2.470   6.017
 6297TIP3   OH218835   0.552   1.989   6.670
 6297TIP3    H118836   0.607   1.912   6.685
 6297TIP3    H218837   0.557   2.038   6.752
 6298TIP3   OH218838   0.613   1.829   5.049
 6298TIP3    H118839   0.600   1.796   5.138
 6298TIP3    H218840   0.663   1.760   5.005
 6299TIP3   OH218841   0.918   1.886   6.292
 6299TIP3    H118842   0.849   1.952   6.306
 6299TIP3    H218843   0.964   1.916   6.214
 6300TIP3   OH218844   0.754   1.646   4.897
 6300TIP3    H118845   0.726   1.646   4.806
 6300TIP3    H218846   0.850   1.646   4.892
 6301TIP3   OH218847   1.421   2.277   6.399
 6301TIP3    H118848   1.492   2.238   6.348
 6301TIP3    H218849   1.414   2.221   6.477
 6302TIP3   OH218850   1.544   1.957   4.573
 6302TIP3    H118851   1.523   1.913   4.491
 6302TIP3    H218852   1.561   2.048   4.548
 6303TIP3   OH218853   1.018   1.656   6.410
 6303TIP3    H118854   1.034   1.588   6.345
 6303TIP3    H218855   0.990   1.732   6.359
 6304TIP3   OH218856   1.045   1.471   6.195
 6304TIP3    H118857   1.072   1.514   6.114
 6304TIP3    H218858   0.957   1.439   6.177
 6305TIP3   OH218859   1.048   1.997   6.083
 6305TIP3    H118860   1.137   2.028   6.066
 6305TIP3    H218861   0.992   2.060   6.039
 6306TIP3   OH218862   1.635   1.957   6.469
 6306TIP3    H118863   1.667   1.867   6.471
 6306TIP3    H218864   1.714   2.010   6.454
 6307TIP3   OH218865   1.673   2.225   6.197
 6307TIP3    H118866   1.619   2.288   6.149
 6307TIP3    H218867   1.762   2.240   6.164
 6308TIP3   OH218868   0.937   1.779   6.647
 6308TIP3    H118869   0.855   1.742   6.679
 6308TIP3    H218870   0.959   1.727   6.570
 6309TIP3   OH218871   1.193   1.251   6.280
 6309TIP3    H118872   1.144   1.330   6.257
 6309TIP3    H218873   1.138   1.179   6.249
 6310TIP3   OH218874   1.274   1.742   6.504
 6310TIP3    H118875   1.272   1.744   6.599
 6310TIP3    H218876   1.197   1.691   6.479
 6311TIP3   OH218877   1.529   1.680   6.395
 6311TIP3    H118878   1.448   1.681   6.447
 6311TIP3    H218879   1.596   1.648   6.456
 6312TIP3   OH218880   1.779   1.644   6.531
 6312TIP3    H118881   1.790   1.549   6.531
 6312TIP3    H218882   1.769   1.667   6.623
 6313TIP3   OH218883   1.265   1.221   6.543
 6313TIP3    H118884   1.328   1.149   6.538
 6313TIP3    H218885   1.231   1.229   6.454
 6314TIP3   OH218886   1.286   1.474   6.644
 6314TIP3    H118887   1.279   1.384   6.614
 6314TIP3    H218888   1.222   1.480   6.716
 6315TIP3   OH218889   0.568   2.684   4.828
 6315TIP3    H118890   0.658   2.662   4.805
 6315TIP3    H218891   0.533   2.729   4.751
 6316TIP3   OH218892   0.044   2.007   5.049
 6316TIP3    H118893   0.129   2.042   5.021
 6316TIP3    H218894   0.015   1.953   4.976
 6317TIP3   OH218895   8.443   2.571   5.427
 6317TIP3    H118896   8.359   2.529   5.447
 6317TIP3    H218897   8.503   2.539   5.494
 6318TIP3   OH218898   0.123   2.462   5.606
 6318TIP3    H118899   0.148   2.399   5.673
 6318TIP3    H218900   0.128   2.548   5.649
 6319TIP3   OH218901   1.821   2.893   5.445
 6319TIP3    H118902   1.846   2.928   5.530
 6319TIP3    H218903   1.879   2.937   5.382
 6320TIP3   OH218904   1.845   2.925   5.730
 6320TIP3    H118905   1.798   2.842   5.720
 6320TIP3    H218906   1.915   2.906   5.791
 6321TIP3   OH218907   1.881   2.623   6.297
 6321TIP3    H118908   1.810   2.630   6.361
 6321TIP3    H218909   1.929   2.705   6.305
 6322TIP3   OH218910   1.708   2.143   4.898
 6322TIP3    H118911   1.770   2.211   4.871
 6322TIP3    H218912   1.743   2.111   4.981
 6323TIP3   OH218913   1.810   2.026   5.122
 6323TIP3    H118914   1.750   1.964   5.164
 6323TIP3    H218915   1.887   2.028   5.178
 6324TIP3   OH218916   1.898   2.385   5.537
 6324TIP3    H118917   1.945   2.314   5.493
 6324TIP3    H218918   1.900   2.457   5.474
 6325TIP3   OH218919   1.702   2.685   5.731
 6325TIP3    H118920   1.636   2.730   5.784
 6325TIP3    H218921   1.653   2.643   5.661
 6326TIP3   OH218922   1.749   1.910   4.757
 6326TIP3    H118923   1.675   1.909   4.695
 6326TIP3    H218924   1.733   1.987   4.811
 6327TIP3   OH218925   1.607   1.573   4.689
 6327TIP3    H118926   1.619   1.610   4.601
 6327TIP3    H218927   1.588   1.480   4.674
 6328TIP3   OH218928   1.631   1.848   5.241
 6328TIP3    H118929   1.644   1.754   5.227
 6328TIP3    H218930   1.618   1.857   5.335
 6329TIP3   OH218931   0.261   1.955   6.012
 6329TIP3    H118932   0.260   1.915   5.925
 6329TIP3    H218933   0.349   1.938   6.046
 6330TIP3   OH218934   1.934   2.266   6.105
 6330TIP3    H118935   2.001   2.198   6.098
 6330TIP3    H218936   1.956   2.329   6.037
 6331TIP3   OH218937   2.121   2.060   6.108
 6331TIP3    H118938   2.046   2.011   6.143
 6331TIP3    H218939   2.198   2.011   6.136
 6332TIP3   OH218940   1.572   1.299   4.658
 6332TIP3    H118941   1.636   1.276   4.726
 6332TIP3    H218942   1.490   1.262   4.689
 6333TIP3   OH218943   1.638   1.574   5.132
 6333TIP3    H118944   1.682   1.490   5.146
 6333TIP3    H218945   1.681   1.612   5.056
 6334TIP3   OH218946   1.802   1.743   5.639
 6334TIP3    H118947   1.881   1.758   5.588
 6334TIP3    H218948   1.818   1.786   5.723
 6335TIP3   OH218949   1.856   1.896   5.870
 6335TIP3    H118950   1.784   1.924   5.926
 6335TIP3    H218951   1.890   1.977   5.832
 6336TIP3   OH218952   2.326   1.489   6.381
 6336TIP3    H118953   2.369   1.409   6.351
 6336TIP3    H218954   2.386   1.560   6.357
 6337TIP3   OH218955   1.748   1.326   5.187
 6337TIP3    H118956   1.797   1.313   5.268
 6337TIP3    H218957   1.689   1.251   5.183
 6338TIP3   OH218958   2.164   1.660   6.177
 6338TIP3    H118959   2.102   1.676   6.248
 6338TIP3    H218960   2.174   1.565   6.175
 6339TIP3   OH218961   1.792   1.245   4.819
 6339TIP3    H118962   1.843   1.185   4.765
 6339TIP3    H218963   1.850   1.322   4.830
 6340TIP3   OH218964   1.390   2.800   5.089
 6340TIP3    H118965   1.439   2.782   5.009
 6340TIP3    H218966   1.448   2.857   5.140
 6341TIP3   OH218967   0.462   2.595   6.432
 6341TIP3    H118968   0.450   2.511   6.389
 6341TIP3    H218969   0.466   2.574   6.525
 6342TIP3   OH218970   0.695   2.636   6.021
 6342TIP3    H118971   0.642   2.709   5.989
 6342TIP3    H218972   0.779   2.646   5.977
 6343TIP3   OH218973   1.098   2.875   6.148
 6343TIP3    H118974   1.135   2.868   6.237
 6343TIP3    H218975   1.161   2.930   6.101
 6344TIP3   OH218976   1.286   3.035   6.017
 6344TIP3    H118977   1.345   2.973   5.975
 6344TIP3    H218978   1.342   3.084   6.078
 6345TIP3   OH218979   2.098   1.366   6.108
 6345TIP3    H118980   2.015   1.369   6.060
 6345TIP3    H218981   2.127   1.275   6.099
 6346TIP3   OH218982   0.401   2.846   6.075
 6346TIP3    H118983   0.312   2.849   6.040
 6346TIP3    H218984   0.404   2.916   6.140
 6347TIP3   OH218985   0.615   2.880   5.908
 6347TIP3    H118986   0.538   2.877   5.965
 6347TIP3    H218987   0.580   2.899   5.821
 6348TIP3   OH218988   0.983   2.902   5.722
 6348TIP3    H118989   0.930   2.897   5.643
 6348TIP3    H218990   0.934   2.959   5.781
 6349TIP3   OH218991   1.252   2.839   5.758
 6349TIP3    H118992   1.161   2.864   5.743
 6349TIP3    H218993   1.303   2.904   5.710
 6350TIP3   OH218994   1.459   3.009   5.661
 6350TIP3    H118995   1.451   3.094   5.619
 6350TIP3    H218996   1.491   2.951   5.592
 6351TIP3   OH218997   0.281   2.647   5.754
 6351TIP3    H118998   0.286   2.632   5.848
 6351TIP3    H218999   0.356   2.600   5.717
 6352TIP3   OH219000   0.488   2.519   5.620
 6352TIP3    H119001   0.492   2.444   5.679
 6352TIP3    H219002   0.569   2.567   5.637
 6353TIP3   OH219003   0.744   2.628   5.665
 6353TIP3    H119004   0.765   2.536   5.652
 6353TIP3    H219005   0.793   2.654   5.743
 6354TIP3   OH219006   1.310   1.298   5.740
 6354TIP3    H119007   1.262   1.231   5.789
 6354TIP3    H219008   1.375   1.249   5.690
 6355TIP3   OH219009   1.803   1.197   5.634
 6355TIP3    H119010   1.841   1.249   5.564
 6355TIP3    H219011   1.711   1.224   5.637
 6356TIP3   OH219012   1.920   1.285   5.400
 6356TIP3    H119013   1.985   1.222   5.370
 6356TIP3    H219014   1.959   1.370   5.382
 6357TIP3   OH219015   0.944   1.102   5.615
 6357TIP3    H119016   1.009   1.116   5.545
 6357TIP3    H219017   0.995   1.067   5.688
 6358TIP3   OH219018   1.512   1.155   5.618
 6358TIP3    H119019   1.540   1.115   5.535
 6358TIP3    H219020   1.512   1.082   5.680
 6359TIP3   OH219021   1.566   1.113   5.190
 6359TIP3    H119022   1.486   1.162   5.213
 6359TIP3    H219023   1.554   1.027   5.231
 6360TIP3   OH219024   0.018   2.411   5.159
 6360TIP3    H119025  -0.018   2.367   5.082
 6360TIP3    H219026   0.040   2.499   5.128
 6361TIP3   OH219027   0.959   1.229   5.256
 6361TIP3    H119028   1.017   1.170   5.304
 6361TIP3    H219029   0.978   1.316   5.291
 6362TIP3   OH219030   0.824   2.612   4.762
 6362TIP3    H119031   0.907   2.642   4.725
 6362TIP3    H219032   0.796   2.541   4.705
 6363TIP3   OH219033   1.528   2.744   4.857
 6363TIP3    H119034   1.522   2.649   4.845
 6363TIP3    H219035   1.489   2.780   4.778
 6364TIP3   OH219036   0.131   2.446   4.839
 6364TIP3    H119037   0.149   2.501   4.915
 6364TIP3    H219038   0.215   2.407   4.817
 6365TIP3   OH219039   1.841   1.375   6.528
 6365TIP3    H119040   1.855   1.337   6.614
 6365TIP3    H219041   1.927   1.371   6.486
 6366TIP3   OH219042   1.752   2.892   6.045
 6366TIP3    H119043   1.676   2.863   5.994
 6366TIP3    H219044   1.737   2.986   6.058
 6367TIP3   OH219045   3.018   2.263   4.800
 6367TIP3    H119046   2.994   2.353   4.777
 6367TIP3    H219047   2.936   2.214   4.795
 6368TIP3   OH219048   3.035   2.304   5.201
 6368TIP3    H119049   3.069   2.275   5.286
 6368TIP3    H219050   3.003   2.223   5.160
 6369TIP3   OH219051   2.324   2.164   5.548
 6369TIP3    H119052   2.355   2.087   5.596
 6369TIP3    H219053   2.371   2.237   5.589
 6370TIP3   OH219054   3.290   2.567   4.887
 6370TIP3    H119055   3.290   2.500   4.955
 6370TIP3    H219056   3.322   2.646   4.931
 6371TIP3   OH219057   2.317   2.567   5.259
 6371TIP3    H119058   2.315   2.472   5.272
 6371TIP3    H219059   2.409   2.586   5.240
 6372TIP3   OH219060   2.069   2.057   5.237
 6372TIP3    H119061   2.115   1.974   5.246
 6372TIP3    H219062   2.091   2.087   5.148
 6373TIP3   OH219063   2.933   3.023   4.897
 6373TIP3    H119064   2.969   2.953   4.842
 6373TIP3    H219065   2.871   2.979   4.955
 6374TIP3   OH219066   2.813   2.498   5.211
 6374TIP3    H119067   2.863   2.421   5.184
 6374TIP3    H219068   2.878   2.567   5.220
 6375TIP3   OH219069   3.862   1.813   5.230
 6375TIP3    H119070   3.879   1.896   5.274
 6375TIP3    H219071   3.895   1.825   5.142
 6376TIP3   OH219072   3.254   2.000   5.271
 6376TIP3    H119073   3.272   1.907   5.284
 6376TIP3    H219074   3.296   2.021   5.187
 6377TIP3   OH219075   2.625   1.612   5.208
 6377TIP3    H119076   2.575   1.693   5.194
 6377TIP3    H219077   2.571   1.543   5.171
 6378TIP3   OH219078   3.250   1.794   4.835
 6378TIP3    H119079   3.299   1.788   4.916
 6378TIP3    H219080   3.316   1.813   4.768
 6379TIP3   OH219081   2.651   2.037   5.098
 6379TIP3    H119082   2.654   2.058   5.191
 6379TIP3    H219083   2.605   1.953   5.094
 6380TIP3   OH219084   3.917   2.028   5.400
 6380TIP3    H119085   3.831   2.070   5.395
 6380TIP3    H219086   3.956   2.063   5.480
 6381TIP3   OH219087   2.510   1.642   5.709
 6381TIP3    H119088   2.479   1.679   5.627
 6381TIP3    H219089   2.458   1.686   5.777
 6382TIP3   OH219090   2.892   2.476   4.685
 6382TIP3    H119091   2.872   2.463   4.592
 6382TIP3    H219092   2.856   2.563   4.705
 6383TIP3   OH219093   2.684   2.423   5.446
 6383TIP3    H119094   2.618   2.485   5.478
 6383TIP3    H219095   2.714   2.461   5.363
 6384TIP3   OH219096   3.414   1.813   5.053
 6384TIP3    H119097   3.389   1.768   5.133
 6384TIP3    H219098   3.497   1.856   5.074
 6385TIP3   OH219099   2.455   1.739   5.464
 6385TIP3    H119100   2.518   1.811   5.465
 6385TIP3    H219101   2.393   1.762   5.394
 6386TIP3   OH219102   2.511   2.617   5.543
 6386TIP3    H119103   2.494   2.705   5.509
 6386TIP3    H219104   2.435   2.596   5.597
 6387TIP3   OH219105   1.888   2.326   4.787
 6387TIP3    H119106   1.854   2.345   4.700
 6387TIP3    H219107   1.911   2.412   4.823
 6388TIP3   OH219108   3.307   2.838   5.021
 6388TIP3    H119109   3.214   2.824   5.007
 6388TIP3    H219110   3.326   2.921   4.978
 6389TIP3   OH219111   3.661   1.700   5.399
 6389TIP3    H119112   3.575   1.726   5.365
 6389TIP3    H219113   3.723   1.729   5.332
 6390TIP3   OH219114   2.933   1.353   5.414
 6390TIP3    H119115   2.923   1.258   5.408
 6390TIP3    H219116   2.848   1.384   5.445
 6391TIP3   OH219117   3.045   2.844   4.722
 6391TIP3    H119118   3.088   2.763   4.696
 6391TIP3    H219119   3.091   2.913   4.674
 6392TIP3   OH219120   3.181   2.627   4.638
 6392TIP3    H119121   3.194   2.556   4.574
 6392TIP3    H219122   3.222   2.594   4.718
 6393TIP3   OH219123   3.549   2.718   5.376
 6393TIP3    H119124   3.542   2.643   5.316
 6393TIP3    H219125   3.537   2.795   5.319
 6394TIP3   OH219126   2.869   2.056   4.647
 6394TIP3    H119127   2.786   2.103   4.650
 6394TIP3    H219128   2.912   2.088   4.567
 6395TIP3   OH219129   2.826   1.918   4.335
 6395TIP3    H119130   2.891   1.978   4.371
 6395TIP3    H219131   2.878   1.854   4.285
 6396TIP3   OH219132   3.748   2.370   5.241
 6396TIP3    H119133   3.666   2.420   5.240
 6396TIP3    H219134   3.787   2.388   5.156
 6397TIP3   OH219135   3.206   2.206   4.609
 6397TIP3    H119136   3.151   2.233   4.683
 6397TIP3    H219137   3.291   2.185   4.648
 6398TIP3   OH219138   3.436   2.227   5.543
 6398TIP3    H119139   3.444   2.308   5.593
 6398TIP3    H219140   3.354   2.236   5.494
 6399TIP3   OH219141   2.433   2.181   5.013
 6399TIP3    H119142   2.392   2.128   4.944
 6399TIP3    H219143   2.514   2.135   5.035
 6400TIP3   OH219144   2.566   2.624   5.145
 6400TIP3    H119145   2.537   2.607   5.056
 6400TIP3    H219146   2.647   2.574   5.154
 6401TIP3   OH219147   2.603   2.174   5.352
 6401TIP3    H119148   2.520   2.208   5.319
 6401TIP3    H219149   2.646   2.249   5.392
 6402TIP3   OH219150   2.727   2.709   5.692
 6402TIP3    H119151   2.673   2.772   5.739
 6402TIP3    H219152   2.665   2.661   5.637
 6403TIP3   OH219153   3.043   2.077   4.431
 6403TIP3    H119154   3.102   2.131   4.484
 6403TIP3    H219155   3.064   2.101   4.340
 6404TIP3   OH219156   2.450   2.277   5.810
 6404TIP3    H119157   2.462   2.364   5.848
 6404TIP3    H219158   2.360   2.254   5.833
 6405TIP3   OH219159   2.791   2.737   4.705
 6405TIP3    H119160   2.877   2.780   4.709
 6405TIP3    H219161   2.738   2.795   4.650
 6406TIP3   OH219162   2.512   2.869   5.782
 6406TIP3    H119163   2.482   2.877   5.692
 6406TIP3    H219164   2.432   2.852   5.832
 6407TIP3   OH219165   3.558   1.298   4.490
 6407TIP3    H119166   3.480   1.317   4.542
 6407TIP3    H219167   3.568   1.374   4.433
 6408TIP3   OH219168   2.308   2.033   4.807
 6408TIP3    H119169   2.233   2.082   4.773
 6408TIP3    H219170   2.271   1.950   4.838
 6409TIP3   OH219171   3.369   2.679   4.044
 6409TIP3    H119172   3.367   2.772   4.022
 6409TIP3    H219173   3.459   2.651   4.024
 6410TIP3   OH219174   2.090   2.428   5.739
 6410TIP3    H119175   2.022   2.411   5.674
 6410TIP3    H219176   2.120   2.341   5.766
 6411TIP3   OH219177   1.947   2.620   5.381
 6411TIP3    H119178   2.042   2.633   5.382
 6411TIP3    H219179   1.911   2.697   5.425
 6412TIP3   OH219180   3.794   3.073   5.445
 6412TIP3    H119181   3.796   2.978   5.461
 6412TIP3    H219182   3.714   3.102   5.488
 6413TIP3   OH219183   2.691   2.961   4.524
 6413TIP3    H119184   2.650   2.943   4.440
 6413TIP3    H219185   2.655   3.045   4.552
 6414TIP3   OH219186   2.107   2.822   4.893
 6414TIP3    H119187   2.151   2.814   4.978
 6414TIP3    H219188   2.059   2.739   4.883
 6415TIP3   OH219189   2.887   2.875   4.142
 6415TIP3    H119190   2.939   2.801   4.111
 6415TIP3    H219191   2.922   2.895   4.229
 6416TIP3   OH219192   2.943   2.940   4.408
 6416TIP3    H119193   2.862   2.939   4.459
 6416TIP3    H219194   3.013   2.945   4.473
 6417TIP3   OH219195   3.684   2.192   5.719
 6417TIP3    H119196   3.602   2.201   5.671
 6417TIP3    H219197   3.705   2.098   5.714
 6418TIP3   OH219198   2.292   2.614   5.710
 6418TIP3    H119199   2.341   2.604   5.792
 6418TIP3    H219200   2.219   2.553   5.718
 6419TIP3   OH219201   2.651   1.454   5.513
 6419TIP3    H119202   2.572   1.403   5.496
 6419TIP3    H219203   2.652   1.522   5.446
 6420TIP3   OH219204   3.220   1.558   5.755
 6420TIP3    H119205   3.306   1.530   5.788
 6420TIP3    H219206   3.163   1.557   5.831
 6421TIP3   OH219207   3.435   1.962   5.633
 6421TIP3    H119208   3.394   1.962   5.720
 6421TIP3    H219209   3.423   2.052   5.601
 6422TIP3   OH219210   3.107   2.155   4.183
 6422TIP3    H119211   3.078   2.120   4.099
 6422TIP3    H219212   3.103   2.250   4.172
 6423TIP3   OH219213   2.836   1.464   4.503
 6423TIP3    H119214   2.799   1.477   4.590
 6423TIP3    H219215   2.790   1.388   4.467
 6424TIP3   OH219216   2.623   1.954   5.518
 6424TIP3    H119217   2.566   1.972   5.592
 6424TIP3    H219218   2.616   2.031   5.462
 6425TIP3   OH219219   2.481   1.818   5.067
 6425TIP3    H119220   2.402   1.820   5.120
 6425TIP3    H219221   2.461   1.758   4.995
 6426TIP3   OH219222   3.158   2.186   5.865
 6426TIP3    H119223   3.132   2.119   5.927
 6426TIP3    H219224   3.251   2.202   5.884
 6427TIP3   OH219225   2.445   1.989   5.729
 6427TIP3    H119226   2.454   2.062   5.790
 6427TIP3    H219227   2.418   1.915   5.784
 6428TIP3   OH219228   2.492   1.458   4.457
 6428TIP3    H119229   2.482   1.450   4.552
 6428TIP3    H219230   2.413   1.502   4.427
 6429TIP3   OH219231   2.052   1.514   5.333
 6429TIP3    H119232   2.109   1.534   5.407
 6429TIP3    H219233   2.080   1.573   5.263
 6430TIP3   OH219234   1.951   1.478   4.839
 6430TIP3    H119235   1.996   1.517   4.763
 6430TIP3    H219236   1.891   1.546   4.868
 6431TIP3   OH219237   3.139   2.184   5.431
 6431TIP3    H119238   3.180   2.120   5.373
 6431TIP3    H219239   3.119   2.134   5.511
 6432TIP3   OH219240   2.862   1.688   5.087
 6432TIP3    H119241   2.780   1.669   5.133
 6432TIP3    H219242   2.930   1.644   5.139
 6433TIP3   OH219243   2.531   1.694   4.793
 6433TIP3    H119244   2.578   1.776   4.807
 6433TIP3    H219245   2.475   1.710   4.717
 6434TIP3   OH219246   3.323   1.720   5.295
 6434TIP3    H119247   3.306   1.729   5.388
 6434TIP3    H219248   3.270   1.645   5.268
 6435TIP3   OH219249   2.385   1.739   4.565
 6435TIP3    H119250   2.318   1.693   4.514
 6435TIP3    H219251   2.440   1.782   4.500
 6436TIP3   OH219252   3.505   3.423   5.528
 6436TIP3    H119253   3.499   3.447   5.436
 6436TIP3    H219254   3.584   3.468   5.559
 6437TIP3   OH219255   2.453   2.531   5.939
 6437TIP3    H119256   2.533   2.549   5.989
 6437TIP3    H219257   2.383   2.536   6.004
 6438TIP3   OH219258   2.473   1.419   5.088
 6438TIP3    H119259   2.419   1.367   5.148
 6438TIP3    H219260   2.438   1.400   5.001
 6439TIP3   OH219261   2.859   1.869   5.635
 6439TIP3    H119262   2.788   1.902   5.580
 6439TIP3    H219263   2.933   1.926   5.616
 6440TIP3   OH219264   2.649   2.225   4.616
 6440TIP3    H119265   2.568   2.185   4.582
 6440TIP3    H219266   2.620   2.279   4.690
 6441TIP3   OH219267   3.516   2.512   5.195
 6441TIP3    H119268   3.554   2.561   5.122
 6441TIP3    H219269   3.439   2.468   5.157
 6442TIP3   OH219270   3.086   1.564   4.492
 6442TIP3    H119271   2.997   1.529   4.492
 6442TIP3    H219272   3.075   1.657   4.471
 6443TIP3   OH219273   2.995   2.740   5.632
 6443TIP3    H119274   3.038   2.661   5.664
 6443TIP3    H219275   2.901   2.724   5.645
 6444TIP3   OH219276   3.105   1.860   4.582
 6444TIP3    H119277   3.198   1.840   4.591
 6444TIP3    H219278   3.100   1.921   4.509
 6445TIP3   OH219279   2.361   2.285   5.264
 6445TIP3    H119280   2.369   2.251   5.175
 6445TIP3    H219281   2.312   2.218   5.311
 6446TIP3   OH219282   2.768   2.408   4.436
 6446TIP3    H119283   2.718   2.489   4.437
 6446TIP3    H219284   2.721   2.351   4.498
 6447TIP3   OH219285   2.190   2.195   5.871
 6447TIP3    H119286   2.193   2.165   5.961
 6447TIP3    H219287   2.115   2.149   5.833
 6448TIP3   OH219288   2.928   2.343   5.895
 6448TIP3    H119289   2.857   2.285   5.867
 6448TIP3    H219290   3.008   2.299   5.867
 6449TIP3   OH219291   3.564   1.930   4.397
 6449TIP3    H119292   3.504   1.887   4.337
 6449TIP3    H219293   3.574   2.018   4.362
 6450TIP3   OH219294   3.801   2.783   5.469
 6450TIP3    H119295   3.706   2.776   5.460
 6450TIP3    H219296   3.835   2.762   5.382
 6451TIP3   OH219297   3.294   2.740   4.304
 6451TIP3    H119298   3.260   2.665   4.352
 6451TIP3    H219299   3.312   2.707   4.216
 6452TIP3   OH219300   3.296   2.366   5.086
 6452TIP3    H119301   3.207   2.359   5.121
 6452TIP3    H219302   3.316   2.278   5.054
 6453TIP3   OH219303   2.429   2.608   4.901
 6453TIP3    H119304   2.430   2.685   4.845
 6453TIP3    H219305   2.337   2.593   4.921
 6454TIP3   OH219306   1.986   1.902   4.619
 6454TIP3    H119307   2.029   1.985   4.641
 6454TIP3    H219308   1.906   1.902   4.671
 6455TIP3   OH219309   2.532   2.362   4.820
 6455TIP3    H119310   2.510   2.453   4.842
 6455TIP3    H219311   2.498   2.311   4.893
 6456TIP3   OH219312   2.704   2.967   5.367
 6456TIP3    H119313   2.737   3.023   5.296
 6456TIP3    H219314   2.755   2.994   5.444
 6457TIP3   OH219315   2.348   2.834   4.755
 6457TIP3    H119316   2.259   2.843   4.790
 6457TIP3    H219317   2.384   2.923   4.757
 6458TIP3   OH219318   3.073   2.431   4.202
 6458TIP3    H119319   3.108   2.441   4.290
 6458TIP3    H219320   2.978   2.426   4.215
 6459TIP3   OH219321   3.322   3.104   5.359
 6459TIP3    H119322   3.232   3.073   5.350
 6459TIP3    H219323   3.331   3.173   5.294
 6460TIP3   OH219324   3.383   2.952   4.009
 6460TIP3    H119325   3.425   3.022   3.958
 6460TIP3    H219326   3.306   2.994   4.049
 6461TIP3   OH219327   2.370   1.781   5.901
 6461TIP3    H119328   2.274   1.773   5.900
 6461TIP3    H219329   2.393   1.778   5.993
 6462TIP3   OH219330   3.233   2.427   4.440
 6462TIP3    H119331   3.217   2.350   4.495
 6462TIP3    H219332   3.325   2.421   4.415
 6463TIP3   OH219333   2.135   2.833   5.518
 6463TIP3    H119334   2.187   2.772   5.571
 6463TIP3    H219335   2.149   2.919   5.559
 6464TIP3   OH219336   2.412   2.449   4.214
 6464TIP3    H119337   2.418   2.358   4.186
 6464TIP3    H219338   2.390   2.444   4.307
 6465TIP3   OH219339   2.344   2.461   4.485
 6465TIP3    H119340   2.407   2.435   4.552
 6465TIP3    H219341   2.345   2.556   4.487
 6466TIP3   OH219342   2.085   2.153   4.696
 6466TIP3    H119343   2.019   2.200   4.747
 6466TIP3    H219344   2.102   2.210   4.620
 6467TIP3   OH219345   3.274   1.748   5.559
 6467TIP3    H119346   3.336   1.812   5.595
 6467TIP3    H219347   3.255   1.690   5.633
 6468TIP3   OH219348   3.093   1.574   4.769
 6468TIP3    H119349   3.103   1.565   4.674
 6468TIP3    H219350   3.156   1.642   4.793
 6469TIP3   OH219351   2.625   2.640   4.430
 6469TIP3    H119352   2.539   2.667   4.463
 6469TIP3    H219353   2.653   2.712   4.374
 6470TIP3   OH219354   2.909   1.772   4.832
 6470TIP3    H119355   2.949   1.688   4.812
 6470TIP3    H219356   2.881   1.764   4.923
 6471TIP3   OH219357   3.101   2.022   5.648
 6471TIP3    H119358   3.113   2.081   5.723
 6471TIP3    H219359   3.152   1.944   5.670
 6472TIP3   OH219360   2.950   1.422   4.946
 6472TIP3    H119361   2.979   1.460   5.029
 6472TIP3    H219362   3.004   1.465   4.879
 6473TIP3   OH219363   2.373   2.731   4.500
 6473TIP3    H119364   2.354   2.800   4.437
 6473TIP3    H219365   2.362   2.772   4.586
 6474TIP3   OH219366   2.468   1.422   4.734
 6474TIP3    H119367   2.469   1.513   4.765
 6474TIP3    H219368   2.558   1.392   4.744
 6475TIP3   OH219369   3.705   1.925   5.623
 6475TIP3    H119370   3.610   1.923   5.631
 6475TIP3    H219371   3.723   1.880   5.540
 6476TIP3   OH219372   3.374   2.089   5.013
 6476TIP3    H119373   3.348   1.999   4.995
 6476TIP3    H219374   3.459   2.082   5.056
 6477TIP3   OH219375   2.094   2.331   4.480
 6477TIP3    H119376   2.158   2.402   4.489
 6477TIP3    H219377   2.134   2.270   4.418
 6478TIP3   OH219378   2.018   1.625   4.613
 6478TIP3    H119379   2.026   1.720   4.622
 6478TIP3    H219380   1.943   1.613   4.555
 6479TIP3   OH219381   3.348   3.095   4.928
 6479TIP3    H119382   3.306   3.142   4.855
 6479TIP3    H219383   3.441   3.112   4.916
 6480TIP3   OH219384   2.409   1.335   5.489
 6480TIP3    H119385   2.378   1.308   5.403
 6480TIP3    H219386   2.399   1.257   5.544
 6481TIP3   OH219387   1.937   2.593   4.874
 6481TIP3    H119388   1.897   2.630   4.953
 6481TIP3    H219389   1.891   2.635   4.802
 6482TIP3   OH219390   2.134   3.133   5.938
 6482TIP3    H119391   2.216   3.138   5.987
 6482TIP3    H219392   2.115   3.039   5.932
 6483TIP3   OH219393   2.598   3.046   5.976
 6483TIP3    H119394   2.687   3.017   5.996
 6483TIP3    H219395   2.568   2.987   5.907
 6484TIP3   OH219396   2.564   2.652   4.106
 6484TIP3    H119397   2.519   2.579   4.148
 6484TIP3    H219398   2.639   2.611   4.061
 6485TIP3   OH219399   3.235   2.937   5.687
 6485TIP3    H119400   3.236   2.891   5.771
 6485TIP3    H219401   3.301   3.005   5.695
 6486TIP3   OH219402   3.025   2.658   4.033
 6486TIP3    H119403   3.070   2.588   4.082
 6486TIP3    H219404   3.079   2.670   3.955
 6487TIP3   OH219405   2.245   2.534   6.126
 6487TIP3    H119406   2.267   2.441   6.135
 6487TIP3    H219407   2.157   2.533   6.088
 6488TIP3   OH219408   2.239   2.146   4.342
 6488TIP3    H119409   2.296   2.127   4.416
 6488TIP3    H219410   2.298   2.160   4.268
 6489TIP3   OH219411   2.863   2.614   5.913
 6489TIP3    H119412   2.815   2.629   5.831
 6489TIP3    H219413   2.896   2.525   5.906
 6490TIP3   OH219414   2.795   2.361   4.167
 6490TIP3    H119415   2.772   2.371   4.259
 6490TIP3    H219416   2.776   2.270   4.148
 6491TIP3   OH219417   3.347   2.639   5.543
 6491TIP3    H119418   3.420   2.663   5.486
 6491TIP3    H219419   3.297   2.720   5.554
 6492TIP3   OH219420   2.367   2.282   6.131
 6492TIP3    H119421   2.436   2.222   6.104
 6492TIP3    H219422   2.391   2.307   6.220
 6493TIP3   OH219423   2.419   2.082   4.547
 6493TIP3    H119424   2.389   2.051   4.632
 6493TIP3    H219425   2.458   2.005   4.506
 6494TIP3   OH219426   2.718   2.178   5.802
 6494TIP3    H119427   2.629   2.215   5.796
 6494TIP3    H219428   2.756   2.195   5.716
 6495TIP3   OH219429   2.548   1.885   4.395
 6495TIP3    H119430   2.518   1.892   4.305
 6495TIP3    H219431   2.644   1.891   4.388
 6496TIP3   OH219432   3.232   2.549   5.905
 6496TIP3    H119433   3.320   2.528   5.877
 6496TIP3    H219434   3.214   2.488   5.976
 6497TIP3   OH219435   2.817   1.944   5.906
 6497TIP3    H119436   2.831   1.896   5.824
 6497TIP3    H219437   2.778   2.027   5.880
 6498TIP3   OH219438   2.802   1.609   5.717
 6498TIP3    H119439   2.898   1.604   5.710
 6498TIP3    H219440   2.782   1.701   5.698
 6499TIP3   OH219441   2.853   2.252   5.576
 6499TIP3    H119442   2.935   2.251   5.527
 6499TIP3    H219443   2.800   2.318   5.532
 6500TIP3   OH219444   3.429   2.208   5.956
 6500TIP3    H119445   3.470   2.123   5.971
 6500TIP3    H219446   3.502   2.265   5.929
 6501TIP3   OH219447   3.487   2.458   5.687
 6501TIP3    H119448   3.428   2.519   5.644
 6501TIP3    H219449   3.574   2.482   5.654
 6502TIP3   OH219450   2.709   2.006   6.182
 6502TIP3    H119451   2.640   1.957   6.228
 6502TIP3    H219452   2.712   1.967   6.095
 6503TIP3   OH219453   3.074   1.972   6.015
 6503TIP3    H119454   3.070   1.959   6.110
 6503TIP3    H219455   2.984   1.956   5.986
 6504TIP3   OH219456   3.312   1.918   5.871
 6504TIP3    H119457   3.236   1.924   5.930
 6504TIP3    H219458   3.385   1.897   5.928
 6505TIP3   OH219459   3.554   1.890   6.018
 6505TIP3    H119460   3.570   1.796   6.024
 6505TIP3    H219461   3.551   1.920   6.108
 6506TIP3   OH219462   3.069   1.504   5.985
 6506TIP3    H119463   3.131   1.432   5.995
 6506TIP3    H219464   2.986   1.468   6.015
 6507TIP3   OH219465   3.123   1.689   6.196
 6507TIP3    H119466   3.100   1.637   6.119
 6507TIP3    H219467   3.047   1.745   6.211
 6508TIP3   OH219468   2.365   2.929   4.310
 6508TIP3    H119469   2.458   2.920   4.288
 6508TIP3    H219470   2.329   2.979   4.238
 6509TIP3   OH219471   1.819   2.306   4.495
 6509TIP3    H119472   1.912   2.324   4.487
 6509TIP3    H219473   1.807   2.222   4.451
 6510TIP3   OH219474   1.726   2.906   4.963
 6510TIP3    H119475   1.669   2.850   4.910
 6510TIP3    H219476   1.779   2.845   5.014
 6511TIP3   OH219477   1.881   2.736   5.121
 6511TIP3    H119478   1.874   2.670   5.190
 6511TIP3    H219479   1.930   2.807   5.162
 6512TIP3   OH219480   3.617   3.155   4.921
 6512TIP3    H119481   3.633   3.213   4.996
 6512TIP3    H219482   3.674   3.189   4.852
 6513TIP3   OH219483   3.613   3.190   5.220
 6513TIP3    H119484   3.584   3.101   5.200
 6513TIP3    H219485   3.692   3.178   5.273
 6514TIP3   OH219486   3.678   2.876   5.789
 6514TIP3    H119487   3.609   2.886   5.855
 6514TIP3    H219488   3.726   2.959   5.792
 6515TIP3   OH219489   3.507   2.385   4.393
 6515TIP3    H119490   3.561   2.458   4.363
 6515TIP3    H219491   3.557   2.348   4.466
 6516TIP3   OH219492   3.645   2.249   4.594
 6516TIP3    H119493   3.579   2.217   4.655
 6516TIP3    H219494   3.711   2.290   4.651
 6517TIP3   OH219495   3.684   2.649   5.024
 6517TIP3    H119496   3.740   2.583   4.985
 6517TIP3    H219497   3.692   2.725   4.967
 6518TIP3   OH219498   3.488   2.933   5.217
 6518TIP3    H119499   3.426   2.986   5.267
 6518TIP3    H219500   3.436   2.896   5.145
 6519TIP3   OH219501   3.545   2.160   4.239
 6519TIP3    H119502   3.461   2.138   4.197
 6519TIP3    H219503   3.526   2.240   4.288
 6520TIP3   OH219504   3.406   1.838   4.201
 6520TIP3    H119505   3.423   1.871   4.113
 6520TIP3    H219506   3.382   1.746   4.188
 6521TIP3   OH219507   3.437   2.116   4.737
 6521TIP3    H119508   3.447   2.023   4.718
 6521TIP3    H219509   3.421   2.120   4.831
 6522TIP3   OH219510   2.057   2.156   5.491
 6522TIP3    H119511   2.050   2.122   5.402
 6522TIP3    H219512   2.151   2.163   5.507
 6523TIP3   OH219513   3.736   2.533   5.596
 6523TIP3    H119514   3.798   2.463   5.577
 6523TIP3    H219515   3.763   2.606   5.541
 6524TIP3   OH219516   3.893   2.309   5.583
 6524TIP3    H119517   3.821   2.270   5.633
 6524TIP3    H219518   3.968   2.254   5.602
 6525TIP3   OH219519   3.356   1.572   4.169
 6525TIP3    H119520   3.427   1.535   4.222
 6525TIP3    H219521   3.281   1.516   4.188
 6526TIP3   OH219522   3.425   1.838   4.627
 6526TIP3    H119523   3.466   1.753   4.642
 6526TIP3    H219524   3.469   1.874   4.550
 6527TIP3   OH219525   3.601   2.002   5.141
 6527TIP3    H119526   3.683   2.020   5.095
 6527TIP3    H219527   3.614   2.038   5.229
 6528TIP3   OH219528   3.660   2.144   5.373
 6528TIP3    H119529   3.588   2.173   5.428
 6528TIP3    H219530   3.693   2.225   5.332
 6529TIP3   OH219531   2.320   1.885   6.194
 6529TIP3    H119532   2.394   1.853   6.246
 6529TIP3    H219533   2.261   1.810   6.189
 6530TIP3   OH219534   4.125   1.739   5.910
 6530TIP3    H119535   4.191   1.686   5.866
 6530TIP3    H219536   4.085   1.791   5.840
 6531TIP3   OH219537   3.532   1.586   4.678
 6531TIP3    H119538   3.582   1.567   4.757
 6531TIP3    H219539   3.472   1.512   4.669
 6532TIP3   OH219540   2.241   1.554   5.532
 6532TIP3    H119541   2.300   1.479   5.521
 6532TIP3    H219542   2.291   1.629   5.498
 6533TIP3   OH219543   2.038   1.820   5.513
 6533TIP3    H119544   2.086   1.792   5.435
 6533TIP3    H219545   2.073   1.908   5.532
 6534TIP3   OH219546   3.969   1.862   5.724
 6534TIP3    H119547   3.892   1.904   5.762
 6534TIP3    H219548   3.934   1.793   5.667
 6535TIP3   OH219549   3.592   1.501   4.307
 6535TIP3    H119550   3.635   1.439   4.247
 6535TIP3    H219551   3.649   1.578   4.308
 6536TIP3   OH219552   2.007   1.305   5.043
 6536TIP3    H119553   1.930   1.313   5.099
 6536TIP3    H219554   2.000   1.378   4.981
 6537TIP3   OH219555   3.159   3.037   4.569
 6537TIP3    H119556   3.223   3.032   4.497
 6537TIP3    H219557   3.189   3.110   4.622
 6538TIP3   OH219558   2.280   1.390   5.877
 6538TIP3    H119559   2.241   1.395   5.964
 6538TIP3    H219560   2.217   1.436   5.821
 6539TIP3   OH219561   2.285   2.845   5.949
 6539TIP3    H119562   2.191   2.829   5.940
 6539TIP3    H219563   2.302   2.838   6.043
 6540TIP3   OH219564   2.477   2.890   5.502
 6540TIP3    H119565   2.421   2.962   5.472
 6540TIP3    H219566   2.561   2.904   5.457
 6541TIP3   OH219567   2.955   3.080   5.618
 6541TIP3    H119568   2.955   3.103   5.710
 6541TIP3    H219569   2.983   3.159   5.573
 6542TIP3   OH219570   3.077   3.299   5.512
 6542TIP3    H119571   3.133   3.286   5.436
 6542TIP3    H219572   3.129   3.352   5.572
 6543TIP3   OH219573   3.878   1.620   5.605
 6543TIP3    H119574   3.792   1.616   5.562
 6543TIP3    H219575   3.912   1.531   5.598
 6544TIP3   OH219576   2.142   3.135   5.554
 6544TIP3    H119577   2.051   3.154   5.532
 6544TIP3    H219578   2.166   3.202   5.618
 6545TIP3   OH219579   2.371   3.124   5.399
 6545TIP3    H119580   2.288   3.131   5.447
 6545TIP3    H219581   2.351   3.157   5.311
 6546TIP3   OH219582   2.800   3.144   5.182
 6546TIP3    H119583   2.729   3.160   5.120
 6546TIP3    H219584   2.820   3.229   5.220
 6547TIP3   OH219585   3.066   3.085   5.258
 6547TIP3    H119586   2.976   3.090   5.227
 6547TIP3    H219587   3.115   3.143   5.200
 6548TIP3   OH219588   3.260   3.252   5.136
 6548TIP3    H119589   3.262   3.342   5.101
 6548TIP3    H219590   3.287   3.197   5.063
 6549TIP3   OH219591   2.048   2.920   5.268
 6549TIP3    H119592   2.076   2.898   5.357
 6549TIP3    H219593   2.119   2.890   5.212
 6550TIP3   OH219594   2.250   2.802   5.130
 6550TIP3    H119595   2.265   2.720   5.176
 6550TIP3    H219596   2.336   2.846   5.132
 6551TIP3   OH219597   2.516   2.897   5.157
 6551TIP3    H119598   2.540   2.805   5.146
 6551TIP3    H219599   2.566   2.926   5.233
 6552TIP3   OH219600   3.051   1.504   5.194
 6552TIP3    H119601   3.021   1.450   5.267
 6552TIP3    H219602   3.139   1.472   5.174
 6553TIP3   OH219603   3.597   1.451   5.132
 6553TIP3    H119604   3.630   1.499   5.056
 6553TIP3    H219605   3.502   1.467   5.130
 6554TIP3   OH219606   3.702   1.531   4.891
 6554TIP3    H119607   3.770   1.470   4.864
 6554TIP3    H219608   3.741   1.618   4.878
 6555TIP3   OH219609   2.331   1.240   5.244
 6555TIP3    H119610   2.238   1.213   5.244
 6555TIP3    H219611   2.379   1.157   5.240
 6556TIP3   OH219612   2.129   1.126   4.872
 6556TIP3    H119613   2.157   1.182   4.800
 6556TIP3    H219614   2.090   1.187   4.935
 6557TIP3   OH219615   2.787   1.270   5.120
 6557TIP3    H119616   2.838   1.314   5.053
 6557TIP3    H219617   2.733   1.339   5.158
 6558TIP3   OH219618   3.309   1.420   5.115
 6558TIP3    H119619   3.323   1.382   5.028
 6558TIP3    H219620   3.314   1.346   5.175
 6559TIP3   OH219621   3.353   1.369   4.661
 6559TIP3    H119622   3.263   1.387   4.634
 6559TIP3    H219623   3.348   1.289   4.712
 6560TIP3   OH219624   1.808   2.709   4.664
 6560TIP3    H119625   1.725   2.677   4.627
 6560TIP3    H219626   1.820   2.795   4.623
 6561TIP3   OH219627   2.246   1.271   4.649
 6561TIP3    H119628   2.291   1.207   4.593
 6561TIP3    H219629   2.316   1.324   4.687
 6562TIP3   OH219630   2.743   1.492   4.762
 6562TIP3    H119631   2.799   1.462   4.835
 6562TIP3    H219632   2.693   1.564   4.799
 6563TIP3   OH219633   2.632   2.869   4.256
 6563TIP3    H119634   2.715   2.895   4.216
 6563TIP3    H219635   2.597   2.801   4.198
 6564TIP3   OH219636   3.325   3.009   4.348
 6564TIP3    H119637   3.320   2.914   4.335
 6564TIP3    H219638   3.286   3.046   4.268
 6565TIP3   OH219639   1.910   2.698   4.282
 6565TIP3    H119640   1.910   2.734   4.371
 6565TIP3    H219641   1.997   2.659   4.272
 6566TIP3   OH219642   3.628   1.621   6.031
 6566TIP3    H119643   3.643   1.592   6.121
 6566TIP3    H219644   3.714   1.614   5.989
 6567TIP3   OH219645   3.541   3.149   5.535
 6567TIP3    H119646   3.470   3.123   5.477
 6567TIP3    H219647   3.534   3.244   5.541
 6568TIP3   OH219648   4.819   2.534   4.278
 6568TIP3    H119649   4.791   2.623   4.253
 6568TIP3    H219650   4.747   2.478   4.250
 6569TIP3   OH219651   4.818   2.526   4.696
 6569TIP3    H119652   4.869   2.512   4.776
 6569TIP3    H219653   4.774   2.442   4.681
 6570TIP3   OH219654   4.117   2.394   5.050
 6570TIP3    H119655   4.156   2.343   5.121
 6570TIP3    H219656   4.192   2.424   4.999
 6571TIP3   OH219657   5.085   2.834   4.373
 6571TIP3    H119658   5.074   2.771   4.444
 6571TIP3    H219659   5.107   2.916   4.417
 6572TIP3   OH219660   4.102   2.813   4.737
 6572TIP3    H119661   4.087   2.718   4.743
 6572TIP3    H219662   4.197   2.821   4.727
 6573TIP3   OH219663   3.797   2.020   4.527
 6573TIP3    H119664   3.761   2.106   4.547
 6573TIP3    H219665   3.724   1.970   4.492
 6574TIP3   OH219666   3.873   2.336   4.736
 6574TIP3    H119667   3.924   2.259   4.761
 6574TIP3    H219668   3.939   2.402   4.716
 6575TIP3   OH219669   4.735   3.269   4.377
 6575TIP3    H119670   4.769   3.199   4.320
 6575TIP3    H219671   4.725   3.227   4.462
 6576TIP3   OH219672   4.625   2.748   4.708
 6576TIP3    H119673   4.670   2.669   4.677
 6576TIP3    H219674   4.695   2.805   4.739
 6577TIP3   OH219675   5.658   2.071   4.721
 6577TIP3    H119676   5.675   2.155   4.764
 6577TIP3    H219677   5.681   2.086   4.630
 6578TIP3   OH219678   5.032   2.238   4.740
 6578TIP3    H119679   5.068   2.153   4.767
 6578TIP3    H219680   4.995   2.222   4.653
 6579TIP3   OH219681   4.386   1.898   4.702
 6579TIP3    H119682   4.368   1.972   4.643
 6579TIP3    H219683   4.331   1.827   4.669
 6580TIP3   OH219684   5.084   2.000   4.335
 6580TIP3    H119685   5.148   1.993   4.406
 6580TIP3    H219686   5.133   2.035   4.261
 6581TIP3   OH219687   4.013   2.114   4.826
 6581TIP3    H119688   4.096   2.097   4.870
 6581TIP3    H219689   4.018   2.063   4.745
 6582TIP3   OH219690   4.434   2.312   4.643
 6582TIP3    H119691   4.528   2.297   4.651
 6582TIP3    H219692   4.399   2.230   4.607
 6583TIP3   OH219693   5.713   2.288   4.890
 6583TIP3    H119694   5.628   2.332   4.879
 6583TIP3    H219695   5.751   2.329   4.969
 6584TIP3   OH219696   4.370   1.901   5.151
 6584TIP3    H119697   4.321   1.938   5.077
 6584TIP3    H219698   4.314   1.917   5.227
 6585TIP3   OH219699   4.720   2.754   4.138
 6585TIP3    H119700   4.681   2.728   4.055
 6585TIP3    H219701   4.668   2.829   4.166
 6586TIP3   OH219702   4.464   2.675   4.922
 6586TIP3    H119703   4.410   2.747   4.955
 6586TIP3    H219704   4.513   2.713   4.849
 6587TIP3   OH219705   5.248   2.018   4.554
 6587TIP3    H119706   5.205   1.997   4.637
 6587TIP3    H219707   5.303   2.094   4.573
 6588TIP3   OH219708   4.256   2.008   4.922
 6588TIP3    H119709   4.310   2.083   4.945
 6588TIP3    H219710   4.303   1.965   4.850
 6589TIP3   OH219711   4.306   2.878   5.025
 6589TIP3    H119712   4.293   2.967   4.993
 6589TIP3    H219713   4.229   2.860   5.078
 6590TIP3   OH219714   3.680   2.578   4.284
 6590TIP3    H119715   3.646   2.605   4.199
 6590TIP3    H219716   3.705   2.660   4.327
 6591TIP3   OH219717   5.127   3.080   4.510
 6591TIP3    H119718   5.041   3.073   4.552
 6591TIP3    H219719   5.124   3.164   4.464
 6592TIP3   OH219720   5.458   1.952   4.885
 6592TIP3    H119721   5.372   1.981   4.854
 6592TIP3    H219722   5.519   1.984   4.819
 6593TIP3   OH219723   4.711   1.594   4.881
 6593TIP3    H119724   4.702   1.502   4.906
 6593TIP3    H219725   4.635   1.637   4.920
 6594TIP3   OH219726   4.835   3.107   4.173
 6594TIP3    H119727   4.887   3.028   4.158
 6594TIP3    H219728   4.890   3.179   4.143
 6595TIP3   OH219729   4.973   2.876   4.123
 6595TIP3    H119730   4.897   2.818   4.125
 6595TIP3    H219731   5.021   2.855   4.203
 6596TIP3   OH219732   5.357   2.973   4.860
 6596TIP3    H119733   5.342   2.899   4.801
 6596TIP3    H219734   5.340   3.050   4.806
 6597TIP3   OH219735   4.645   2.375   4.127
 6597TIP3    H119736   4.564   2.422   4.108
 6597TIP3    H219737   4.694   2.377   4.044
 6598TIP3   OH219738   4.614   2.180   3.823
 6598TIP3    H119739   4.679   2.230   3.872
 6598TIP3    H219740   4.664   2.114   3.776
 6599TIP3   OH219741   5.542   2.630   4.723
 6599TIP3    H119742   5.458   2.677   4.724
 6599TIP3    H219743   5.577   2.647   4.636
 6600TIP3   OH219744   5.005   2.460   4.091
 6600TIP3    H119745   4.950   2.491   4.164
 6600TIP3    H219746   5.089   2.439   4.131
 6601TIP3   OH219747   5.235   2.494   5.029
 6601TIP3    H119748   5.233   2.578   5.076
 6601TIP3    H219749   5.152   2.492   4.981
 6602TIP3   OH219750   4.231   2.445   4.497
 6602TIP3    H119751   4.198   2.386   4.430
 6602TIP3    H219752   4.306   2.399   4.535
 6603TIP3   OH219753   4.365   2.857   4.640
 6603TIP3    H119754   4.345   2.850   4.547
 6603TIP3    H219755   4.454   2.823   4.649
 6604TIP3   OH219756   4.331   2.442   4.868
 6604TIP3    H119757   4.370   2.407   4.788
 6604TIP3    H219758   4.379   2.523   4.885
 6605TIP3   OH219759   4.894   3.070   4.648
 6605TIP3    H119760   4.875   3.153   4.692
 6605TIP3    H219761   4.872   3.003   4.713
 6606TIP3   OH219762   4.505   2.975   5.192
 6606TIP3    H119763   4.446   3.035   5.238
 6606TIP3    H219764   4.449   2.925   5.134
 6607TIP3   OH219765   4.836   2.324   3.920
 6607TIP3    H119766   4.896   2.382   3.968
 6607TIP3    H219767   4.865   2.331   3.829
 6608TIP3   OH219768   4.271   2.533   5.322
 6608TIP3    H119769   4.274   2.625   5.347
 6608TIP3    H219770   4.177   2.513   5.314
 6609TIP3   OH219771   4.584   2.993   4.181
 6609TIP3    H119772   4.667   3.041   4.185
 6609TIP3    H219773   4.522   3.055   4.142
 6610TIP3   OH219774   4.298   3.137   5.276
 6610TIP3    H119775   4.274   3.150   5.184
 6610TIP3    H219776   4.215   3.123   5.320
 6611TIP3   OH219777   5.347   1.553   3.978
 6611TIP3    H119778   5.270   1.574   4.031
 6611TIP3    H219779   5.359   1.629   3.922
 6612TIP3   OH219780   4.105   2.290   4.292
 6612TIP3    H119781   4.028   2.337   4.260
 6612TIP3    H219782   4.073   2.202   4.312
 6613TIP3   OH219783   5.167   2.927   3.529
 6613TIP3    H119784   5.163   3.021   3.513
 6613TIP3    H219785   5.257   2.902   3.508
 6614TIP3   OH219786   3.883   2.691   5.227
 6614TIP3    H119787   3.818   2.670   5.160
 6614TIP3    H219788   3.922   2.606   5.251
 6615TIP3   OH219789   3.743   2.882   4.875
 6615TIP3    H119790   3.838   2.895   4.871
 6615TIP3    H219791   3.710   2.962   4.914
 6616TIP3   OH219792   5.592   3.338   4.927
 6616TIP3    H119793   5.595   3.243   4.940
 6616TIP3    H219794   5.511   3.365   4.970
 6617TIP3   OH219795   4.694   3.118   5.051
 6617TIP3    H119796   4.687   3.210   5.079
 6617TIP3    H219797   4.625   3.073   5.101
 6618TIP3   OH219798   4.471   3.234   4.003
 6618TIP3    H119799   4.426   3.217   3.920
 6618TIP3    H219800   4.436   3.319   4.032
 6619TIP3   OH219801   3.907   3.071   4.383
 6619TIP3    H119802   3.952   3.066   4.468
 6619TIP3    H219803   3.859   2.989   4.376
 6620TIP3   OH219804   4.674   3.149   3.636
 6620TIP3    H119805   4.727   3.077   3.602
 6620TIP3    H219806   4.708   3.164   3.724
 6621TIP3   OH219807   4.725   3.199   3.904
 6621TIP3    H119808   4.640   3.206   3.947
 6621TIP3    H219809   4.785   3.171   3.973
 6622TIP3   OH219810   5.479   2.453   5.199
 6622TIP3    H119811   5.397   2.466   5.152
 6622TIP3    H219812   5.497   2.360   5.192
 6623TIP3   OH219813   4.092   2.871   5.196
 6623TIP3    H119814   4.140   2.861   5.278
 6623TIP3    H219815   4.016   2.813   5.205
 6624TIP3   OH219816   4.473   1.685   5.006
 6624TIP3    H119817   4.388   1.655   4.974
 6624TIP3    H219818   4.453   1.767   5.052
 6625TIP3   OH219819   5.021   1.803   5.205
 6625TIP3    H119820   5.089   1.782   5.269
 6625TIP3    H219821   4.938   1.790   5.252
 6626TIP3   OH219822   5.239   2.227   5.109
 6626TIP3    H119823   5.200   2.223   5.197
 6626TIP3    H219824   5.224   2.317   5.081
 6627TIP3   OH219825   4.915   2.303   3.656
 6627TIP3    H119826   4.872   2.308   3.571
 6627TIP3    H219827   4.996   2.353   3.645
 6628TIP3   OH219828   4.623   1.727   3.975
 6628TIP3    H119829   4.588   1.733   4.063
 6628TIP3    H219830   4.587   1.645   3.940
 6629TIP3   OH219831   4.409   2.219   5.012
 6629TIP3    H119832   4.367   2.228   5.097
 6629TIP3    H219833   4.388   2.300   4.966
 6630TIP3   OH219834   4.296   2.096   4.534
 6630TIP3    H119835   4.207   2.072   4.560
 6630TIP3    H219836   4.305   2.063   4.445
 6631TIP3   OH219837   4.772   2.171   4.262
 6631TIP3    H119838   4.725   2.244   4.222
 6631TIP3    H219839   4.831   2.140   4.193
 6632TIP3   OH219840   4.965   2.445   5.330
 6632TIP3    H119841   4.938   2.377   5.392
 6632TIP3    H219842   5.056   2.462   5.351
 6633TIP3   OH219843   4.937   2.185   4.489
 6633TIP3    H119844   4.870   2.210   4.425
 6633TIP3    H219845   4.984   2.113   4.448
 6634TIP3   OH219846   4.250   2.231   5.238
 6634TIP3    H119847   4.287   2.288   5.306
 6634TIP3    H219848   4.232   2.149   5.283
 6635TIP3   OH219849   4.288   1.708   3.949
 6635TIP3    H119850   4.280   1.712   4.044
 6635TIP3    H219851   4.211   1.752   3.915
 6636TIP3   OH219852   3.835   1.754   4.820
 6636TIP3    H119853   3.904   1.791   4.874
 6636TIP3    H219854   3.875   1.741   4.734
 6637TIP3   OH219855   3.748   1.733   4.318
 6637TIP3    H119856   3.790   1.770   4.240
 6637TIP3    H219857   3.688   1.801   4.347
 6638TIP3   OH219858   4.980   2.440   4.914
 6638TIP3    H119859   5.005   2.373   4.850
 6638TIP3    H219860   4.936   2.392   4.983
 6639TIP3   OH219861   4.653   1.887   4.587
 6639TIP3    H119862   4.576   1.889   4.643
 6639TIP3    H219863   4.727   1.881   4.647
 6640TIP3   OH219864   4.059   1.971   4.597
 6640TIP3    H119865   3.970   1.974   4.561
 6640TIP3    H219866   4.088   1.881   4.580
 6641TIP3   OH219867   4.306   1.971   4.289
 6641TIP3    H119868   4.401   1.984   4.278
 6641TIP3    H219869   4.269   1.990   4.203
 6642TIP3   OH219870   5.107   1.975   4.792
 6642TIP3    H119871   5.088   1.992   4.884
 6642TIP3    H219872   5.037   1.916   4.764
 6643TIP3   OH219873   4.189   1.995   4.042
 6643TIP3    H119874   4.126   1.947   3.989
 6643TIP3    H219875   4.243   2.043   3.979
 6644TIP3   OH219876   5.302   3.680   5.018
 6644TIP3    H119877   5.295   3.702   4.925
 6644TIP3    H219878   5.379   3.727   5.048
 6645TIP3   OH219879   4.245   2.790   5.431
 6645TIP3    H119880   4.326   2.813   5.478
 6645TIP3    H219881   4.177   2.800   5.497
 6646TIP3   OH219882   4.705   2.254   4.696
 6646TIP3    H119883   4.774   2.208   4.648
 6646TIP3    H219884   4.705   2.213   4.783
 6647TIP3   OH219885   4.198   1.723   4.582
 6647TIP3    H119886   4.169   1.647   4.633
 6647TIP3    H219887   4.225   1.686   4.497
 6648TIP3   OH219888   4.677   2.158   4.965
 6648TIP3    H119889   4.590   2.191   4.985
 6648TIP3    H219890   4.737   2.212   5.016
 6649TIP3   OH219891   4.410   2.516   4.072
 6649TIP3    H119892   4.335   2.461   4.048
 6649TIP3    H219893   4.386   2.556   4.155
 6650TIP3   OH219894   5.307   2.768   4.681
 6650TIP3    H119895   5.341   2.819   4.608
 6650TIP3    H219896   5.226   2.730   4.647
 6651TIP3   OH219897   4.877   1.830   3.975
 6651TIP3    H119898   4.783   1.810   3.972
 6651TIP3    H219899   4.881   1.925   3.987
 6652TIP3   OH219900   4.814   2.850   5.094
 6652TIP3    H119901   4.868   2.847   5.173
 6652TIP3    H219902   4.776   2.937   5.094
 6653TIP3   OH219903   4.937   2.094   4.046
 6653TIP3    H119904   5.032   2.099   4.057
 6653TIP3    H219905   4.915   2.172   3.996
 6654TIP3   OH219906   4.094   2.518   4.726
 6654TIP3    H119907   4.134   2.505   4.639
 6654TIP3    H219908   4.163   2.493   4.787
 6655TIP3   OH219909   4.564   2.678   3.914
 6655TIP3    H119910   4.517   2.761   3.912
 6655TIP3    H219911   4.508   2.621   3.968
 6656TIP3   OH219912   3.998   2.474   5.367
 6656TIP3    H119913   4.026   2.466   5.458
 6656TIP3    H219914   3.929   2.409   5.357
 6657TIP3   OH219915   4.729   2.594   5.378
 6657TIP3    H119916   4.662   2.537   5.340
 6657TIP3    H219917   4.812   2.557   5.347
 6658TIP3   OH219918   4.966   3.128   4.980
 6658TIP3    H119919   4.870   3.122   4.984
 6658TIP3    H219920   4.990   3.172   5.062
 6659TIP3   OH219921   5.355   2.182   3.868
 6659TIP3    H119922   5.300   2.136   3.805
 6659TIP3    H219923   5.360   2.272   3.834
 6660TIP3   OH219924   5.603   3.052   4.951
 6660TIP3    H119925   5.508   3.042   4.944
 6660TIP3    H219926   5.637   3.024   4.866
 6661TIP3   OH219927   5.092   3.000   3.797
 6661TIP3    H119928   5.063   2.933   3.859
 6661TIP3    H219929   5.106   2.952   3.716
 6662TIP3   OH219930   5.074   2.636   4.580
 6662TIP3    H119931   4.984   2.615   4.604
 6662TIP3    H219932   5.108   2.554   4.542
 6663TIP3   OH219933   4.229   2.871   4.390
 6663TIP3    H119934   4.230   2.947   4.333
 6663TIP3    H219935   4.139   2.867   4.423
 6664TIP3   OH219936   3.771   2.165   4.077
 6664TIP3    H119937   3.818   2.243   4.107
 6664TIP3    H219938   3.694   2.161   4.133
 6665TIP3   OH219939   4.315   2.625   4.300
 6665TIP3    H119940   4.298   2.715   4.326
 6665TIP3    H219941   4.288   2.572   4.375
 6666TIP3   OH219942   4.508   3.194   4.842
 6666TIP3    H119943   4.541   3.269   4.793
 6666TIP3    H219944   4.584   3.164   4.892
 6667TIP3   OH219945   4.144   3.094   4.240
 6667TIP3    H119946   4.057   3.101   4.278
 6667TIP3    H219947   4.178   3.184   4.242
 6668TIP3   OH219948   4.859   2.850   4.821
 6668TIP3    H119949   4.845   2.846   4.916
 6668TIP3    H219950   4.945   2.810   4.809
 6669TIP3   OH219951   4.853   2.734   3.688
 6669TIP3    H119952   4.905   2.704   3.762
 6669TIP3    H219953   4.766   2.696   3.702
 6670TIP3   OH219954   5.116   3.352   4.857
 6670TIP3    H119955   5.041   3.294   4.869
 6670TIP3    H219956   5.090   3.409   4.785
 6671TIP3   OH219957   5.171   3.202   3.498
 6671TIP3    H119958   5.205   3.270   3.439
 6671TIP3    H219959   5.097   3.243   3.541
 6672TIP3   OH219960   4.194   1.977   5.354
 6672TIP3    H119961   4.099   1.986   5.359
 6672TIP3    H219962   4.219   1.929   5.433
 6673TIP3   OH219963   5.028   2.637   3.875
 6673TIP3    H119964   5.014   2.589   3.957
 6673TIP3    H219965   5.123   2.650   3.871
 6674TIP3   OH219966   3.932   3.099   5.002
 6674TIP3    H119967   3.988   3.043   5.056
 6674TIP3    H219968   3.947   3.187   5.034
 6675TIP3   OH219969   4.213   2.698   3.696
 6675TIP3    H119970   4.222   2.606   3.673
 6675TIP3    H219971   4.194   2.698   3.790
 6676TIP3   OH219972   4.153   2.715   3.969
 6676TIP3    H119973   4.223   2.690   4.029
 6676TIP3    H219974   4.149   2.810   3.975
 6677TIP3   OH219975   3.875   2.406   4.178
 6677TIP3    H119976   3.814   2.455   4.234
 6677TIP3    H219977   3.900   2.468   4.110
 6678TIP3   OH219978   5.048   2.033   5.053
 6678TIP3    H119979   5.124   2.081   5.085
 6678TIP3    H219980   5.041   1.957   5.112
 6679TIP3   OH219981   4.936   1.782   4.244
 6679TIP3    H119982   4.915   1.801   4.152
 6679TIP3    H219983   4.979   1.861   4.276
 6680TIP3   OH219984   4.417   2.905   3.911
 6680TIP3    H119985   4.332   2.929   3.949
 6680TIP3    H219986   4.442   2.981   3.859
 6681TIP3   OH219987   4.586   1.980   4.333
 6681TIP3    H119988   4.648   2.048   4.306
 6681TIP3    H219989   4.608   1.961   4.424
 6682TIP3   OH219990   4.883   2.276   5.113
 6682TIP3    H119991   4.908   2.324   5.192
 6682TIP3    H219992   4.934   2.195   5.117
 6683TIP3   OH219993   4.749   1.679   4.422
 6683TIP3    H119994   4.726   1.755   4.474
 6683TIP3    H219995   4.818   1.709   4.363
 6684TIP3   OH219996   4.164   2.985   3.988
 6684TIP3    H119997   4.144   3.054   3.925
 6684TIP3    H219998   4.155   3.028   4.074
 6685TIP3   OH219999   4.261   1.699   4.228
 6685TIP3    H120000   4.251   1.790   4.256
 6685TIP3    H220001   4.355   1.683   4.234
 6686TIP3   OH220002   5.507   2.186   5.108
 6686TIP3    H120003   5.411   2.185   5.111
 6686TIP3    H220004   5.528   2.155   5.020
 6687TIP3   OH220005   5.165   2.376   4.490
 6687TIP3    H120006   5.087   2.322   4.504
 6687TIP3    H220007   5.232   2.336   4.546
 6688TIP3   OH220008   3.904   2.590   3.968
 6688TIP3    H120009   3.973   2.655   3.979
 6688TIP3    H220010   3.937   2.529   3.902
 6689TIP3   OH220011   3.805   1.885   4.096
 6689TIP3    H120012   3.817   1.980   4.100
 6689TIP3    H220013   3.759   1.871   4.013
 6690TIP3   OH220014   5.142   3.345   4.424
 6690TIP3    H120015   5.101   3.396   4.354
 6690TIP3    H220016   5.236   3.361   4.412
 6691TIP3   OH220017   4.209   1.602   4.967
 6691TIP3    H120018   4.180   1.569   4.882
 6691TIP3    H220019   4.200   1.526   5.025
 6692TIP3   OH220020   3.734   2.842   4.370
 6692TIP3    H120021   3.696   2.884   4.448
 6692TIP3    H220022   3.692   2.886   4.296
 6693TIP3   OH220023   3.932   3.389   5.422
 6693TIP3    H120024   4.013   3.398   5.472
 6693TIP3    H220025   3.922   3.295   5.408
 6694TIP3   OH220026   4.394   3.304   5.476
 6694TIP3    H120027   4.489   3.293   5.480
 6694TIP3    H220028   4.367   3.249   5.402
 6695TIP3   OH220029   4.363   2.902   3.587
 6695TIP3    H120030   4.318   2.831   3.632
 6695TIP3    H220031   4.439   2.861   3.546
 6696TIP3   OH220032   5.022   3.242   5.224
 6696TIP3    H120033   5.035   3.173   5.289
 6696TIP3    H220034   5.095   3.302   5.236
 6697TIP3   OH220035   4.805   2.940   3.513
 6697TIP3    H120036   4.839   2.876   3.575
 6697TIP3    H220037   4.866   2.936   3.439
 6698TIP3   OH220038   4.038   2.781   5.619
 6698TIP3    H120039   4.059   2.688   5.626
 6698TIP3    H220040   3.951   2.784   5.578
 6699TIP3   OH220041   4.027   2.398   3.817
 6699TIP3    H120042   4.079   2.376   3.894
 6699TIP3    H220043   4.092   2.411   3.748
 6700TIP3   OH220044   4.658   2.870   5.397
 6700TIP3    H120045   4.615   2.893   5.315
 6700TIP3    H220046   4.695   2.783   5.382
 6701TIP3   OH220047   4.588   2.619   3.647
 6701TIP3    H120048   4.567   2.633   3.739
 6701TIP3    H220049   4.571   2.526   3.632
 6702TIP3   OH220050   5.131   2.904   5.005
 6702TIP3    H120051   5.209   2.935   4.960
 6702TIP3    H220052   5.068   2.975   4.995
 6703TIP3   OH220053   4.160   2.521   5.615
 6703TIP3    H120054   4.241   2.505   5.567
 6703TIP3    H220055   4.189   2.544   5.703
 6704TIP3   OH220056   4.202   2.337   4.026
 6704TIP3    H120057   4.183   2.307   4.115
 6704TIP3    H220058   4.250   2.264   3.986
 6705TIP3   OH220059   4.512   2.402   5.277
 6705TIP3    H120060   4.433   2.454   5.289
 6705TIP3    H220061   4.550   2.435   5.196
 6706TIP3   OH220062   4.341   2.149   3.873
 6706TIP3    H120063   4.312   2.154   3.782
 6706TIP3    H220064   4.436   2.157   3.869
 6707TIP3   OH220065   5.013   2.792   5.373
 6707TIP3    H120066   5.081   2.753   5.318
 6707TIP3    H220067   5.009   2.735   5.450
 6708TIP3   OH220068   5.136   2.439   3.554
 6708TIP3    H120069   5.123   2.399   3.468
 6708TIP3    H220070   5.112   2.531   3.543
 6709TIP3   OH220071   4.626   2.189   5.408
 6709TIP3    H120072   4.632   2.116   5.347
 6709TIP3    H220073   4.590   2.261   5.356
 6710TIP3   OH220074   4.629   1.987   5.197
 6710TIP3    H120075   4.657   2.028   5.115
 6710TIP3    H220076   4.538   1.962   5.181
 6711TIP3   OH220077   4.638   2.521   5.068
 6711TIP3    H120078   4.725   2.558   5.054
 6711TIP3    H220079   4.579   2.578   5.019
 6712TIP3   OH220080   5.230   2.480   5.436
 6712TIP3    H120081   5.282   2.400   5.436
 6712TIP3    H220082   5.294   2.550   5.426
 6713TIP3   OH220083   5.259   2.735   5.175
 6713TIP3    H120084   5.204   2.794   5.124
 6713TIP3    H220085   5.348   2.753   5.144
 6714TIP3   OH220086   4.470   2.290   5.625
 6714TIP3    H120087   4.419   2.210   5.641
 6714TIP3    H220088   4.530   2.265   5.553
 6715TIP3   OH220089   4.751   1.746   5.273
 6715TIP3    H120090   4.710   1.829   5.250
 6715TIP3    H220091   4.681   1.681   5.266
 6716TIP3   OH220092   4.895   2.235   5.488
 6716TIP3    H120093   4.918   2.217   5.579
 6716TIP3    H220094   4.802   2.211   5.482
 6717TIP3   OH220095   5.130   2.181   5.350
 6717TIP3    H120096   5.050   2.187   5.402
 6717TIP3    H220097   5.199   2.162   5.413
 6718TIP3   OH220098   5.357   2.150   5.514
 6718TIP3    H120099   5.372   2.056   5.521
 6718TIP3    H220100   5.346   2.178   5.605
 6719TIP3   OH220101   4.332   2.046   5.674
 6719TIP3    H120102   4.345   1.958   5.640
 6719TIP3    H220103   4.376   2.045   5.759
 6720TIP3   OH220104   4.861   1.738   5.525
 6720TIP3    H120105   4.921   1.663   5.515
 6720TIP3    H220106   4.814   1.742   5.442
 6721TIP3   OH220107   4.151   3.175   3.791
 6721TIP3    H120108   4.244   3.168   3.771
 6721TIP3    H220109   4.116   3.234   3.723
 6722TIP3   OH220110   3.630   2.590   4.001
 6722TIP3    H120111   3.723   2.612   3.989
 6722TIP3    H220112   3.625   2.496   3.984
 6723TIP3   OH220113   3.541   3.159   4.436
 6723TIP3    H120114   3.472   3.109   4.392
 6723TIP3    H220115   3.582   3.096   4.495
 6724TIP3   OH220116   3.678   2.988   4.609
 6724TIP3    H120117   3.670   2.926   4.681
 6724TIP3    H220118   3.730   3.060   4.646
 6725TIP3   OH220119   5.413   3.400   4.420
 6725TIP3    H120120   5.427   3.433   4.509
 6725TIP3    H220121   5.460   3.462   4.364
 6726TIP3   OH220122   5.422   3.437   4.701
 6726TIP3    H120123   5.379   3.351   4.698
 6726TIP3    H220124   5.495   3.424   4.762
 6727TIP3   OH220125   5.487   3.129   5.274
 6727TIP3    H120126   5.414   3.140   5.335
 6727TIP3    H220127   5.532   3.214   5.275
 6728TIP3   OH220128   5.308   2.645   3.881
 6728TIP3    H120129   5.364   2.717   3.852
 6728TIP3    H220130   5.354   2.609   3.957
 6729TIP3   OH220131   5.438   2.503   4.083
 6729TIP3    H120132   5.370   2.469   4.141
 6729TIP3    H220133   5.502   2.543   4.142
 6730TIP3   OH220134   5.485   2.910   4.518
 6730TIP3    H120135   5.535   2.844   4.470
 6730TIP3    H220136   5.484   2.986   4.460
 6731TIP3   OH220137   5.289   3.192   4.709
 6731TIP3    H120138   5.221   3.237   4.759
 6731TIP3    H220139   5.242   3.153   4.635
 6732TIP3   OH220140   5.347   2.421   3.729
 6732TIP3    H120141   5.275   2.420   3.666
 6732TIP3    H220142   5.332   2.499   3.782
 6733TIP3   OH220143   5.205   2.070   3.669
 6733TIP3    H120144   5.156   2.112   3.597
 6733TIP3    H220145   5.194   1.976   3.654
 6734TIP3   OH220146   5.234   2.369   4.222
 6734TIP3    H120147   5.239   2.274   4.209
 6734TIP3    H220148   5.215   2.379   4.315
 6735TIP3   OH220149   3.855   2.431   4.994
 6735TIP3    H120150   3.847   2.400   4.904
 6735TIP3    H220151   3.949   2.429   5.012
 6736TIP3   OH220152   5.516   2.786   5.082
 6736TIP3    H120153   5.583   2.721   5.063
 6736TIP3    H220154   5.533   2.857   5.020
 6737TIP3   OH220155   5.691   2.573   5.071
 6737TIP3    H120156   5.618   2.534   5.119
 6737TIP3    H220157   5.766   2.518   5.094
 6738TIP3   OH220158   5.164   1.798   3.637
 6738TIP3    H120159   5.227   1.775   3.705
 6738TIP3    H220160   5.080   1.762   3.668
 6739TIP3   OH220161   5.227   2.089   4.106
 6739TIP3    H120162   5.273   2.006   4.119
 6739TIP3    H220163   5.270   2.130   4.031
 6740TIP3   OH220164   5.381   2.252   4.629
 6740TIP3    H120165   5.462   2.271   4.581
 6740TIP3    H220166   5.394   2.293   4.714
 6741TIP3   OH220167   5.455   2.404   4.856
 6741TIP3    H120168   5.382   2.434   4.910
 6741TIP3    H220169   5.486   2.483   4.813
 6742TIP3   OH220170   4.067   2.101   5.627
 6742TIP3    H120171   4.162   2.099   5.640
 6742TIP3    H220172   4.035   2.023   5.673
 6743TIP3   OH220173   5.917   2.001   5.399
 6743TIP3    H120174   5.980   1.944   5.355
 6743TIP3    H220175   5.878   2.053   5.329
 6744TIP3   OH220176   5.344   1.839   4.156
 6744TIP3    H120177   5.389   1.824   4.239
 6744TIP3    H220178   5.280   1.768   4.150
 6745TIP3   OH220179   4.043   1.825   4.992
 6745TIP3    H120180   4.099   1.747   4.994
 6745TIP3    H220181   4.104   1.896   4.974
 6746TIP3   OH220182   3.838   2.096   5.043
 6746TIP3    H120183   3.889   2.089   4.963
 6746TIP3    H220184   3.867   2.178   5.083
 6747TIP3   OH220185   5.767   2.122   5.207
 6747TIP3    H120186   5.689   2.165   5.243
 6747TIP3    H220187   5.733   2.054   5.150
 6748TIP3   OH220188   5.390   1.755   3.796
 6748TIP3    H120189   5.438   1.694   3.739
 6748TIP3    H220190   5.445   1.833   3.799
 6749TIP3   OH220191   3.815   1.595   4.545
 6749TIP3    H120192   3.729   1.585   4.586
 6749TIP3    H220193   3.800   1.650   4.469
 6750TIP3   OH220194   4.973   3.306   4.059
 6750TIP3    H120195   5.032   3.302   3.984
 6750TIP3    H220196   5.007   3.377   4.113
 6751TIP3   OH220197   4.039   1.651   5.371
 6751TIP3    H120198   3.991   1.651   5.454
 6751TIP3    H220199   3.983   1.700   5.311
 6752TIP3   OH220200   4.070   3.108   5.436
 6752TIP3    H120201   3.977   3.087   5.434
 6752TIP3    H220202   4.092   3.113   5.529
 6753TIP3   OH220203   4.281   3.153   4.992
 6753TIP3    H120204   4.228   3.225   4.958
 6753TIP3    H220205   4.366   3.163   4.948
 6754TIP3   OH220206   4.683   3.384   5.131
 6754TIP3    H120207   4.721   3.380   5.218
 6754TIP3    H220208   4.743   3.439   5.081
 6755TIP3   OH220209   4.872   3.542   5.006
 6755TIP3    H120210   4.937   3.496   4.952
 6755TIP3    H220211   4.924   3.601   5.061
 6756TIP3   OH220212   5.672   1.882   5.088
 6756TIP3    H120213   5.589   1.886   5.040
 6756TIP3    H220214   5.701   1.791   5.080
 6757TIP3   OH220215   3.941   3.383   5.045
 6757TIP3    H120216   3.849   3.400   5.021
 6757TIP3    H220217   3.965   3.455   5.103
 6758TIP3   OH220218   4.167   3.378   4.883
 6758TIP3    H120219   4.085   3.387   4.931
 6758TIP3    H220220   4.147   3.408   4.794
 6759TIP3   OH220221   4.589   3.403   4.680
 6759TIP3    H120222   4.518   3.416   4.618
 6759TIP3    H220223   4.604   3.490   4.718
 6760TIP3   OH220224   4.850   3.330   4.732
 6760TIP3    H120225   4.759   3.354   4.712
 6760TIP3    H220226   4.903   3.396   4.687
 6761TIP3   OH220227   5.049   3.499   4.633
 6761TIP3    H120228   5.047   3.589   4.599
 6761TIP3    H220229   5.079   3.446   4.559
 6762TIP3   OH220230   3.844   3.174   4.749
 6762TIP3    H120231   3.871   3.157   4.839
 6762TIP3    H220232   3.917   3.145   4.695
 6763TIP3   OH220233   4.050   3.054   4.618
 6763TIP3    H120234   4.062   2.971   4.664
 6763TIP3    H220235   4.136   3.097   4.622
 6764TIP3   OH220236   4.315   3.136   4.645
 6764TIP3    H120237   4.339   3.044   4.636
 6764TIP3    H220238   4.372   3.169   4.714
 6765TIP3   OH220239   4.883   1.799   4.724
 6765TIP3    H120240   4.845   1.728   4.776
 6765TIP3    H220241   4.952   1.758   4.672
 6766TIP3   OH220242   5.387   1.704   4.612
 6766TIP3    H120243   5.426   1.754   4.540
 6766TIP3    H220244   5.296   1.733   4.616
 6767TIP3   OH220245   5.502   1.784   4.377
 6767TIP3    H120246   5.571   1.725   4.349
 6767TIP3    H220247   5.539   1.872   4.365
 6768TIP3   OH220248   4.122   1.497   4.726
 6768TIP3    H120249   4.033   1.464   4.734
 6768TIP3    H220250   4.176   1.419   4.718
 6769TIP3   OH220251   3.940   1.401   4.376
 6769TIP3    H120252   3.966   1.451   4.299
 6769TIP3    H220253   3.904   1.466   4.436
 6770TIP3   OH220254   4.602   1.536   4.619
 6770TIP3    H120255   4.649   1.584   4.551
 6770TIP3    H220256   4.641   1.566   4.701
 6771TIP3   OH220257   5.097   1.684   4.594
 6771TIP3    H120258   5.111   1.651   4.505
 6771TIP3    H220259   5.101   1.606   4.650
 6772TIP3   OH220260   5.156   1.630   4.162
 6772TIP3    H120261   5.076   1.678   4.185
 6772TIP3    H220262   5.144   1.543   4.200
 6773TIP3   OH220263   3.621   2.967   4.156
 6773TIP3    H120264   3.537   2.937   4.121
 6773TIP3    H220265   3.632   3.054   4.118
 6774TIP3   OH220266   4.046   1.535   4.137
 6774TIP3    H120267   4.092   1.475   4.079
 6774TIP3    H220268   4.116   1.591   4.173
 6775TIP3   OH220269   4.537   1.727   4.238
 6775TIP3    H120270   4.598   1.677   4.293
 6775TIP3    H220271   4.551   1.818   4.265
 6776TIP3   OH220272   4.417   3.127   3.735
 6776TIP3    H120273   4.501   3.156   3.699
 6776TIP3    H220274   4.390   3.055   3.677
 6777TIP3   OH220275   5.127   3.269   3.830
 6777TIP3    H120276   5.119   3.174   3.822
 6777TIP3    H220277   5.081   3.304   3.754
 6778TIP3   OH220278   4.366   1.773   5.601
 6778TIP3    H120279   4.334   1.711   5.666
 6778TIP3    H220280   4.461   1.774   5.612
 6779TIP3   OH220281   3.697   2.945   3.797
 6779TIP3    H120282   3.704   2.994   3.878
 6779TIP3    H220283   3.786   2.916   3.778
 6780TIP3   OH220284   5.424   1.879   5.520
 6780TIP3    H120285   5.440   1.849   5.609
 6780TIP3    H220286   5.509   1.872   5.477
 6781TIP3   OH220287   5.340   3.406   5.020
 6781TIP3    H120288   5.264   3.376   4.969
 6781TIP3    H220289   5.327   3.501   5.027
 6782TIP3   OH220290   6.617   2.793   3.765
 6782TIP3    H120291   6.588   2.880   3.738
 6782TIP3    H220292   6.546   2.735   3.738
 6783TIP3   OH220293   6.617   2.784   4.184
 6783TIP3    H120294   6.667   2.767   4.264
 6783TIP3    H220295   6.572   2.701   4.166
 6784TIP3   OH220296   5.915   2.655   4.532
 6784TIP3    H120297   5.951   2.601   4.602
 6784TIP3    H220298   5.991   2.682   4.481
 6785TIP3   OH220299   6.882   3.090   3.861
 6785TIP3    H120300   6.870   3.025   3.930
 6785TIP3    H220301   6.904   3.171   3.908
 6786TIP3   OH220302   5.907   3.073   4.222
 6786TIP3    H120303   5.889   2.980   4.231
 6786TIP3    H220304   6.002   3.079   4.211
 6787TIP3   OH220305   5.589   2.277   4.007
 6787TIP3    H120306   5.552   2.362   4.032
 6787TIP3    H220307   5.517   2.230   3.966
 6788TIP3   OH220308   5.668   2.590   4.222
 6788TIP3    H120309   5.719   2.513   4.248
 6788TIP3    H220310   5.735   2.655   4.198
 6789TIP3   OH220311   6.535   3.527   3.869
 6789TIP3    H120312   6.564   3.459   3.808
 6789TIP3    H220313   6.518   3.481   3.951
 6790TIP3   OH220314   6.422   3.006   4.191
 6790TIP3    H120315   6.466   2.927   4.160
 6790TIP3    H220316   6.492   3.062   4.223
 6791TIP3   OH220317   7.446   2.326   4.209
 6791TIP3    H120318   7.456   2.416   4.240
 6791TIP3    H220319   7.477   2.328   4.118
 6792TIP3   OH220320   6.830   2.495   4.228
 6792TIP3    H120321   6.865   2.410   4.254
 6792TIP3    H220322   6.793   2.480   4.141
 6793TIP3   OH220323   6.184   2.155   4.188
 6793TIP3    H120324   6.164   2.229   4.130
 6793TIP3    H220325   6.129   2.084   4.156
 6794TIP3   OH220326   6.879   2.256   3.821
 6794TIP3    H120327   6.944   2.249   3.892
 6794TIP3    H220328   6.929   2.290   3.747
 6795TIP3   OH220329   5.806   2.368   4.317
 6795TIP3    H120330   5.890   2.352   4.360
 6795TIP3    H220331   5.812   2.318   4.236
 6796TIP3   OH220332   6.232   2.568   4.128
 6796TIP3    H120333   6.326   2.552   4.135
 6796TIP3    H220334   6.196   2.486   4.093
 6797TIP3   OH220335   7.496   2.553   4.378
 6797TIP3    H120336   7.408   2.589   4.366
 6797TIP3    H220337   7.526   2.591   4.460
 6798TIP3   OH220338   6.163   2.157   4.639
 6798TIP3    H120339   6.114   2.193   4.566
 6798TIP3    H220340   6.109   2.175   4.716
 6799TIP3   OH220341   6.518   3.011   3.624
 6799TIP3    H120342   6.477   2.983   3.541
 6799TIP3    H220343   6.465   3.085   3.652
 6800TIP3   OH220344   6.260   2.934   4.405
 6800TIP3    H120345   6.206   3.004   4.439
 6800TIP3    H220346   6.308   2.974   4.332
 6801TIP3   OH220347   7.042   2.277   4.040
 6801TIP3    H120348   7.001   2.254   4.124
 6801TIP3    H220349   7.098   2.351   4.060
 6802TIP3   OH220350   6.054   2.265   4.409
 6802TIP3    H120351   6.108   2.340   4.432
 6802TIP3    H220352   6.100   2.223   4.336
 6803TIP3   OH220353   6.103   3.135   4.510
 6803TIP3    H120354   6.088   3.224   4.479
 6803TIP3    H220355   6.025   3.115   4.563
 6804TIP3   OH220356   5.479   2.835   3.764
 6804TIP3    H120357   5.442   2.855   3.678
 6804TIP3    H220358   5.501   2.920   3.801
 6805TIP3   OH220359   6.924   3.336   4.001
 6805TIP3    H120360   6.838   3.328   4.042
 6805TIP3    H220361   6.921   3.419   3.955
 6806TIP3   OH220362   7.247   2.216   4.376
 6806TIP3    H120363   7.161   2.239   4.340
 6806TIP3    H220364   7.309   2.245   4.309
 6807TIP3   OH220365   6.508   1.851   4.367
 6807TIP3    H120366   6.498   1.759   4.391
 6807TIP3    H220367   6.432   1.894   4.406
 6808TIP3   OH220368   6.628   3.372   3.655
 6808TIP3    H120369   6.680   3.292   3.645
 6808TIP3    H220370   6.686   3.443   3.627
 6809TIP3   OH220371   6.766   3.141   3.614
 6809TIP3    H120372   6.693   3.080   3.612
 6809TIP3    H220373   6.816   3.116   3.692
 6810TIP3   OH220374   7.156   3.229   4.346
 6810TIP3    H120375   7.136   3.155   4.288
 6810TIP3    H220376   7.140   3.306   4.293
 6811TIP3   OH220377   6.444   2.633   3.615
 6811TIP3    H120378   6.362   2.678   3.596
 6811TIP3    H220379   6.490   2.632   3.531
 6812TIP3   OH220380   6.411   2.437   3.307
 6812TIP3    H120381   6.476   2.486   3.357
 6812TIP3    H220382   6.461   2.370   3.261
 6813TIP3   OH220383   7.332   2.891   4.210
 6813TIP3    H120384   7.248   2.936   4.210
 6813TIP3    H220385   7.366   2.902   4.122
 6814TIP3   OH220386   6.801   2.720   3.575
 6814TIP3    H120387   6.747   2.750   3.649
 6814TIP3    H220388   6.884   2.696   3.615
 6815TIP3   OH220389   7.029   2.752   4.518
 6815TIP3    H120390   7.025   2.835   4.566
 6815TIP3    H220391   6.946   2.748   4.470
 6816TIP3   OH220392   6.029   2.702   3.984
 6816TIP3    H120393   5.993   2.643   3.918
 6816TIP3    H220394   6.103   2.654   4.021
 6817TIP3   OH220395   6.167   3.122   4.122
 6817TIP3    H120396   6.144   3.110   4.030
 6817TIP3    H220397   6.255   3.085   4.129
 6818TIP3   OH220398   6.133   2.697   4.355
 6818TIP3    H120399   6.171   2.662   4.274
 6818TIP3    H220400   6.180   2.778   4.370
 6819TIP3   OH220401   6.690   3.329   4.136
 6819TIP3    H120402   6.671   3.411   4.183
 6819TIP3    H220403   6.670   3.260   4.199
 6820TIP3   OH220404   6.301   3.232   4.679
 6820TIP3    H120405   6.241   3.291   4.725
 6820TIP3    H220406   6.244   3.182   4.620
 6821TIP3   OH220407   6.632   2.582   3.407
 6821TIP3    H120408   6.692   2.639   3.455
 6821TIP3    H220409   6.660   2.588   3.316
 6822TIP3   OH220410   6.057   2.778   4.819
 6822TIP3    H120411   6.063   2.871   4.839
 6822TIP3    H220412   5.963   2.760   4.811
 6823TIP3   OH220413   6.382   3.248   3.669
 6823TIP3    H120414   6.462   3.300   3.670
 6823TIP3    H220415   6.318   3.303   3.622
 6824TIP3   OH220416   6.093   3.392   4.765
 6824TIP3    H120417   6.067   3.405   4.674
 6824TIP3    H220418   6.011   3.376   4.811
 6825TIP3   OH220419   7.145   1.810   3.466
 6825TIP3    H120420   7.067   1.830   3.517
 6825TIP3    H220421   7.156   1.886   3.408
 6826TIP3   OH220422   5.902   2.547   3.781
 6826TIP3    H120423   5.827   2.597   3.749
 6826TIP3    H220424   5.867   2.460   3.800
 6827TIP3   OH220425   6.963   3.183   3.019
 6827TIP3    H120426   6.960   3.277   3.000
 6827TIP3    H220427   7.052   3.158   2.998
 6828TIP3   OH220428   5.684   2.947   4.714
 6828TIP3    H120429   5.615   2.932   4.649
 6828TIP3    H220430   5.719   2.860   4.732
 6829TIP3   OH220431   5.525   3.148   4.369
 6829TIP3    H120432   5.616   3.174   4.385
 6829TIP3    H220433   5.473   3.224   4.394
 6830TIP3   OH220434   7.385   3.599   4.408
 6830TIP3    H120435   7.391   3.504   4.418
 6830TIP3    H220436   7.304   3.622   4.455
 6831TIP3   OH220437   6.490   3.373   4.539
 6831TIP3    H120438   6.484   3.464   4.566
 6831TIP3    H220439   6.422   3.328   4.588
 6832TIP3   OH220440   6.271   3.481   3.490
 6832TIP3    H120441   6.223   3.463   3.409
 6832TIP3    H220442   6.234   3.564   3.522
 6833TIP3   OH220443   5.707   3.325   3.868
 6833TIP3    H120444   5.749   3.320   3.954
 6833TIP3    H220445   5.656   3.244   3.862
 6834TIP3   OH220446   6.471   3.409   3.119
 6834TIP3    H120447   6.522   3.335   3.084
 6834TIP3    H220448   6.505   3.422   3.207
 6835TIP3   OH220449   6.524   3.452   3.389
 6835TIP3    H120450   6.437   3.459   3.428
 6835TIP3    H220451   6.579   3.415   3.458
 6836TIP3   OH220452   7.273   2.709   4.680
 6836TIP3    H120453   7.190   2.720   4.633
 6836TIP3    H220454   7.292   2.616   4.674
 6837TIP3   OH220455   5.888   3.130   4.682
 6837TIP3    H120456   5.935   3.121   4.765
 6837TIP3    H220457   5.814   3.071   4.689
 6838TIP3   OH220458   6.270   1.943   4.494
 6838TIP3    H120459   6.187   1.910   4.461
 6838TIP3    H220460   6.248   2.024   4.540
 6839TIP3   OH220461   6.811   2.061   4.692
 6839TIP3    H120462   6.879   2.038   4.755
 6839TIP3    H220463   6.729   2.046   4.740
 6840TIP3   OH220464   7.032   2.486   4.609
 6840TIP3    H120465   6.991   2.483   4.695
 6840TIP3    H220466   7.016   2.576   4.578
 6841TIP3   OH220467   6.711   2.568   3.145
 6841TIP3    H120468   6.668   2.569   3.060
 6841TIP3    H220469   6.793   2.616   3.131
 6842TIP3   OH220470   6.418   1.986   3.461
 6842TIP3    H120471   6.382   1.992   3.549
 6842TIP3    H220472   6.384   1.903   3.426
 6843TIP3   OH220473   6.208   2.475   4.503
 6843TIP3    H120474   6.161   2.483   4.586
 6843TIP3    H220475   6.187   2.555   4.456
 6844TIP3   OH220476   6.090   2.353   4.022
 6844TIP3    H120477   6.001   2.330   4.048
 6844TIP3    H220478   6.099   2.319   3.933
 6845TIP3   OH220479   6.569   2.428   3.750
 6845TIP3    H120480   6.522   2.501   3.710
 6845TIP3    H220481   6.628   2.397   3.682
 6846TIP3   OH220482   6.755   2.695   4.824
 6846TIP3    H120483   6.728   2.628   4.887
 6846TIP3    H220484   6.846   2.713   4.845
 6847TIP3   OH220485   6.737   2.443   3.975
 6847TIP3    H120486   6.669   2.467   3.912
 6847TIP3    H220487   6.783   2.370   3.935
 6848TIP3   OH220488   6.044   2.491   4.723
 6848TIP3    H120489   6.053   2.558   4.792
 6848TIP3    H220490   6.025   2.410   4.771
 6849TIP3   OH220491   6.084   1.963   3.436
 6849TIP3    H120492   6.076   1.969   3.531
 6849TIP3    H220493   6.007   2.009   3.403
 6850TIP3   OH220494   5.633   2.008   4.306
 6850TIP3    H120495   5.703   2.045   4.359
 6850TIP3    H220496   5.672   1.999   4.219
 6851TIP3   OH220497   5.545   1.987   3.807
 6851TIP3    H120498   5.589   2.023   3.729
 6851TIP3    H220499   5.483   2.055   3.832
 6852TIP3   OH220500   6.777   2.696   4.401
 6852TIP3    H120501   6.802   2.629   4.338
 6852TIP3    H220502   6.732   2.648   4.471
 6853TIP3   OH220503   6.451   2.143   4.074
 6853TIP3    H120504   6.374   2.145   4.130
 6853TIP3    H220505   6.525   2.137   4.135
 6854TIP3   OH220506   5.851   2.229   4.084
 6854TIP3    H120507   5.762   2.234   4.047
 6854TIP3    H220508   5.880   2.140   4.066
 6855TIP3   OH220509   6.104   2.228   3.778
 6855TIP3    H120510   6.198   2.240   3.766
 6855TIP3    H220511   6.066   2.247   3.691
 6856TIP3   OH220512   6.905   2.232   4.283
 6856TIP3    H120513   6.885   2.250   4.374
 6856TIP3    H220514   6.837   2.172   4.254
 6857TIP3   OH220515   5.987   2.252   3.531
 6857TIP3    H120516   5.923   2.205   3.478
 6857TIP3    H220517   6.040   2.299   3.467
 6858TIP3   OH220518   7.090   3.932   4.503
 6858TIP3    H120519   7.085   3.950   4.409
 6858TIP3    H220520   7.170   3.974   4.532
 6859TIP3   OH220521   6.043   3.040   4.919
 6859TIP3    H120522   6.122   3.065   4.966
 6859TIP3    H220523   5.972   3.053   4.983
 6860TIP3   OH220524   6.503   2.512   4.182
 6860TIP3    H120525   6.571   2.464   4.134
 6860TIP3    H220526   6.501   2.471   4.269
 6861TIP3   OH220527   5.995   1.982   4.068
 6861TIP3    H120528   5.966   1.906   4.118
 6861TIP3    H220529   6.021   1.946   3.983
 6862TIP3   OH220530   6.474   2.416   4.449
 6862TIP3    H120531   6.387   2.449   4.470
 6862TIP3    H220532   6.534   2.470   4.501
 6863TIP3   OH220533   6.208   2.771   3.561
 6863TIP3    H120534   6.133   2.716   3.537
 6863TIP3    H220535   6.183   2.812   3.644
 6864TIP3   OH220536   7.098   3.027   4.168
 6864TIP3    H120537   7.131   3.076   4.093
 6864TIP3    H220538   7.018   2.986   4.135
 6865TIP3   OH220539   6.672   2.088   3.463
 6865TIP3    H120540   6.578   2.068   3.459
 6865TIP3    H220541   6.675   2.183   3.475
 6866TIP3   OH220542   6.614   3.108   4.578
 6866TIP3    H120543   6.661   3.102   4.661
 6866TIP3    H220544   6.572   3.194   4.580
 6867TIP3   OH220545   6.733   2.352   3.534
 6867TIP3    H120546   6.828   2.356   3.543
 6867TIP3    H220547   6.711   2.429   3.482
 6868TIP3   OH220548   5.896   2.780   4.213
 6868TIP3    H120549   5.935   2.766   4.127
 6868TIP3    H220550   5.964   2.752   4.275
 6869TIP3   OH220551   6.359   2.934   3.402
 6869TIP3    H120552   6.312   3.017   3.400
 6869TIP3    H220553   6.304   2.876   3.456
 6870TIP3   OH220554   5.784   2.712   4.842
 6870TIP3    H120555   5.786   2.689   4.935
 6870TIP3    H220556   5.708   2.666   4.808
 6871TIP3   OH220557   6.521   2.849   4.867
 6871TIP3    H120558   6.452   2.790   4.837
 6871TIP3    H220559   6.602   2.809   4.836
 6872TIP3   OH220560   6.762   3.390   4.464
 6872TIP3    H120561   6.667   3.379   4.468
 6872TIP3    H220562   6.786   3.430   4.547
 6873TIP3   OH220563   7.152   2.439   3.355
 6873TIP3    H120564   7.096   2.393   3.292
 6873TIP3    H220565   7.157   2.529   3.321
 6874TIP3   OH220566   7.401   3.320   4.433
 6874TIP3    H120567   7.307   3.304   4.433
 6874TIP3    H220568   7.431   3.285   4.349
 6875TIP3   OH220569   6.890   3.255   3.286
 6875TIP3    H120570   6.859   3.187   3.346
 6875TIP3    H220571   6.904   3.210   3.203
 6876TIP3   OH220572   6.870   2.890   4.067
 6876TIP3    H120573   6.780   2.868   4.091
 6876TIP3    H220574   6.904   2.810   4.028
 6877TIP3   OH220575   6.022   3.128   3.876
 6877TIP3    H120576   6.020   3.203   3.818
 6877TIP3    H220577   5.933   3.122   3.911
 6878TIP3   OH220578   5.585   2.414   3.588
 6878TIP3    H120579   5.627   2.497   3.608
 6878TIP3    H220580   5.504   2.414   3.639
 6879TIP3   OH220581   6.113   2.883   3.788
 6879TIP3    H120582   6.092   2.972   3.814
 6879TIP3    H220583   6.085   2.829   3.862
 6880TIP3   OH220584   6.305   3.450   4.331
 6880TIP3    H120585   6.339   3.524   4.281
 6880TIP3    H220586   6.379   3.418   4.382
 6881TIP3   OH220587   5.941   3.351   3.723
 6881TIP3    H120588   5.854   3.356   3.763
 6881TIP3    H220589   5.973   3.441   3.727
 6882TIP3   OH220590   6.656   3.108   4.305
 6882TIP3    H120591   6.644   3.104   4.400
 6882TIP3    H220592   6.735   3.056   4.289
 6883TIP3   OH220593   6.648   2.991   3.172
 6883TIP3    H120594   6.699   2.962   3.248
 6883TIP3    H220595   6.563   2.948   3.183
 6884TIP3   OH220596   6.913   3.607   4.343
 6884TIP3    H120597   6.841   3.547   4.359
 6884TIP3    H220598   6.883   3.663   4.273
 6885TIP3   OH220599   6.966   3.457   2.981
 6885TIP3    H120600   6.990   3.519   2.913
 6885TIP3    H220601   6.893   3.499   3.028
 6886TIP3   OH220602   5.992   2.236   4.846
 6886TIP3    H120603   5.897   2.244   4.851
 6886TIP3    H220604   6.017   2.189   4.925
 6887TIP3   OH220605   6.822   2.901   3.364
 6887TIP3    H120606   6.808   2.849   3.443
 6887TIP3    H220607   6.918   2.910   3.358
 6888TIP3   OH220608   5.733   3.345   4.487
 6888TIP3    H120609   5.787   3.289   4.542
 6888TIP3    H220610   5.745   3.433   4.523
 6889TIP3   OH220611   6.007   2.956   3.184
 6889TIP3    H120612   6.016   2.864   3.159
 6889TIP3    H220613   5.988   2.953   3.277
 6890TIP3   OH220614   5.944   2.972   3.454
 6890TIP3    H120615   6.008   2.945   3.520
 6890TIP3    H220616   5.942   3.067   3.460
 6891TIP3   OH220617   5.678   2.666   3.667
 6891TIP3    H120618   5.613   2.712   3.719
 6891TIP3    H220619   5.696   2.724   3.594
 6892TIP3   OH220620   6.844   2.292   4.543
 6892TIP3    H120621   6.920   2.338   4.577
 6892TIP3    H220622   6.835   2.216   4.600
 6893TIP3   OH220623   6.731   2.038   3.731
 6893TIP3    H120624   6.710   2.056   3.639
 6893TIP3    H220625   6.774   2.117   3.762
 6894TIP3   OH220626   6.216   3.164   3.399
 6894TIP3    H120627   6.130   3.185   3.435
 6894TIP3    H220628   6.238   3.238   3.343
 6895TIP3   OH220629   6.384   2.236   3.820
 6895TIP3    H120630   6.446   2.305   3.794
 6895TIP3    H220631   6.406   2.217   3.911
 6896TIP3   OH220632   6.680   2.532   4.601
 6896TIP3    H120633   6.704   2.577   4.681
 6896TIP3    H220634   6.731   2.451   4.603
 6897TIP3   OH220635   6.545   1.934   3.909
 6897TIP3    H120636   6.522   2.011   3.960
 6897TIP3    H220637   6.614   1.964   3.850
 6898TIP3   OH220638   5.962   3.243   3.472
 6898TIP3    H120639   5.940   3.312   3.409
 6898TIP3    H220640   5.952   3.284   3.558
 6899TIP3   OH220641   6.058   1.956   3.716
 6899TIP3    H120642   6.047   2.047   3.744
 6899TIP3    H220643   6.152   1.941   3.721
 6900TIP3   OH220644   7.297   2.436   4.593
 6900TIP3    H120645   7.202   2.442   4.603
 6900TIP3    H220646   7.310   2.387   4.512
 6901TIP3   OH220647   6.961   2.633   3.976
 6901TIP3    H120648   6.884   2.577   3.987
 6901TIP3    H220649   7.028   2.591   4.031
 6902TIP3   OH220650   5.696   2.843   3.451
 6902TIP3    H120651   5.765   2.908   3.459
 6902TIP3    H220652   5.730   2.780   3.386
 6903TIP3   OH220653   5.607   2.135   3.584
 6903TIP3    H120654   5.623   2.229   3.594
 6903TIP3    H220655   5.544   2.130   3.512
 6904TIP3   OH220656   6.942   3.602   3.920
 6904TIP3    H120657   6.901   3.654   3.851
 6904TIP3    H220658   7.036   3.614   3.906
 6905TIP3   OH220659   6.009   1.857   4.452
 6905TIP3    H120660   5.979   1.826   4.366
 6905TIP3    H220661   5.998   1.782   4.509
 6906TIP3   OH220662   5.529   3.102   3.850
 6906TIP3    H120663   5.489   3.141   3.927
 6906TIP3    H220664   5.488   3.146   3.776
 6907TIP3   OH220665   5.727   3.643   4.908
 6907TIP3    H120666   5.809   3.646   4.957
 6907TIP3    H220667   5.707   3.550   4.900
 6908TIP3   OH220668   6.193   3.558   4.963
 6908TIP3    H120669   6.287   3.540   4.967
 6908TIP3    H220670   6.162   3.503   4.891
 6909TIP3   OH220671   6.160   3.158   3.075
 6909TIP3    H120672   6.113   3.088   3.120
 6909TIP3    H220673   6.235   3.115   3.034
 6910TIP3   OH220674   6.820   3.496   4.710
 6910TIP3    H120675   6.833   3.428   4.776
 6910TIP3    H220676   6.894   3.556   4.724
 6911TIP3   OH220677   6.600   3.198   3.000
 6911TIP3    H120678   6.632   3.133   3.062
 6911TIP3    H220679   6.660   3.192   2.925
 6912TIP3   OH220680   5.834   3.041   5.105
 6912TIP3    H120681   5.850   2.948   5.116
 6912TIP3    H220682   5.748   3.047   5.065
 6913TIP3   OH220683   5.825   2.653   3.303
 6913TIP3    H120684   5.877   2.631   3.380
 6913TIP3    H220685   5.890   2.666   3.234
 6914TIP3   OH220686   6.455   3.127   4.882
 6914TIP3    H120687   6.409   3.149   4.801
 6914TIP3    H220688   6.488   3.038   4.867
 6915TIP3   OH220689   6.389   2.875   3.135
 6915TIP3    H120690   6.367   2.888   3.228
 6915TIP3    H220691   6.372   2.783   3.119
 6916TIP3   OH220692   6.931   3.165   4.496
 6916TIP3    H120693   7.008   3.196   4.449
 6916TIP3    H220694   6.865   3.233   4.482
 6917TIP3   OH220695   5.950   2.782   5.113
 6917TIP3    H120696   6.025   2.776   5.054
 6917TIP3    H220697   5.988   2.808   5.197
 6918TIP3   OH220698   6.000   2.593   3.514
 6918TIP3    H120699   5.978   2.563   3.602
 6918TIP3    H220700   6.047   2.520   3.474
 6919TIP3   OH220701   6.315   2.673   4.768
 6919TIP3    H120702   6.229   2.714   4.778
 6919TIP3    H220703   6.347   2.703   4.683
 6920TIP3   OH220704   6.138   2.405   3.360
 6920TIP3    H120705   6.108   2.410   3.270
 6920TIP3    H220706   6.233   2.413   3.355
 6921TIP3   OH220707   6.811   3.049   4.860
 6921TIP3    H120708   6.877   3.008   4.804
 6921TIP3    H220709   6.807   2.993   4.937
 6922TIP3   OH220710   6.934   2.697   3.039
 6922TIP3    H120711   6.920   2.657   2.953
 6922TIP3    H220712   6.909   2.789   3.026
 6923TIP3   OH220713   6.417   2.442   4.875
 6923TIP3    H120714   6.419   2.371   4.810
 6923TIP3    H220715   6.383   2.517   4.827
 6924TIP3   OH220716   6.424   2.240   4.674
 6924TIP3    H120717   6.451   2.280   4.591
 6924TIP3    H220718   6.333   2.215   4.660
 6925TIP3   OH220719   6.433   2.773   4.545
 6925TIP3    H120720   6.520   2.810   4.532
 6925TIP3    H220721   6.375   2.832   4.496
 6926TIP3   OH220722   7.022   2.732   4.923
 6926TIP3    H120723   7.069   2.649   4.929
 6926TIP3    H220724   7.091   2.798   4.910
 6927TIP3   OH220725   7.052   2.992   4.665
 6927TIP3    H120726   6.998   3.053   4.615
 6927TIP3    H220727   7.141   3.008   4.634
 6928TIP3   OH220728   6.301   2.526   5.118
 6928TIP3    H120729   6.229   2.466   5.137
 6928TIP3    H220730   6.328   2.504   5.029
 6929TIP3   OH220731   6.545   2.009   4.774
 6929TIP3    H120732   6.505   2.089   4.741
 6929TIP3    H220733   6.479   1.941   4.760
 6930TIP3   OH220734   6.672   2.482   4.977
 6930TIP3    H120735   6.660   2.471   5.072
 6930TIP3    H220736   6.587   2.462   4.940
 6931TIP3   OH220737   6.917   2.437   4.847
 6931TIP3    H120738   6.838   2.438   4.901
 6931TIP3    H220739   6.987   2.414   4.907
 6932TIP3   OH220740   7.153   2.402   4.996
 6932TIP3    H120741   7.166   2.307   5.003
 6932TIP3    H220742   7.148   2.432   5.087
 6933TIP3   OH220743   6.131   2.308   5.181
 6933TIP3    H120744   6.138   2.219   5.146
 6933TIP3    H220745   6.170   2.302   5.269
 6934TIP3   OH220746   6.614   1.987   5.039
 6934TIP3    H120747   6.683   1.921   5.031
 6934TIP3    H220748   6.583   1.999   4.949
 6935TIP3   OH220749   6.707   2.203   5.184
 6935TIP3    H120750   6.677   2.132   5.127
 6935TIP3    H220751   6.635   2.267   5.184
 6936TIP3   OH220752   5.952   3.440   3.279
 6936TIP3    H120753   6.044   3.429   3.257
 6936TIP3    H220754   5.916   3.493   3.208
 6937TIP3   OH220755   5.422   2.834   3.472
 6937TIP3    H120756   5.517   2.848   3.467
 6937TIP3    H220757   5.409   2.748   3.432
 6938TIP3   OH220758   5.336   3.418   3.927
 6938TIP3    H120759   5.269   3.367   3.881
 6938TIP3    H220760   5.377   3.355   3.986
 6939TIP3   OH220761   5.476   3.247   4.096
 6939TIP3    H120762   5.466   3.183   4.166
 6939TIP3    H220763   5.526   3.318   4.136
 6940TIP3   OH220764   7.210   3.655   3.908
 6940TIP3    H120765   7.229   3.687   3.997
 6940TIP3    H220766   7.267   3.707   3.851
 6941TIP3   OH220767   7.224   3.695   4.187
 6941TIP3    H120768   7.177   3.612   4.182
 6941TIP3    H220769   7.294   3.679   4.251
 6942TIP3   OH220770   7.278   3.387   4.756
 6942TIP3    H120771   7.205   3.393   4.817
 6942TIP3    H220772   7.319   3.474   4.759
 6943TIP3   OH220773   7.102   2.904   3.366
 6943TIP3    H120774   7.160   2.975   3.338
 6943TIP3    H220775   7.146   2.866   3.442
 6944TIP3   OH220776   7.227   2.761   3.567
 6944TIP3    H120777   7.160   2.723   3.624
 6944TIP3    H220778   7.291   2.799   3.626
 6945TIP3   OH220779   7.275   3.166   4.002
 6945TIP3    H120780   7.323   3.096   3.958
 6945TIP3    H220781   7.275   3.239   3.940
 6946TIP3   OH220782   7.089   3.450   4.196
 6946TIP3    H120783   7.020   3.494   4.246
 6946TIP3    H220784   7.042   3.408   4.123
 6947TIP3   OH220785   7.143   2.678   3.215
 6947TIP3    H120786   7.072   2.676   3.152
 6947TIP3    H220787   7.127   2.756   3.268
 6948TIP3   OH220788   6.999   2.330   3.156
 6948TIP3    H120789   6.954   2.368   3.082
 6948TIP3    H220790   6.988   2.235   3.145
 6949TIP3   OH220791   7.028   2.623   3.707
 6949TIP3    H120792   7.033   2.528   3.694
 6949TIP3    H220793   7.009   2.633   3.801
 6950TIP3   OH220794   5.650   2.682   4.479
 6950TIP3    H120795   5.640   2.654   4.388
 6950TIP3    H220796   5.744   2.683   4.494
 6951TIP3   OH220797   7.305   3.044   4.565
 6951TIP3    H120798   7.374   2.980   4.548
 6951TIP3    H220799   7.306   3.102   4.489
 6952TIP3   OH220800   7.485   2.836   4.562
 6952TIP3    H120801   7.409   2.796   4.605
 6952TIP3    H220802   7.558   2.779   4.586
 6953TIP3   OH220803   6.956   2.059   3.128
 6953TIP3    H120804   7.021   2.031   3.192
 6953TIP3    H220805   6.874   2.018   3.156
 6954TIP3   OH220806   7.024   2.346   3.593
 6954TIP3    H120807   7.069   2.262   3.605
 6954TIP3    H220808   7.067   2.385   3.517
 6955TIP3   OH220809   7.177   2.510   4.114
 6955TIP3    H120810   7.258   2.529   4.067
 6955TIP3    H220811   7.188   2.552   4.199
 6956TIP3   OH220812   7.242   2.664   4.340
 6956TIP3    H120813   7.169   2.693   4.395
 6956TIP3    H220814   7.274   2.743   4.297
 6957TIP3   OH220815   5.867   2.365   5.119
 6957TIP3    H120816   5.961   2.365   5.138
 6957TIP3    H220817   5.834   2.285   5.160
 6958TIP3   OH220818   7.714   2.263   4.883
 6958TIP3    H120819   7.769   2.196   4.843
 6958TIP3    H220820   7.674   2.309   4.810
 6959TIP3   OH220821   7.137   2.094   3.643
 6959TIP3    H120822   7.181   2.079   3.726
 6959TIP3    H220823   7.074   2.022   3.636
 6960TIP3   OH220824   5.843   2.080   4.474
 6960TIP3    H120825   5.899   2.002   4.477
 6960TIP3    H220826   5.904   2.152   4.456
 6961TIP3   OH220827   5.624   2.346   4.533
 6961TIP3    H120828   5.677   2.337   4.454
 6961TIP3    H220829   5.639   2.435   4.562
 6962TIP3   OH220830   7.555   2.369   4.691
 6962TIP3    H120831   7.474   2.410   4.722
 6962TIP3    H220832   7.525   2.298   4.634
 6963TIP3   OH220833   7.187   2.009   3.279
 6963TIP3    H120834   7.235   1.949   3.222
 6963TIP3    H220835   7.242   2.087   3.285
 6964TIP3   OH220836   5.612   1.847   4.032
 6964TIP3    H120837   5.526   1.839   4.073
 6964TIP3    H220838   5.597   1.905   3.957
 6965TIP3   OH220839   6.776   3.571   3.551
 6965TIP3    H120840   6.827   3.558   3.472
 6965TIP3    H220841   6.822   3.639   3.600
 6966TIP3   OH220842   5.835   1.901   4.853
 6966TIP3    H120843   5.789   1.906   4.937
 6966TIP3    H220844   5.782   1.953   4.793
 6967TIP3   OH220845   5.870   3.356   4.929
 6967TIP3    H120846   5.775   3.342   4.920
 6967TIP3    H220847   5.885   3.358   5.024
 6968TIP3   OH220848   6.076   3.410   4.481
 6968TIP3    H120849   6.022   3.482   4.447
 6968TIP3    H220850   6.161   3.422   4.437
 6969TIP3   OH220851   6.477   3.639   4.616
 6969TIP3    H120852   6.515   3.635   4.703
 6969TIP3    H220853   6.536   3.696   4.566
 6970TIP3   OH220854   6.661   3.800   4.488
 6970TIP3    H120855   6.725   3.749   4.436
 6970TIP3    H220856   6.715   3.855   4.544
 6971TIP3   OH220857   7.465   2.129   4.577
 6971TIP3    H120858   7.379   2.126   4.535
 6971TIP3    H220859   7.499   2.040   4.569
 6972TIP3   OH220860   5.740   3.639   4.531
 6972TIP3    H120861   5.648   3.654   4.508
 6972TIP3    H220862   5.761   3.711   4.591
 6973TIP3   OH220863   5.964   3.637   4.371
 6973TIP3    H120864   5.883   3.642   4.420
 6973TIP3    H220865   5.942   3.668   4.283
 6974TIP3   OH220866   6.384   3.658   4.163
 6974TIP3    H120867   6.308   3.669   4.105
 6974TIP3    H220868   6.393   3.743   4.207
 6975TIP3   OH220869   6.647   3.592   4.218
 6975TIP3    H120870   6.555   3.613   4.198
 6975TIP3    H220871   6.697   3.659   4.171
 6976TIP3   OH220872   6.850   3.766   4.121
 6976TIP3    H120873   6.847   3.853   4.082
 6976TIP3    H220874   6.880   3.708   4.051
 6977TIP3   OH220875   5.645   3.430   4.235
 6977TIP3    H120876   5.667   3.408   4.326
 6977TIP3    H220877   5.719   3.398   4.184
 6978TIP3   OH220878   5.851   3.313   4.103
 6978TIP3    H120879   5.863   3.230   4.150
 6978TIP3    H220880   5.937   3.356   4.108
 6979TIP3   OH220881   6.118   3.400   4.128
 6979TIP3    H120882   6.138   3.308   4.115
 6979TIP3    H220883   6.170   3.426   4.203
 6980TIP3   OH220884   6.683   2.056   4.212
 6980TIP3    H120885   6.643   1.983   4.261
 6980TIP3    H220886   6.750   2.014   4.159
 6981TIP3   OH220887   7.183   1.964   4.105
 6981TIP3    H120888   7.220   2.013   4.031
 6981TIP3    H220889   7.090   1.987   4.104
 6982TIP3   OH220890   7.293   2.043   3.867
 6982TIP3    H120891   7.363   1.983   3.840
 6982TIP3    H220892   7.328   2.130   3.848
 6983TIP3   OH220893   5.921   1.755   4.210
 6983TIP3    H120894   5.831   1.722   4.218
 6983TIP3    H220895   5.974   1.676   4.202
 6984TIP3   OH220896   5.737   1.656   3.862
 6984TIP3    H120897   5.764   1.707   3.786
 6984TIP3    H220898   5.700   1.721   3.923
 6985TIP3   OH220899   6.397   1.793   4.106
 6985TIP3    H120900   6.444   1.839   4.037
 6985TIP3    H220901   6.438   1.823   4.187
 6986TIP3   OH220902   6.896   1.938   4.080
 6986TIP3    H120903   6.909   1.904   3.992
 6986TIP3    H220904   6.899   1.861   4.137
 6987TIP3   OH220905   6.950   1.885   3.648
 6987TIP3    H120906   6.870   1.931   3.671
 6987TIP3    H220907   6.939   1.797   3.685
 6988TIP3   OH220908   5.416   3.225   3.633
 6988TIP3    H120909   5.330   3.193   3.604
 6988TIP3    H220910   5.422   3.314   3.599
 6989TIP3   OH220911   5.847   1.788   3.627
 6989TIP3    H120912   5.893   1.729   3.568
 6989TIP3    H220913   5.915   1.846   3.663
 6990TIP3   OH220914   6.333   1.984   3.725
 6990TIP3    H120915   6.394   1.933   3.778
 6990TIP3    H220916   6.348   2.075   3.752
 6991TIP3   OH220917   6.215   3.383   3.221
 6991TIP3    H120918   6.298   3.411   3.183
 6991TIP3    H220919   6.187   3.311   3.164
 6992TIP3   OH220920   6.921   3.524   3.319
 6992TIP3    H120921   6.915   3.429   3.312
 6992TIP3    H220922   6.876   3.557   3.241
 6993TIP3   OH220923   6.144   2.036   5.093
 6993TIP3    H120924   6.108   1.970   5.152
 6993TIP3    H220925   6.236   2.043   5.117
 6994TIP3   OH220926   6.393   2.040   5.214
 6994TIP3    H120927   6.471   2.019   5.163
 6994TIP3    H220928   6.387   1.970   5.279
 6995TIP3   OH220929   5.513   3.224   3.277
 6995TIP3    H120930   5.515   3.246   3.370
 6995TIP3    H220931   5.597   3.180   3.261
 6996TIP3   OH220932   7.217   2.130   5.004
 6996TIP3    H120933   7.233   2.102   5.094
 6996TIP3    H220934   7.302   2.124   4.962
 6997TIP3   OH220935   7.135   3.660   4.506
 6997TIP3    H120936   7.060   3.627   4.456
 6997TIP3    H220937   7.118   3.754   4.515
 6998TIP3   OH220938   7.687   2.900   4.038
 6998TIP3    H120939   7.723   2.862   4.118
 6998TIP3    H220940   7.765   2.926   3.987
 6999TIP3   OH220941   7.694   3.333   3.717
 6999TIP3    H120942   7.666   3.242   3.727
 6999TIP3    H220943   7.788   3.327   3.701
 7000TIP3   OH220944   7.386   2.541   3.488
 7000TIP3    H120945   7.344   2.623   3.514
 7000TIP3    H220946   7.314   2.489   3.451
 7001TIP3   OH220947   7.453   2.847   3.706
 7001TIP3    H120948   7.503   2.769   3.727
 7001TIP3    H220949   7.519   2.914   3.688
 7002TIP3   OH220950   8.462   3.760   3.455
 7002TIP3    H120951   8.505   3.823   3.398
 7002TIP3    H220952   8.386   3.730   3.404
 7003TIP3   OH220953   8.163   3.300   3.524
 7003TIP3    H120954   8.229   3.276   3.459
 7003TIP3    H220955   8.205   3.282   3.609
 7004TIP3   OH220956   7.981   2.302   3.678
 7004TIP3    H120957   7.961   2.392   3.701
 7004TIP3    H220958   7.904   2.271   3.629
 7005TIP3   OH220959   7.588   2.623   3.789
 7005TIP3    H120960   7.662   2.600   3.846
 7005TIP3    H220961   7.604   2.574   3.709
 7006TIP3   OH220962   7.953   2.843   3.605
 7006TIP3    H120963   8.037   2.835   3.561
 7006TIP3    H220964   7.906   2.763   3.582
 7007TIP3   OH220965   7.926   2.394   4.149
 7007TIP3    H120966   7.884   2.436   4.074
 7007TIP3    H220967   7.862   2.401   4.220
 7008TIP3   OH220968   8.041   3.202   3.900
 7008TIP3    H120969   7.983   3.263   3.945
 7008TIP3    H220970   8.019   3.212   3.807
 7009TIP3   OH220971   7.804   2.525   3.940
 7009TIP3    H120972   7.846   2.600   3.981
 7009TIP3    H220973   7.848   2.516   3.855
 7010TIP3   OH220974   7.865   3.383   4.000
 7010TIP3    H120975   7.853   3.471   3.965
 7010TIP3    H220976   7.785   3.366   4.050
 7011TIP3   OH220977   7.274   3.094   3.250
 7011TIP3    H120978   7.237   3.112   3.164
 7011TIP3    H220979   7.297   3.180   3.285
 7012TIP3   OH220980   7.747   2.962   3.467
 7012TIP3    H120981   7.722   2.896   3.403
 7012TIP3    H220982   7.824   2.925   3.511
 7013TIP3   OH220983   7.939   3.437   3.574
 7013TIP3    H120984   7.881   3.413   3.502
 7013TIP3    H220985   8.019   3.387   3.560
 7014TIP3   OH220986   7.903   2.948   3.865
 7014TIP3    H120987   7.929   2.916   3.779
 7014TIP3    H220988   7.954   3.028   3.876
 7015TIP3   OH220989   8.056   3.457   4.178
 7015TIP3    H120990   8.011   3.528   4.223
 7015TIP3    H220991   7.990   3.421   4.119
 7016TIP3   OH220992   7.830   3.068   4.281
 7016TIP3    H120993   7.829   3.156   4.319
 7016TIP3    H220994   7.740   3.036   4.292
 7017TIP3   OH220995   8.049   3.534   3.199
 7017TIP3    H120996   8.132   3.566   3.234
 7017TIP3    H220997   8.024   3.598   3.133
 7018TIP3   OH220998   7.874   3.651   4.248
 7018TIP3    H120999   7.845   3.658   4.157
 7018TIP3    H221000   7.794   3.637   4.298
 7019TIP3   OH221001   7.673   2.782   3.261
 7019TIP3    H121002   7.604   2.839   3.226
 7019TIP3    H221003   7.629   2.699   3.278
 7020TIP3   OH221004   7.472   3.203   4.198
 7020TIP3    H121005   7.403   3.185   4.134
 7020TIP3    H221006   7.507   3.116   4.221
 7021TIP3   OH221007   7.320   3.400   3.848
 7021TIP3    H121008   7.412   3.422   3.865
 7021TIP3    H221009   7.271   3.476   3.880
 7022TIP3   OH221010   8.205   3.616   4.003
 7022TIP3    H121011   8.192   3.691   4.061
 7022TIP3    H221012   8.161   3.543   4.047
 7023TIP3   OH221013   8.009   3.725   2.997
 7023TIP3    H121014   8.082   3.752   2.941
 7023TIP3    H221015   7.966   3.808   3.021
 7024TIP3   OH221016   7.492   3.587   3.357
 7024TIP3    H121017   7.534   3.577   3.442
 7024TIP3    H221018   7.442   3.506   3.345
 7025TIP3   OH221019   8.405   3.715   3.031
 7025TIP3    H121020   8.342   3.758   2.973
 7025TIP3    H221021   8.423   3.631   2.989
 7026TIP3   OH221022   7.653   3.405   4.172
 7026TIP3    H121023   7.704   3.393   4.252
 7026TIP3    H221024   7.586   3.336   4.176
 7027TIP3   OH221025   8.023   2.182   4.009
 7027TIP3    H121026   7.942   2.152   3.967
 7027TIP3    H221027   7.997   2.260   4.058
 7028TIP3   OH221028   7.965   2.729   4.027
 7028TIP3    H121029   7.918   2.750   4.108
 7028TIP3    H221030   7.951   2.806   3.972
 7029TIP3   OH221031   7.864   2.620   3.461
 7029TIP3    H121032   7.783   2.575   3.488
 7029TIP3    H221033   7.870   2.604   3.367
 7030TIP3   OH221034   7.803   2.744   4.250
 7030TIP3    H121035   7.823   2.794   4.329
 7030TIP3    H221036   7.783   2.656   4.282
 7031TIP3   OH221037   7.877   2.204   2.907
 7031TIP3    H121038   7.791   2.245   2.915
 7031TIP3    H221039   7.895   2.204   2.813
 7032TIP3   OH221040   7.419   2.264   3.778
 7032TIP3    H121041   7.484   2.298   3.839
 7032TIP3    H221042   7.469   2.241   3.700
 7033TIP3   OH221043   7.342   2.242   3.300
 7033TIP3    H121044   7.387   2.278   3.223
 7033TIP3    H221045   7.278   2.309   3.324
 7034TIP3   OH221046   7.646   2.484   3.555
 7034TIP3    H121047   7.556   2.490   3.525
 7034TIP3    H221048   7.670   2.392   3.541
 7035TIP3   OH221049   7.766   2.477   3.060
 7035TIP3    H121050   7.699   2.439   3.003
 7035TIP3    H221051   7.824   2.523   3.000
 7036TIP3   OH221052   7.805   3.323   4.399
 7036TIP3    H121053   7.882   3.351   4.448
 7036TIP3    H221054   7.737   3.311   4.466
 7037TIP3   OH221055   7.757   2.231   3.524
 7037TIP3    H121056   7.737   2.150   3.571
 7037TIP3    H221057   7.779   2.202   3.435
 7038TIP3   OH221058   8.233   2.677   4.069
 7038TIP3    H121059   8.144   2.708   4.051
 7038TIP3    H221060   8.259   2.632   3.988
 7039TIP3   OH221061   8.003   2.980   3.083
 7039TIP3    H121062   7.927   2.931   3.053
 7039TIP3    H221063   7.975   3.018   3.167
 7040TIP3   OH221064   8.444   3.316   3.990
 7040TIP3    H121065   8.486   3.247   4.041
 7040TIP3    H221066   8.397   3.369   4.055
 7041TIP3   OH221067   7.663   3.044   3.719
 7041TIP3    H121068   7.692   3.034   3.629
 7041TIP3    H221069   7.740   3.023   3.772
 7042TIP3   OH221070   8.100   3.083   2.848
 7042TIP3    H121071   8.120   3.173   2.873
 7042TIP3    H221072   8.053   3.047   2.923
 7043TIP3   OH221073   7.571   2.975   4.332
 7043TIP3    H121074   7.576   2.947   4.423
 7043TIP3    H221075   7.498   2.925   4.296
 7044TIP3   OH221076   8.280   3.058   4.332
 7044TIP3    H121077   8.196   3.017   4.314
 7044TIP3    H221078   8.340   2.984   4.346
 7045TIP3   OH221079   7.780   3.375   3.365
 7045TIP3    H121080   7.781   3.448   3.303
 7045TIP3    H221081   7.692   3.338   3.356
 7046TIP3   OH221082   7.382   2.669   3.078
 7046TIP3    H121083   7.419   2.756   3.094
 7046TIP3    H221084   7.300   2.668   3.128
 7047TIP3   OH221085   7.942   3.097   3.328
 7047TIP3    H121086   7.925   3.180   3.283
 7047TIP3    H221087   7.858   3.074   3.368
 7048TIP3   OH221088   8.060   3.722   3.801
 7048TIP3    H121089   8.096   3.807   3.776
 7048TIP3    H221090   8.126   3.684   3.860
 7049TIP3   OH221091   7.717   3.596   3.203
 7049TIP3    H121092   7.634   3.603   3.250
 7049TIP3    H221093   7.757   3.683   3.210
 7050TIP3   OH221094   7.754   2.456   4.363
 7050TIP3    H121095   7.663   2.487   4.361
 7050TIP3    H221096   7.750   2.373   4.410
 7051TIP3   OH221097   7.523   3.595   3.983
 7051TIP3    H121098   7.569   3.533   4.040
 7051TIP3    H221099   7.532   3.679   4.028
 7052TIP3   OH221100   7.772   3.222   2.682
 7052TIP3    H121101   7.786   3.131   2.656
 7052TIP3    H221102   7.765   3.220   2.777
 7053TIP3   OH221103   7.726   3.249   2.954
 7053TIP3    H121104   7.799   3.252   3.016
 7053TIP3    H221105   7.692   3.338   2.951
 7054TIP3   OH221106   7.468   2.925   3.149
 7054TIP3    H121107   7.404   2.971   3.202
 7054TIP3    H221108   7.486   2.984   3.076
 7055TIP3   OH221109   8.135   3.344   2.925
 7055TIP3    H121110   8.058   3.395   2.900
 7055TIP3    H221111   8.208   3.405   2.917
 7056TIP3   OH221112   7.634   3.507   2.955
 7056TIP3    H121113   7.651   3.579   2.894
 7056TIP3    H221114   7.662   3.540   3.040
 7057TIP3   OH221115   7.819   2.234   3.191
 7057TIP3    H121116   7.796   2.324   3.168
 7057TIP3    H221117   7.885   2.208   3.127
 7058TIP3   OH221118   7.489   3.104   2.938
 7058TIP3    H121119   7.559   3.169   2.950
 7058TIP3    H221120   7.525   3.042   2.874
 7059TIP3   OH221121   7.406   2.391   3.080
 7059TIP3    H121122   7.417   2.486   3.085
 7059TIP3    H221123   7.350   2.377   3.004
 7060TIP3   OH221124   7.768   2.104   3.939
 7060TIP3    H121125   7.753   2.076   3.849
 7060TIP3    H221126   7.770   2.023   3.990
 7061TIP3   OH221127   7.326   3.362   3.332
 7061TIP3    H121128   7.280   3.396   3.409
 7061TIP3    H221129   7.283   3.404   3.258
 7062TIP3   OH221130   7.524   3.896   4.397
 7062TIP3    H121131   7.602   3.901   4.451
 7062TIP3    H221132   7.507   3.802   4.387
 7063TIP3   OH221133   7.967   3.830   4.436
 7063TIP3    H121134   8.047   3.792   4.472
 7063TIP3    H221135   7.944   3.774   4.362
 7064TIP3   OH221136   7.930   3.416   2.567
 7064TIP3    H121137   7.869   3.354   2.607
 7064TIP3    H221138   8.017   3.381   2.586
 7065TIP3   OH221139   7.620   3.285   4.599
 7065TIP3    H121140   7.640   3.191   4.603
 7065TIP3    H221141   7.535   3.289   4.556
 7066TIP3   OH221142   7.617   2.912   2.794
 7066TIP3    H121143   7.667   2.882   2.870
 7066TIP3    H221144   7.684   2.926   2.727
 7067TIP3   OH221145   8.128   3.282   4.379
 7067TIP3    H121146   8.099   3.327   4.300
 7067TIP3    H221147   8.185   3.212   4.347
 7068TIP3   OH221148   8.066   3.018   2.567
 7068TIP3    H121149   8.102   3.050   2.649
 7068TIP3    H221150   7.974   3.000   2.586
 7069TIP3   OH221151   7.752   3.029   4.591
 7069TIP3    H121152   7.814   2.963   4.561
 7069TIP3    H221153   7.787   3.058   4.675
 7070TIP3   OH221154   7.786   2.826   3.003
 7070TIP3    H121155   7.753   2.794   3.087
 7070TIP3    H221156   7.826   2.749   2.962
 7071TIP3   OH221157   8.057   2.922   4.255
 7071TIP3    H121158   7.976   2.971   4.264
 7071TIP3    H221159   8.085   2.938   4.165
 7072TIP3   OH221160   7.908   2.621   2.863
 7072TIP3    H121161   7.882   2.634   2.772
 7072TIP3    H221162   7.999   2.593   2.859
 7073TIP3   OH221163   8.189   2.742   4.409
 7073TIP3    H121164   8.147   2.656   4.399
 7073TIP3    H221165   8.146   2.797   4.344
 7074TIP3   OH221166   8.208   2.434   4.193
 7074TIP3    H121167   8.216   2.518   4.148
 7074TIP3    H221168   8.136   2.389   4.148
 7075TIP3   OH221169   8.176   2.999   4.024
 7075TIP3    H121170   8.270   3.018   4.027
 7075TIP3    H221171   8.137   3.074   3.979
 7076TIP3   OH221172   7.928   2.794   4.529
 7076TIP3    H121173   7.916   2.716   4.582
 7076TIP3    H221174   7.994   2.770   4.464
 7077TIP3   OH221175   7.902   2.557   4.676
 7077TIP3    H121176   7.904   2.469   4.637
 7077TIP3    H221177   7.952   2.548   4.757
 7078TIP3   OH221178   7.749   3.692   2.771
 7078TIP3    H121179   7.842   3.707   2.751
 7078TIP3    H221180   7.702   3.732   2.697
 7079TIP3   OH221181   7.217   3.091   2.961
 7079TIP3    H121182   7.311   3.105   2.954
 7079TIP3    H221183   7.203   3.004   2.922
 7080TIP3   OH221184   7.125   3.679   3.415
 7080TIP3    H121185   7.061   3.625   3.368
 7080TIP3    H221186   7.170   3.617   3.472
 7081TIP3   OH221187   7.267   3.510   3.583
 7081TIP3    H121188   7.258   3.441   3.649
 7081TIP3    H221189   7.317   3.578   3.627
 7082TIP3   OH221190   7.432   2.939   3.962
 7082TIP3    H121191   7.425   2.911   3.871
 7082TIP3    H221192   7.525   2.936   3.981
 7083TIP3   OH221193   7.643   2.620   4.617
 7083TIP3    H121194   7.737   2.611   4.633
 7083TIP3    H221195   7.606   2.539   4.652
 7084TIP3   OH221196   7.608   2.326   3.974
 7084TIP3    H121197   7.662   2.247   3.969
 7084TIP3    H221198   7.670   2.398   3.966
 7085TIP3   OH221199   7.418   2.606   4.017
 7085TIP3    H121200   7.461   2.594   3.933
 7085TIP3    H221201   7.443   2.694   4.045
 7086TIP3   OH221202   7.407   2.089   3.516
 7086TIP3    H121203   7.321   2.085   3.559
 7086TIP3    H221204   7.394   2.150   3.444
 7087TIP3   OH221205   7.634   2.186   4.358
 7087TIP3    H121206   7.578   2.168   4.433
 7087TIP3    H221207   7.575   2.224   4.293
 7088TIP3   OH221208   7.659   3.622   4.424
 7088TIP3    H121209   7.567   3.602   4.410
 7088TIP3    H221210   7.674   3.605   4.517
 7089TIP3   OH221211   7.849   3.656   3.966
 7089TIP3    H121212   7.784   3.716   3.927
 7089TIP3    H221213   7.929   3.673   3.917
 7090TIP3   OH221214   8.209   3.849   4.143
 7090TIP3    H121215   8.279   3.811   4.195
 7090TIP3    H221216   8.254   3.895   4.071
 7091TIP3   OH221217   0.071   4.111   3.983
 7091TIP3    H121218   0.067   4.113   3.887
 7091TIP3    H221219   0.062   4.202   4.009
 7092TIP3   OH221220   7.519   3.900   4.016
 7092TIP3    H121221   7.429   3.924   3.997
 7092TIP3    H221222   7.549   3.966   4.078
 7093TIP3   OH221223   7.718   3.858   3.836
 7093TIP3    H121224   7.637   3.870   3.885
 7093TIP3    H221225   7.701   3.898   3.750
 7094TIP3   OH221226   8.123   3.962   3.674
 7094TIP3    H121227   8.044   3.973   3.622
 7094TIP3    H221228   8.122   4.035   3.735
 7095TIP3   OH221229   8.360   3.814   3.707
 7095TIP3    H121230   8.296   3.880   3.680
 7095TIP3    H221231   8.419   3.805   3.632
 7096TIP3   OH221232   7.437   3.693   3.736
 7096TIP3    H121233   7.463   3.666   3.824
 7096TIP3    H221234   7.504   3.657   3.678
 7097TIP3   OH221235   7.629   3.570   3.594
 7097TIP3    H121236   7.648   3.486   3.636
 7097TIP3    H221237   7.712   3.616   3.594
 7098TIP3   OH221238   7.879   3.696   3.599
 7098TIP3    H121239   7.902   3.605   3.578
 7098TIP3    H221240   7.924   3.713   3.682
 7099TIP3   OH221241   7.707   2.009   3.685
 7099TIP3    H121242   7.619   1.973   3.698
 7099TIP3    H221243   7.765   1.933   3.689
 7100TIP3   OH221244   7.540   1.907   3.344
 7100TIP3    H121245   7.557   1.966   3.271
 7100TIP3    H221246   7.498   1.961   3.410
 7101TIP3   OH221247   7.207   3.487   3.120
 7101TIP3    H121248   7.124   3.453   3.087
 7101TIP3    H221249   7.213   3.576   3.086
 7102TIP3   OH221250   7.621   2.053   3.120
 7102TIP3    H121251   7.669   1.994   3.062
 7102TIP3    H221252   7.687   2.115   3.150
 7103TIP3   OH221253   8.020   3.657   2.667
 7103TIP3    H121254   8.072   3.614   2.735
 7103TIP3    H221255   7.974   3.585   2.623
 7104TIP3   OH221256   7.912   2.282   4.584
 7104TIP3    H121257   7.878   2.212   4.640
 7104TIP3    H221258   8.005   2.288   4.607
 7105TIP3   OH221259   8.154   2.275   4.713
 7105TIP3    H121260   8.247   2.277   4.689
 7105TIP3    H221261   8.148   2.205   4.779
 7106TIP3   OH221262   7.315   3.483   2.772
 7106TIP3    H121263   7.322   3.497   2.866
 7106TIP3    H221264   7.397   3.439   2.748
 7107TIP3   OH221265   0.870   3.822   4.952
 7107TIP3    H121266   0.838   3.910   4.930
 7107TIP3    H221267   0.798   3.764   4.929
 7108TIP3   OH221268   0.889   3.815   5.356
 7108TIP3    H121269   0.929   3.799   5.441
 7108TIP3    H221270   0.841   3.735   5.336
 7109TIP3   OH221271   0.193   3.730   5.612
 7109TIP3    H121272   0.127   3.698   5.673
 7109TIP3    H221273   0.269   3.750   5.667
 7110TIP3   OH221274   1.124   4.136   5.035
 7110TIP3    H121275   1.118   4.069   5.103
 7110TIP3    H221276   1.149   4.216   5.082
 7111TIP3   OH221277   0.124   4.143   5.303
 7111TIP3    H121278   0.123   4.047   5.311
 7111TIP3    H221279   0.187   4.172   5.370
 7112TIP3   OH221280   8.403   3.607   5.354
 7112TIP3    H121281   8.355   3.561   5.423
 7112TIP3    H221282   8.494   3.582   5.368
 7113TIP3   OH221283   0.801   4.564   5.067
 7113TIP3    H121284   0.815   4.506   4.993
 7113TIP3    H221285   0.811   4.508   5.144
 7114TIP3   OH221286   0.742   4.047   5.372
 7114TIP3    H121287   0.789   3.966   5.349
 7114TIP3    H221288   0.811   4.107   5.399
 7115TIP3   OH221289   1.691   3.365   5.388
 7115TIP3    H121290   1.705   3.447   5.436
 7115TIP3    H221291   1.736   3.378   5.305
 7116TIP3   OH221292   1.072   3.527   5.446
 7116TIP3    H121293   1.108   3.439   5.460
 7116TIP3    H221294   1.050   3.530   5.354
 7117TIP3   OH221295   0.455   3.201   5.344
 7117TIP3    H121296   0.431   3.274   5.288
 7117TIP3    H221297   0.399   3.129   5.315
 7118TIP3   OH221298   1.131   3.307   5.011
 7118TIP3    H121299   1.200   3.295   5.077
 7118TIP3    H221300   1.177   3.340   4.934
 7119TIP3   OH221301   0.075   3.396   5.545
 7119TIP3    H121302   0.156   3.344   5.550
 7119TIP3    H221303   0.095   3.466   5.483
 7120TIP3   OH221304   0.537   3.617   5.232
 7120TIP3    H121305   0.623   3.590   5.264
 7120TIP3    H221306   0.491   3.535   5.214
 7121TIP3   OH221307   1.737   3.574   5.569
 7121TIP3    H121308   1.668   3.635   5.544
 7121TIP3    H221309   1.796   3.626   5.624
 7122TIP3   OH221310   0.447   3.202   5.801
 7122TIP3    H121311   0.397   3.250   5.735
 7122TIP3    H221312   0.413   3.233   5.885
 7123TIP3   OH221313   0.739   4.023   4.819
 7123TIP3    H121314   0.743   4.018   4.723
 7123TIP3    H221315   0.704   4.110   4.837
 7124TIP3   OH221316   0.560   3.962   5.555
 7124TIP3    H121317   0.523   4.026   5.616
 7124TIP3    H221318   0.627   4.011   5.507
 7125TIP3   OH221319   1.326   3.308   5.214
 7125TIP3    H121320   1.406   3.263   5.188
 7125TIP3    H221321   1.354   3.395   5.241
 7126TIP3   OH221322   0.329   3.293   5.568
 7126TIP3    H121323   0.370   3.377   5.588
 7126TIP3    H221324   0.379   3.260   5.493
 7127TIP3   OH221325   0.408   4.150   5.699
 7127TIP3    H121326   0.377   4.177   5.612
 7127TIP3    H221327   0.333   4.105   5.738
 7128TIP3   OH221328   1.164   4.383   5.176
 7128TIP3    H121329   1.074   4.379   5.207
 7128TIP3    H221330   1.170   4.467   5.130
 7129TIP3   OH221331   1.472   3.272   5.554
 7129TIP3    H121332   1.388   3.285   5.508
 7129TIP3    H221333   1.538   3.296   5.489
 7130TIP3   OH221334   0.763   2.885   5.535
 7130TIP3    H121335   0.758   2.793   5.562
 7130TIP3    H221336   0.687   2.926   5.576
 7131TIP3   OH221337   0.881   4.418   4.841
 7131TIP3    H121338   0.931   4.337   4.829
 7131TIP3    H221339   0.940   4.487   4.809
 7132TIP3   OH221340   1.020   4.193   4.785
 7132TIP3    H121341   1.038   4.121   4.725
 7132TIP3    H221342   1.059   4.165   4.868
 7133TIP3   OH221343   1.405   4.275   5.525
 7133TIP3    H121344   1.393   4.201   5.465
 7133TIP3    H221345   1.388   4.353   5.472
 7134TIP3   OH221346   0.691   3.675   4.791
 7134TIP3    H121347   0.623   3.741   4.776
 7134TIP3    H221348   0.741   3.673   4.709
 7135TIP3   OH221349   0.671   3.475   4.485
 7135TIP3    H121350   0.736   3.527   4.533
 7135TIP3    H221351   0.724   3.410   4.437
 7136TIP3   OH221352   1.590   3.927   5.379
 7136TIP3    H121353   1.509   3.978   5.378
 7136TIP3    H221354   1.631   3.947   5.295
 7137TIP3   OH221355   1.050   3.771   4.753
 7137TIP3    H121356   0.996   3.792   4.829
 7137TIP3    H221357   1.134   3.745   4.790
 7138TIP3   OH221358   1.291   3.799   5.687
 7138TIP3    H121359   1.288   3.878   5.742
 7138TIP3    H221360   1.210   3.802   5.637
 7139TIP3   OH221361   0.300   3.739   5.188
 7139TIP3    H121362   0.268   3.703   5.105
 7139TIP3    H221363   0.390   3.707   5.195
 7140TIP3   OH221364   0.489   4.017   5.271
 7140TIP3    H121365   0.451   3.986   5.354
 7140TIP3    H221366   0.582   4.026   5.290
 7141TIP3   OH221367   0.460   3.718   5.477
 7141TIP3    H121368   0.497   3.707   5.389
 7141TIP3    H221369   0.491   3.804   5.506
 7142TIP3   OH221370   0.919   4.380   5.303
 7142TIP3    H121371   0.930   4.460   5.353
 7142TIP3    H221372   0.929   4.310   5.367
 7143TIP3   OH221373   0.584   4.277   5.865
 7143TIP3    H121374   0.546   4.365   5.860
 7143TIP3    H221375   0.522   4.222   5.818
 7144TIP3   OH221376   0.883   3.628   4.587
 7144TIP3    H121377   0.943   3.685   4.635
 7144TIP3    H221378   0.910   3.635   4.496
 7145TIP3   OH221379   0.267   3.837   5.991
 7145TIP3    H121380   0.299   3.923   6.016
 7145TIP3    H221381   0.172   3.850   5.978
 7146TIP3   OH221382   0.645   4.283   4.811
 7146TIP3    H121383   0.726   4.331   4.827
 7146TIP3    H221384   0.580   4.324   4.868
 7147TIP3   OH221385   0.294   4.590   5.939
 7147TIP3    H121386   0.333   4.551   5.861
 7147TIP3    H221387   0.279   4.516   5.998
 7148TIP3   OH221388   1.393   2.850   4.639
 7148TIP3    H121389   1.318   2.875   4.692
 7148TIP3    H221390   1.408   2.925   4.582
 7149TIP3   OH221391   0.189   3.609   4.963
 7149TIP3    H121392   0.117   3.672   4.964
 7149TIP3    H221393   0.146   3.524   4.966
 7150TIP3   OH221394   1.215   4.223   4.195
 7150TIP3    H121395   1.212   4.315   4.170
 7150TIP3    H221396   1.303   4.195   4.174
 7151TIP3   OH221397   0.770   4.399   5.696
 7151TIP3    H121398   0.767   4.491   5.722
 7151TIP3    H221399   0.702   4.357   5.749
 7152TIP3   OH221400   0.501   4.506   4.652
 7152TIP3    H121401   0.477   4.503   4.559
 7152TIP3    H221402   0.499   4.599   4.675
 7153TIP3   OH221403   0.743   4.451   4.303
 7153TIP3    H121404   0.791   4.376   4.267
 7153TIP3    H221405   0.774   4.458   4.393
 7154TIP3   OH221406   0.770   4.481   4.579
 7154TIP3    H121407   0.681   4.476   4.615
 7154TIP3    H221408   0.826   4.449   4.650
 7155TIP3   OH221409   1.515   3.740   5.861
 7155TIP3    H121410   1.441   3.761   5.804
 7155TIP3    H221411   1.527   3.645   5.851
 7156TIP3   OH221412   0.534   2.978   5.662
 7156TIP3    H121413   0.450   2.942   5.635
 7156TIP3    H221414   0.511   3.061   5.705
 7157TIP3   OH221415   1.087   3.176   5.885
 7157TIP3    H121416   1.151   3.118   5.927
 7157TIP3    H221417   1.004   3.129   5.894
 7158TIP3   OH221418   1.221   3.500   5.771
 7158TIP3    H121419   1.279   3.551   5.826
 7158TIP3    H221420   1.231   3.537   5.683
 7159TIP3   OH221421   0.959   3.624   4.326
 7159TIP3    H121422   0.917   3.620   4.240
 7159TIP3    H221423   1.044   3.666   4.308
 7160TIP3   OH221424   0.667   3.031   4.636
 7160TIP3    H121425   0.634   3.035   4.725
 7160TIP3    H221426   0.637   2.946   4.603
 7161TIP3   OH221427   0.464   3.511   5.651
 7161TIP3    H121428   0.433   3.541   5.737
 7161TIP3    H221429   0.456   3.589   5.595
 7162TIP3   OH221430   0.371   3.401   5.178
 7162TIP3    H121431   0.283   3.380   5.209
 7162TIP3    H221432   0.374   3.368   5.089
 7163TIP3   OH221433   0.828   3.479   4.931
 7163TIP3    H121434   0.776   3.548   4.889
 7163TIP3    H221435   0.885   3.447   4.862
 7164TIP3   OH221436   1.033   3.737   5.989
 7164TIP3    H121437   0.993   3.674   6.049
 7164TIP3    H221438   1.123   3.747   6.021
 7165TIP3   OH221439   0.992   3.492   5.170
 7165TIP3    H121440   0.927   3.524   5.107
 7165TIP3    H221441   1.033   3.418   5.127
 7166TIP3   OH221442   0.350   3.570   5.893
 7166TIP3    H121443   0.325   3.612   5.975
 7166TIP3    H221444   0.284   3.502   5.880
 7167TIP3   OH221445   0.347   3.006   4.615
 7167TIP3    H121446   0.335   3.014   4.709
 7167TIP3    H221447   0.275   3.057   4.577
 7168TIP3   OH221448   8.385   3.029   5.492
 7168TIP3    H121449   8.463   3.069   5.530
 7168TIP3    H221450   8.413   2.998   5.406
 7169TIP3   OH221451   8.400   3.169   5.087
 7169TIP3    H121452   8.441   3.154   5.001
 7169TIP3    H221453   8.319   3.216   5.068
 7170TIP3   OH221454   1.012   3.745   5.600
 7170TIP3    H121455   1.030   3.664   5.553
 7170TIP3    H221456   0.995   3.718   5.690
 7171TIP3   OH221457   0.715   3.188   5.246
 7171TIP3    H121458   0.633   3.191   5.295
 7171TIP3    H221459   0.782   3.177   5.313
 7172TIP3   OH221460   0.145   3.257   5.228
 7172TIP3    H121461   0.050   3.254   5.224
 7172TIP3    H221462   0.173   3.166   5.223
 7173TIP3   OH221463   0.366   3.276   4.933
 7173TIP3    H121464   0.460   3.289   4.921
 7173TIP3    H221465   0.329   3.295   4.847
 7174TIP3   OH221466   1.167   3.269   5.448
 7174TIP3    H121467   1.093   3.209   5.449
 7174TIP3    H221468   1.206   3.257   5.362
 7175TIP3   OH221469   0.222   3.297   4.692
 7175TIP3    H121470   0.179   3.249   4.621
 7175TIP3    H221471   0.286   3.353   4.647
 7176TIP3   OH221472   0.326   4.093   6.054
 7176TIP3    H121473   0.408   4.072   6.100
 7176TIP3    H221474   0.262   4.105   6.124
 7177TIP3   OH221475   0.774   3.550   5.355
 7177TIP3    H121476   0.843   3.503   5.309
 7177TIP3    H221477   0.777   3.515   5.444
 7178TIP3   OH221478   0.285   3.007   5.241
 7178TIP3    H121479   0.244   2.940   5.296
 7178TIP3    H221480   0.331   2.958   5.173
 7179TIP3   OH221481   0.735   3.494   5.644
 7179TIP3    H121482   0.640   3.485   5.635
 7179TIP3    H221483   0.749   3.585   5.668
 7180TIP3   OH221484   0.475   3.867   4.727
 7180TIP3    H121485   0.419   3.790   4.719
 7180TIP3    H221486   0.460   3.897   4.816
 7181TIP3   OH221487   1.355   4.072   5.343
 7181TIP3    H121488   1.392   4.120   5.269
 7181TIP3    H221489   1.276   4.031   5.307
 7182TIP3   OH221490   0.922   3.131   4.643
 7182TIP3    H121491   0.829   3.112   4.636
 7182TIP3    H221492   0.927   3.226   4.651
 7183TIP3   OH221493   0.878   4.136   5.748
 7183TIP3    H121494   0.915   4.124   5.835
 7183TIP3    H221495   0.842   4.225   5.750
 7184TIP3   OH221496   0.985   3.396   4.712
 7184TIP3    H121497   1.080   3.399   4.721
 7184TIP3    H221498   0.963   3.472   4.658
 7185TIP3   OH221499   0.185   3.892   5.390
 7185TIP3    H121500   0.231   3.843   5.322
 7185TIP3    H221501   0.203   3.843   5.470
 7186TIP3   OH221502   0.647   3.984   4.547
 7186TIP3    H121503   0.608   4.071   4.546
 7186TIP3    H221504   0.595   3.935   4.610
 7187TIP3   OH221505   0.817   3.910   6.033
 7187TIP3    H121506   0.747   3.847   6.017
 7187TIP3    H221507   0.897   3.865   6.005
 7188TIP3   OH221508   1.039   4.451   5.633
 7188TIP3    H121509   0.947   4.425   5.635
 7188TIP3    H221510   1.056   4.488   5.719
 7189TIP3   OH221511   1.392   3.487   4.535
 7189TIP3    H121512   1.336   3.440   4.474
 7189TIP3    H221513   1.400   3.575   4.498
 7190TIP3   OH221514   1.656   4.314   5.628
 7190TIP3    H121515   1.562   4.326   5.615
 7190TIP3    H221516   1.691   4.301   5.539
 7191TIP3   OH221517   1.131   4.298   4.452
 7191TIP3    H121518   1.112   4.222   4.507
 7191TIP3    H221519   1.157   4.260   4.368
 7192TIP3   OH221520   1.127   3.936   5.241
 7192TIP3    H121521   1.039   3.912   5.270
 7192TIP3    H221522   1.161   3.855   5.201
 7193TIP3   OH221523   0.198   4.134   5.019
 7193TIP3    H121524   0.250   4.173   4.949
 7193TIP3    H221525   0.140   4.205   5.048
 7194TIP3   OH221526   8.255   3.516   4.731
 7194TIP3    H121527   8.331   3.529   4.789
 7194TIP3    H221528   8.223   3.429   4.754
 7195TIP3   OH221529   0.383   3.927   4.976
 7195TIP3    H121530   0.324   4.001   4.991
 7195TIP3    H221531   0.398   3.891   5.064
 7196TIP3   OH221532   0.590   4.474   5.476
 7196TIP3    H121533   0.633   4.547   5.431
 7196TIP3    H221534   0.659   4.435   5.529
 7197TIP3   OH221535   0.169   4.434   4.876
 7197TIP3    H121536   0.137   4.423   4.965
 7197TIP3    H221537   0.215   4.518   4.876
 7198TIP3   OH221538   0.960   4.166   5.485
 7198TIP3    H121539   0.933   4.151   5.576
 7198TIP3    H221540   1.052   4.139   5.483
 7199TIP3   OH221541   0.903   4.034   4.379
 7199TIP3    H121542   0.963   4.021   4.452
 7199TIP3    H221543   0.816   4.012   4.414
 7200TIP3   OH221544   1.171   4.689   5.532
 7200TIP3    H121545   1.123   4.610   5.555
 7200TIP3    H221546   1.131   4.721   5.452
 7201TIP3   OH221547   1.222   4.493   4.146
 7201TIP3    H121548   1.242   4.551   4.072
 7201TIP3    H221549   1.153   4.538   4.194
 7202TIP3   OH221550   0.322   3.266   6.033
 7202TIP3    H121551   0.229   3.264   6.010
 7202TIP3    H221552   0.329   3.210   6.110
 7203TIP3   OH221553   1.080   3.992   4.588
 7203TIP3    H121554   1.061   3.916   4.643
 7203TIP3    H221555   1.173   3.984   4.567
 7204TIP3   OH221556   0.266   4.007   4.332
 7204TIP3    H121557   0.282   3.917   4.306
 7204TIP3    H221558   0.260   4.004   4.427
 7205TIP3   OH221559   0.293   4.046   4.603
 7205TIP3    H121560   0.340   3.973   4.644
 7205TIP3    H221561   0.362   4.106   4.573
 7206TIP3   OH221562   8.409   3.725   4.839
 7206TIP3    H121563   8.339   3.717   4.903
 7206TIP3    H221564   8.465   3.794   4.874
 7207TIP3   OH221565   0.985   3.086   4.910
 7207TIP3    H121566   0.964   3.104   4.819
 7207TIP3    H221567   1.026   3.167   4.942
 7208TIP3   OH221568   0.505   4.216   4.571
 7208TIP3    H121569   0.540   4.253   4.652
 7208TIP3    H221570   0.499   4.290   4.511
 7209TIP3   OH221571   0.645   3.282   4.992
 7209TIP3    H121572   0.706   3.352   4.969
 7209TIP3    H221573   0.665   3.262   5.084
 7210TIP3   OH221574   0.799   2.978   5.084
 7210TIP3    H121575   0.776   3.055   5.136
 7210TIP3    H221576   0.868   3.009   5.025
 7211TIP3   OH221577   0.157   4.319   4.626
 7211TIP3    H121578   0.179   4.372   4.550
 7211TIP3    H221579   0.146   4.381   4.698
 7212TIP3   OH221580   0.318   3.001   4.892
 7212TIP3    H121581   0.301   3.089   4.927
 7212TIP3    H221582   0.413   2.990   4.897
 7213TIP3   OH221583   1.532   3.481   5.744
 7213TIP3    H121584   1.497   3.404   5.698
 7213TIP3    H221585   1.606   3.509   5.690
 7214TIP3   OH221586   1.210   3.677   5.155
 7214TIP3    H121587   1.135   3.619   5.167
 7214TIP3    H221588   1.279   3.637   5.207
 7215TIP3   OH221589   0.019   3.967   4.681
 7215TIP3    H121590   0.060   3.900   4.626
 7215TIP3    H221591  -0.073   3.944   4.682
 7216TIP3   OH221592   0.009   3.158   4.835
 7216TIP3    H121593   0.085   3.204   4.799
 7216TIP3    H221594  -0.047   3.141   4.759
 7217TIP3   OH221595   1.199   4.646   5.091
 7217TIP3    H121596   1.153   4.695   5.023
 7217TIP3    H221597   1.291   4.670   5.079
 7218TIP3   OH221598   0.280   2.882   5.617
 7218TIP3    H121599   0.247   2.848   5.534
 7218TIP3    H221600   0.270   2.809   5.679
 7219TIP3   OH221601   0.541   4.694   6.000
 7219TIP3    H121602   0.566   4.707   6.092
 7219TIP3    H221603   0.455   4.651   6.005
 7220TIP3   OH221604   0.430   4.208   4.242
 7220TIP3    H121605   0.378   4.135   4.276
 7220TIP3    H221606   0.505   4.166   4.200
 7221TIP3   OH221607   1.091   4.554   5.881
 7221TIP3    H121608   1.092   4.482   5.943
 7221TIP3    H221609   1.172   4.602   5.898
 7222TIP3   OH221610   0.859   4.233   4.184
 7222TIP3    H121611   0.897   4.170   4.244
 7222TIP3    H221612   0.915   4.230   4.106
 7223TIP3   OH221613   0.143   3.774   4.524
 7223TIP3    H121614   0.193   3.726   4.590
 7223TIP3    H221615   0.189   3.759   4.442
 7224TIP3   OH221616   0.734   4.176   6.070
 7224TIP3    H121617   0.686   4.195   5.990
 7224TIP3    H221618   0.767   4.087   6.058
 7225TIP3   OH221619   0.594   3.911   4.286
 7225TIP3    H121620   0.608   3.925   4.379
 7225TIP3    H221621   0.599   3.816   4.274
 7226TIP3   OH221622   1.187   4.212   5.674
 7226TIP3    H121623   1.268   4.236   5.629
 7226TIP3    H221624   1.129   4.287   5.661
 7227TIP3   OH221625   0.322   3.781   6.280
 7227TIP3    H121626   0.245   3.779   6.223
 7227TIP3    H221627   0.295   3.837   6.354
 7228TIP3   OH221628   0.313   3.654   4.713
 7228TIP3    H121629   0.281   3.627   4.799
 7228TIP3    H221630   0.340   3.573   4.671
 7229TIP3   OH221631   0.626   3.722   5.962
 7229TIP3    H121632   0.557   3.782   5.992
 7229TIP3    H221633   0.634   3.741   5.868
 7230TIP3   OH221634   0.401   3.448   4.548
 7230TIP3    H121635   0.373   3.460   4.458
 7230TIP3    H221636   0.497   3.451   4.544
 7231TIP3   OH221637   1.072   4.095   6.033
 7231TIP3    H121638   1.140   4.054   5.980
 7231TIP3    H221639   1.063   4.038   6.110
 7232TIP3   OH221640   1.183   3.744   4.216
 7232TIP3    H121641   1.172   3.701   4.131
 7232TIP3    H221642   1.155   3.834   4.201
 7233TIP3   OH221643   0.693   3.475   6.053
 7233TIP3    H121644   0.687   3.405   5.988
 7233TIP3    H221645   0.663   3.553   6.005
 7234TIP3   OH221646   0.707   3.287   5.838
 7234TIP3    H121647   0.726   3.349   5.767
 7234TIP3    H221648   0.618   3.258   5.821
 7235TIP3   OH221649   0.715   3.768   5.697
 7235TIP3    H121650   0.786   3.827   5.674
 7235TIP3    H221651   0.635   3.812   5.667
 7236TIP3   OH221652   1.286   3.756   6.115
 7236TIP3    H121653   1.330   3.686   6.164
 7236TIP3    H221654   1.357   3.811   6.082
 7237TIP3   OH221655   1.305   4.033   5.842
 7237TIP3    H121656   1.252   4.095   5.792
 7237TIP3    H221657   1.394   4.049   5.811
 7238TIP3   OH221658   0.582   3.576   6.294
 7238TIP3    H121659   0.532   3.495   6.307
 7238TIP3    H221660   0.609   3.573   6.203
 7239TIP3   OH221661   0.833   3.051   5.906
 7239TIP3    H121662   0.788   3.133   5.888
 7239TIP3    H221663   0.763   2.986   5.913
 7240TIP3   OH221664   0.932   3.546   6.165
 7240TIP3    H121665   0.921   3.536   6.260
 7240TIP3    H221666   0.847   3.518   6.128
 7241TIP3   OH221667   1.148   3.427   6.047
 7241TIP3    H121668   1.080   3.464   6.103
 7241TIP3    H221669   1.229   3.435   6.099
 7242TIP3   OH221670   1.403   3.435   6.160
 7242TIP3    H121671   1.419   3.342   6.176
 7242TIP3    H221672   1.397   3.474   6.247
 7243TIP3   OH221673   0.452   3.339   6.342
 7243TIP3    H121674   0.443   3.257   6.294
 7243TIP3    H221675   0.470   3.311   6.432
 7244TIP3   OH221676   0.875   3.038   6.194
 7244TIP3    H121677   0.944   2.971   6.192
 7244TIP3    H221678   0.848   3.046   6.102
 7245TIP3   OH221679   0.967   3.251   6.345
 7245TIP3    H121680   0.932   3.182   6.289
 7245TIP3    H221681   0.894   3.313   6.354
 7246TIP3   OH221682   0.225   4.501   4.437
 7246TIP3    H121683   0.317   4.477   4.424
 7246TIP3    H221684   0.198   4.540   4.354
 7247TIP3   OH221685   1.447   4.760   5.061
 7247TIP3    H121686   1.467   4.847   5.096
 7247TIP3    H221687   1.516   4.743   4.997
 7248TIP3   OH221688   1.528   4.434   5.951
 7248TIP3    H121689   1.456   4.445   6.013
 7248TIP3    H221690   1.568   4.520   5.945
 7249TIP3   OH221691   1.350   3.955   4.547
 7249TIP3    H121692   1.408   4.023   4.513
 7249TIP3    H221693   1.398   3.917   4.620
 7250TIP3   OH221694   1.481   3.819   4.747
 7250TIP3    H121695   1.418   3.779   4.807
 7250TIP3    H221696   1.552   3.850   4.804
 7251TIP3   OH221697   1.532   4.201   5.173
 7251TIP3    H121698   1.588   4.133   5.136
 7251TIP3    H221699   1.540   4.274   5.111
 7252TIP3   OH221700   1.332   4.490   5.378
 7252TIP3    H121701   1.271   4.554   5.416
 7252TIP3    H221702   1.285   4.455   5.302
 7253TIP3   OH221703   1.388   3.725   4.397
 7253TIP3    H121704   1.318   3.725   4.332
 7253TIP3    H221705   1.374   3.805   4.448
 7254TIP3   OH221706   1.231   3.379   4.343
 7254TIP3    H121707   1.195   3.415   4.262
 7254TIP3    H221708   1.226   3.284   4.331
 7255TIP3   OH221709   1.277   3.674   4.884
 7255TIP3    H121710   1.286   3.580   4.870
 7255TIP3    H221711   1.259   3.683   4.977
 7256TIP3   OH221712   1.562   4.079   5.750
 7256TIP3    H121713   1.625   4.010   5.732
 7256TIP3    H221714   1.590   4.153   5.697
 7257TIP3   OH221715   1.729   3.863   5.737
 7257TIP3    H121716   1.660   3.820   5.787
 7257TIP3    H221717   1.808   3.813   5.754
 7258TIP3   OH221718   1.204   3.108   4.308
 7258TIP3    H121719   1.274   3.079   4.367
 7258TIP3    H221720   1.126   3.063   4.340
 7259TIP3   OH221721   1.271   3.394   4.775
 7259TIP3    H121722   1.316   3.310   4.787
 7259TIP3    H221723   1.313   3.433   4.699
 7260TIP3   OH221724   1.422   3.555   5.292
 7260TIP3    H121725   1.502   3.574   5.244
 7260TIP3    H221726   1.435   3.596   5.378
 7261TIP3   OH221727   1.498   3.709   5.515
 7261TIP3    H121728   1.431   3.744   5.573
 7261TIP3    H221729   1.532   3.785   5.468
 7262TIP3   OH221730   0.039   3.428   6.374
 7262TIP3    H121731   0.133   3.442   6.387
 7262TIP3    H221732  -0.000   3.514   6.390
 7263TIP3   OH221733   1.958   3.306   6.057
 7263TIP3    H121734   2.022   3.246   6.020
 7263TIP3    H221735   1.925   3.355   5.981
 7264TIP3   OH221736   1.383   3.145   4.828
 7264TIP3    H121737   1.435   3.127   4.906
 7264TIP3    H221738   1.326   3.069   4.820
 7265TIP3   OH221739   0.129   3.103   5.587
 7265TIP3    H121740   0.178   3.022   5.600
 7265TIP3    H221741   0.196   3.168   5.565
 7266TIP3   OH221742   1.805   3.427   5.865
 7266TIP3    H121743   1.739   3.464   5.923
 7266TIP3    H221744   1.760   3.357   5.818
 7267TIP3   OH221745   1.436   3.050   4.453
 7267TIP3    H121746   1.489   2.990   4.401
 7267TIP3    H221747   1.489   3.129   4.462
 7268TIP3   OH221748   8.411   2.860   5.264
 7268TIP3    H121749   8.330   2.810   5.280
 7268TIP3    H221750   8.404   2.888   5.172
 7269TIP3   OH221751   1.023   4.614   4.724
 7269TIP3    H121752   1.076   4.601   4.645
 7269TIP3    H221753   1.069   4.683   4.772
 7270TIP3   OH221754   8.463   2.999   6.150
 7270TIP3    H121755   8.375   2.961   6.154
 7270TIP3    H221756   8.479   3.013   6.057
 7271TIP3   OH221757   0.261   4.412   5.708
 7271TIP3    H121758   0.286   4.488   5.655
 7271TIP3    H221759   0.332   4.349   5.695
 7272TIP3   OH221760   0.769   4.664   5.770
 7272TIP3    H121761   0.792   4.666   5.863
 7272TIP3    H221762   0.835   4.719   5.728
 7273TIP3   OH221763   0.954   4.835   5.660
 7273TIP3    H121764   1.029   4.787   5.625
 7273TIP3    H221765   0.991   4.895   5.724
 7274TIP3   OH221766   1.715   3.170   5.762
 7274TIP3    H121767   1.627   3.152   5.728
 7274TIP3    H221768   1.762   3.087   5.754
 7275TIP3   OH221769   0.327   4.625   5.544
 7275TIP3    H121770   0.240   4.660   5.558
 7275TIP3    H221771   0.327   4.594   5.454
 7276TIP3   OH221772   0.669   4.695   5.321
 7276TIP3    H121773   0.685   4.707   5.227
 7276TIP3    H221774   0.682   4.782   5.359
 7277TIP3   OH221775   0.931   4.642   5.385
 7277TIP3    H121776   0.837   4.658   5.374
 7277TIP3    H221777   0.973   4.713   5.336
 7278TIP3   OH221778   1.121   4.823   5.284
 7278TIP3    H121779   1.105   4.904   5.236
 7278TIP3    H221780   1.147   4.759   5.218
 7279TIP3   OH221781   0.119   4.372   5.153
 7279TIP3    H121782   0.088   4.299   5.206
 7279TIP3    H221783   0.175   4.423   5.211
 7280TIP3   OH221784   0.380   4.494   5.302
 7280TIP3    H121785   0.391   4.418   5.245
 7280TIP3    H221786   0.455   4.490   5.362
 7281TIP3   OH221787   0.929   3.091   5.402
 7281TIP3    H121788   0.885   3.018   5.446
 7281TIP3    H221789   0.998   3.050   5.349
 7282TIP3   OH221790   1.438   3.012   5.281
 7282TIP3    H121791   1.474   3.052   5.201
 7282TIP3    H221792   1.343   3.022   5.271
 7283TIP3   OH221793   1.549   3.100   5.046
 7283TIP3    H121794   1.612   3.033   5.018
 7283TIP3    H221795   1.594   3.183   5.029
 7284TIP3   OH221796   0.173   2.796   5.378
 7284TIP3    H121797   0.081   2.784   5.357
 7284TIP3    H221798   0.210   2.708   5.378
 7285TIP3   OH221799   0.062   2.658   5.039
 7285TIP3    H121800   0.083   2.709   4.961
 7285TIP3    H221801   0.039   2.723   5.105
 7286TIP3   OH221802   0.640   2.843   5.278
 7286TIP3    H121803   0.693   2.887   5.211
 7286TIP3    H221804   0.683   2.865   5.361
 7287TIP3   OH221805   1.150   2.983   5.265
 7287TIP3    H121806   1.150   2.948   5.176
 7287TIP3    H221807   1.154   2.906   5.322
 7288TIP3   OH221808   1.204   2.931   4.826
 7288TIP3    H121809   1.124   2.978   4.848
 7288TIP3    H221810   1.193   2.844   4.866
 7289TIP3   OH221811   0.132   2.811   4.814
 7289TIP3    H121812   0.178   2.753   4.753
 7289TIP3    H221813   0.197   2.874   4.842
 7290TIP3   OH221814   0.590   3.030   4.902
 7290TIP3    H121815   0.651   2.978   4.955
 7290TIP3    H221816   0.606   3.121   4.928
 7291TIP3   OH221817   0.483   4.430   4.386
 7291TIP3    H121818   0.568   4.458   4.352
 7291TIP3    H221819   0.454   4.362   4.325
 7292TIP3   OH221820   1.171   4.565   4.494
 7292TIP3    H121821   1.163   4.470   4.486
 7292TIP3    H221822   1.134   4.600   4.413
 7293TIP3   OH221823   0.433   3.066   6.255
 7293TIP3    H121824   0.373   3.034   6.323
 7293TIP3    H221825   0.519   3.067   6.298
 7294TIP3   OH221826   0.672   3.082   6.396
 7294TIP3    H121827   0.747   3.055   6.342
 7294TIP3    H221828   0.660   3.011   6.459
 7295TIP3   OH221829   1.468   3.167   6.182
 7295TIP3    H121830   1.483   3.139   6.273
 7295TIP3    H221831   1.555   3.163   6.141
 7296TIP3   OH221832   1.979   3.980   5.191
 7296TIP3    H121833   1.995   3.905   5.248
 7296TIP3    H221834   2.063   4.026   5.187
 7297TIP3   OH221835   1.929   4.360   4.898
 7297TIP3    H121836   1.924   4.264   4.902
 7297TIP3    H221837   2.022   4.379   4.886
 7298TIP3   OH221838   1.627   3.589   4.663
 7298TIP3    H121839   1.594   3.677   4.683
 7298TIP3    H221840   1.553   3.545   4.621
 7299TIP3   OH221841   1.720   3.887   4.883
 7299TIP3    H121842   1.763   3.805   4.908
 7299TIP3    H221843   1.792   3.944   4.855
 7300TIP3   OH221844   2.572   4.833   4.529
 7300TIP3    H121845   2.605   4.756   4.481
 7300TIP3    H221846   2.549   4.799   4.615
 7301TIP3   OH221847   3.506   3.623   4.880
 7301TIP3    H121848   3.527   3.703   4.928
 7301TIP3    H221849   3.552   3.632   4.797
 7302TIP3   OH221850   2.933   3.863   4.907
 7302TIP3    H121851   2.917   3.770   4.894
 7302TIP3    H221852   2.888   3.905   4.834
 7303TIP3   OH221853   2.218   3.515   4.817
 7303TIP3    H121854   2.193   3.606   4.802
 7303TIP3    H221855   2.154   3.464   4.766
 7304TIP3   OH221856   2.930   3.511   4.469
 7304TIP3    H121857   2.985   3.508   4.548
 7304TIP3    H221858   2.976   3.571   4.410
 7305TIP3   OH221859   1.836   3.658   4.987
 7305TIP3    H121860   1.930   3.667   5.005
 7305TIP3    H221861   1.831   3.590   4.920
 7306TIP3   OH221862   3.564   3.838   5.048
 7306TIP3    H121863   3.483   3.887   5.036
 7306TIP3    H221864   3.606   3.879   5.123
 7307TIP3   OH221865   2.219   3.489   5.279
 7307TIP3    H121866   2.176   3.541   5.211
 7307TIP3    H221867   2.160   3.496   5.354
 7308TIP3   OH221868   2.574   4.327   4.322
 7308TIP3    H121869   2.520   4.249   4.304
 7308TIP3    H221870   2.511   4.398   4.334
 7309TIP3   OH221871   2.270   4.204   5.136
 7309TIP3    H121872   2.227   4.289   5.142
 7309TIP3    H221873   2.260   4.178   5.045
 7310TIP3   OH221874   3.089   3.505   4.704
 7310TIP3    H121875   3.028   3.521   4.777
 7310TIP3    H221876   3.146   3.583   4.703
 7311TIP3   OH221877   2.106   3.608   5.054
 7311TIP3    H121878   2.123   3.694   5.018
 7311TIP3    H221879   2.144   3.547   4.991
 7312TIP3   OH221880   2.133   4.445   5.192
 7312TIP3    H121881   2.126   4.533   5.155
 7312TIP3    H221882   2.057   4.436   5.249
 7313TIP3   OH221883   1.516   4.143   4.426
 7313TIP3    H121884   1.489   4.160   4.336
 7313TIP3    H221885   1.544   4.228   4.459
 7314TIP3   OH221886   2.946   4.647   4.712
 7314TIP3    H121887   2.863   4.617   4.748
 7314TIP3    H221888   2.924   4.729   4.667
 7315TIP3   OH221889   3.304   3.506   5.036
 7315TIP3    H121890   3.223   3.553   5.017
 7315TIP3    H221891   3.367   3.541   4.973
 7316TIP3   OH221892   2.554   3.164   5.041
 7316TIP3    H121893   2.537   3.071   5.052
 7316TIP3    H221894   2.478   3.207   5.079
 7317TIP3   OH221895   2.677   4.663   4.314
 7317TIP3    H121896   2.730   4.587   4.290
 7317TIP3    H221897   2.731   4.738   4.292
 7318TIP3   OH221898   2.817   4.411   4.239
 7318TIP3    H121899   2.731   4.379   4.266
 7318TIP3    H221900   2.869   4.408   4.319
 7319TIP3   OH221901   3.216   4.531   5.025
 7319TIP3    H121902   3.171   4.461   4.978
 7319TIP3    H221903   3.190   4.611   4.979
 7320TIP3   OH221904   2.508   3.947   4.264
 7320TIP3    H121905   2.423   3.989   4.253
 7320TIP3    H221906   2.551   3.958   4.179
 7321TIP3   OH221907   2.458   3.737   3.973
 7321TIP3    H121908   2.513   3.770   4.044
 7321TIP3    H221909   2.513   3.674   3.926
 7322TIP3   OH221910   3.364   4.208   4.915
 7322TIP3    H121911   3.279   4.251   4.914
 7322TIP3    H221912   3.397   4.220   4.826
 7323TIP3   OH221913   3.079   4.041   5.173
 7323TIP3    H121914   3.060   4.124   5.217
 7323TIP3    H221915   3.016   4.038   5.100
 7324TIP3   OH221916   2.182   4.436   4.792
 7324TIP3    H121917   2.156   4.414   4.703
 7324TIP3    H221918   2.269   4.396   4.803
 7325TIP3   OH221919   2.347   4.550   5.348
 7325TIP3    H121920   2.283   4.609   5.388
 7325TIP3    H221921   2.295   4.493   5.292
 7326TIP3   OH221922   2.709   3.907   4.060
 7326TIP3    H121923   2.753   3.991   4.073
 7326TIP3    H221924   2.719   3.889   3.966
 7327TIP3   OH221925   2.105   4.098   5.485
 7327TIP3    H121926   2.105   4.193   5.502
 7327TIP3    H221927   2.012   4.076   5.473
 7328TIP3   OH221928   2.421   4.560   4.336
 7328TIP3    H121929   2.505   4.606   4.334
 7328TIP3    H221930   2.363   4.613   4.282
 7329TIP3   OH221931   2.129   4.714   5.416
 7329TIP3    H121932   2.116   4.722   5.322
 7329TIP3    H221933   2.040   4.707   5.452
 7330TIP3   OH221934   3.191   3.114   4.126
 7330TIP3    H121935   3.116   3.136   4.180
 7330TIP3    H221936   3.204   3.190   4.070
 7331TIP3   OH221937   1.947   3.830   4.399
 7331TIP3    H121938   1.860   3.871   4.396
 7331TIP3    H221939   1.961   3.810   4.492
 7332TIP3   OH221940   3.011   4.489   3.684
 7332TIP3    H121941   3.008   4.582   3.663
 7332TIP3    H221942   3.099   4.462   3.658
 7333TIP3   OH221943   1.730   4.252   5.370
 7333TIP3    H121944   1.661   4.231   5.307
 7333TIP3    H221945   1.763   4.168   5.400
 7334TIP3   OH221946   1.625   4.420   5.009
 7334TIP3    H121947   1.711   4.397   4.974
 7334TIP3    H221948   1.642   4.491   5.070
 7335TIP3   OH221949   3.434   4.900   5.075
 7335TIP3    H121950   3.440   4.805   5.084
 7335TIP3    H221951   3.354   4.923   5.123
 7336TIP3   OH221952   2.526   4.696   5.189
 7336TIP3    H121953   2.519   4.781   5.233
 7336TIP3    H221954   2.483   4.635   5.248
 7337TIP3   OH221955   2.314   4.780   4.155
 7337TIP3    H121956   2.266   4.759   4.074
 7337TIP3    H221957   2.277   4.863   4.184
 7338TIP3   OH221958   1.749   4.634   4.539
 7338TIP3    H121959   1.796   4.622   4.621
 7338TIP3    H221960   1.703   4.551   4.526
 7339TIP3   OH221961   2.515   4.708   3.782
 7339TIP3    H121962   2.565   4.634   3.748
 7339TIP3    H221963   2.550   4.722   3.870
 7340TIP3   OH221964   2.567   4.755   4.052
 7340TIP3    H121965   2.481   4.758   4.092
 7340TIP3    H221966   2.625   4.723   4.121
 7341TIP3   OH221967   3.314   4.016   5.363
 7341TIP3    H121968   3.236   4.028   5.309
 7341TIP3    H221969   3.333   3.922   5.357
 7342TIP3   OH221970   1.919   4.448   5.377
 7342TIP3    H121971   1.981   4.414   5.442
 7342TIP3    H221972   1.853   4.379   5.369
 7343TIP3   OH221973   2.311   3.252   5.161
 7343TIP3    H121974   2.226   3.221   5.129
 7343TIP3    H221975   2.293   3.339   5.197
 7344TIP3   OH221976   2.856   3.361   5.346
 7344TIP3    H121977   2.921   3.351   5.415
 7344TIP3    H221978   2.772   3.351   5.391
 7345TIP3   OH221979   3.077   3.776   5.264
 7345TIP3    H121980   3.039   3.774   5.352
 7345TIP3    H221981   3.061   3.865   5.234
 7346TIP3   OH221982   2.759   3.868   3.794
 7346TIP3    H121983   2.717   3.865   3.708
 7346TIP3    H221984   2.840   3.917   3.779
 7347TIP3   OH221985   2.459   3.287   4.119
 7347TIP3    H121986   2.429   3.294   4.210
 7347TIP3    H221987   2.423   3.203   4.088
 7348TIP3   OH221988   2.588   3.706   4.378
 7348TIP3    H121989   2.561   3.795   4.356
 7348TIP3    H221990   2.661   3.688   4.319
 7349TIP3   OH221991   2.817   4.003   5.494
 7349TIP3    H121992   2.789   3.934   5.554
 7349TIP3    H221993   2.910   4.015   5.513
 7350TIP3   OH221994   2.057   3.781   5.374
 7350TIP3    H121995   2.144   3.818   5.385
 7350TIP3    H221996   2.059   3.699   5.424
 7351TIP3   OH221997   2.122   3.264   4.096
 7351TIP3    H121998   2.118   3.267   4.192
 7351TIP3    H221999   2.050   3.320   4.068
 7352TIP3   OH222000   1.683   3.327   4.992
 7352TIP3    H122001   1.746   3.351   5.060
 7352TIP3    H222002   1.720   3.364   4.911
 7353TIP3   OH222003   1.583   3.287   4.477
 7353TIP3    H122004   1.630   3.324   4.402
 7353TIP3    H222005   1.524   3.357   4.504
 7354TIP3   OH222006   2.478   3.433   4.734
 7354TIP3    H122007   2.397   3.462   4.775
 7354TIP3    H222008   2.545   3.450   4.800
 7355TIP3   OH222009   1.831   3.460   4.800
 7355TIP3    H122010   1.778   3.500   4.730
 7355TIP3    H222011   1.901   3.415   4.754
 7356TIP3   OH222012   2.128   3.496   4.449
 7356TIP3    H122013   2.216   3.531   4.457
 7356TIP3    H222014   2.093   3.535   4.369
 7357TIP3   OH222015   2.923   3.561   4.921
 7357TIP3    H122016   2.913   3.581   5.014
 7357TIP3    H222017   2.851   3.502   4.901
 7358TIP3   OH222018   2.032   3.546   4.191
 7358TIP3    H122019   1.966   3.509   4.133
 7358TIP3    H222020   2.088   3.598   4.133
 7359TIP3   OH222021   3.144   5.241   5.174
 7359TIP3    H122022   3.139   5.249   5.078
 7359TIP3    H222023   3.224   5.288   5.198
 7360TIP3   OH222024   2.078   4.360   5.587
 7360TIP3    H122025   2.164   4.376   5.627
 7360TIP3    H222026   2.017   4.356   5.661
 7361TIP3   OH222027   2.044   3.302   4.719
 7361TIP3    H122028   2.026   3.221   4.767
 7361TIP3    H222029   2.078   3.273   4.635
 7362TIP3   OH222030   2.255   4.079   4.226
 7362TIP3    H122031   2.185   4.018   4.205
 7362TIP3    H222032   2.241   4.102   4.318
 7363TIP3   OH222033   3.131   4.335   4.850
 7363TIP3    H122034   3.153   4.363   4.761
 7363TIP3    H222035   3.047   4.291   4.841
 7364TIP3   OH222036   2.713   3.391   4.112
 7364TIP3    H122037   2.619   3.374   4.113
 7364TIP3    H222038   2.721   3.485   4.129
 7365TIP3   OH222039   2.635   4.347   5.256
 7365TIP3    H122040   2.708   4.392   5.299
 7365TIP3    H222041   2.654   4.354   5.163
 7366TIP3   OH222042   2.781   3.656   4.177
 7366TIP3    H122043   2.874   3.649   4.197
 7366TIP3    H222044   2.772   3.741   4.135
 7367TIP3   OH222045   1.948   4.073   4.920
 7367TIP3    H122046   2.030   4.050   4.878
 7367TIP3    H222047   1.955   4.039   5.009
 7368TIP3   OH222048   2.399   4.225   4.045
 7368TIP3    H122049   2.363   4.313   4.056
 7368TIP3    H222050   2.349   4.171   4.107
 7369TIP3   OH222051   1.830   4.041   5.519
 7369TIP3    H122052   1.858   4.030   5.610
 7369TIP3    H222053   1.769   3.969   5.504
 7370TIP3   OH222054   2.592   4.159   5.541
 7370TIP3    H122055   2.536   4.142   5.466
 7370TIP3    H222056   2.676   4.118   5.519
 7371TIP3   OH222057   2.824   4.674   5.080
 7371TIP3    H122058   2.764   4.626   5.024
 7371TIP3    H222059   2.773   4.695   5.158
 7372TIP3   OH222060   3.201   3.746   4.024
 7372TIP3    H122061   3.148   3.697   3.961
 7372TIP3    H222062   3.203   3.836   3.989
 7373TIP3   OH222063   3.461   4.626   5.090
 7373TIP3    H122064   3.369   4.601   5.097
 7373TIP3    H222065   3.489   4.591   5.005
 7374TIP3   OH222066   2.929   4.563   3.945
 7374TIP3    H122067   2.897   4.492   3.999
 7374TIP3    H222068   2.952   4.522   3.862
 7375TIP3   OH222069   2.072   4.409   4.541
 7375TIP3    H122070   2.072   4.486   4.485
 7375TIP3    H222071   1.984   4.372   4.531
 7376TIP3   OH222072   1.617   3.713   4.240
 7376TIP3    H122073   1.667   3.791   4.265
 7376TIP3    H222074   1.541   3.713   4.298
 7377TIP3   OH222075   2.218   4.157   4.484
 7377TIP3    H122076   2.182   4.237   4.522
 7377TIP3    H222077   2.264   4.115   4.557
 7378TIP3   OH222078   2.349   4.752   4.985
 7378TIP3    H122079   2.395   4.816   4.931
 7378TIP3    H222080   2.417   4.715   5.041
 7379TIP3   OH222081   1.984   4.647   4.391
 7379TIP3    H122082   1.898   4.653   4.433
 7379TIP3    H222083   2.019   4.736   4.394
 7380TIP3   OH222084   2.693   4.283   3.843
 7380TIP3    H122085   2.741   4.250   3.920
 7380TIP3    H222086   2.604   4.248   3.854
 7381TIP3   OH222087   2.968   4.902   5.021
 7381TIP3    H122088   2.919   4.826   5.050
 7381TIP3    H222089   2.906   4.950   4.965
 7382TIP3   OH222090   3.016   4.763   3.648
 7382TIP3    H122091   3.055   4.832   3.595
 7382TIP3    H222092   2.940   4.803   3.689
 7383TIP3   OH222093   2.052   3.519   5.507
 7383TIP3    H122094   1.958   3.509   5.519
 7383TIP3    H222095   2.091   3.472   5.580
 7384TIP3   OH222096   2.859   4.202   4.055
 7384TIP3    H122097   2.843   4.271   4.119
 7384TIP3    H222098   2.955   4.197   4.049
 7385TIP3   OH222099   1.768   4.634   5.160
 7385TIP3    H122100   1.817   4.570   5.212
 7385TIP3    H222101   1.797   4.719   5.193
 7386TIP3   OH222102   2.043   4.258   3.849
 7386TIP3    H122103   2.056   4.167   3.822
 7386TIP3    H222104   2.028   4.253   3.944
 7387TIP3   OH222105   1.991   4.273   4.122
 7387TIP3    H122106   2.065   4.241   4.174
 7387TIP3    H222107   1.995   4.368   4.130
 7388TIP3   OH222108   1.708   3.962   4.332
 7388TIP3    H122109   1.646   4.012   4.384
 7388TIP3    H222110   1.735   4.021   4.262
 7389TIP3   OH222111   2.882   3.596   5.191
 7389TIP3    H122112   2.958   3.645   5.222
 7389TIP3    H222113   2.878   3.519   5.249
 7390TIP3   OH222114   2.763   3.320   4.379
 7390TIP3    H122115   2.742   3.344   4.289
 7390TIP3    H222116   2.811   3.395   4.414
 7391TIP3   OH222117   2.268   4.464   4.064
 7391TIP3    H122118   2.183   4.486   4.101
 7391TIP3    H222119   2.288   4.537   4.005
 7392TIP3   OH222120   2.407   3.531   4.480
 7392TIP3    H122121   2.467   3.597   4.445
 7392TIP3    H222122   2.436   3.517   4.570
 7393TIP3   OH222123   2.692   3.778   5.338
 7393TIP3    H122124   2.731   3.861   5.366
 7393TIP3    H222125   2.761   3.736   5.285
 7394TIP3   OH222126   2.586   3.230   4.571
 7394TIP3    H122127   2.562   3.307   4.623
 7394TIP3    H222128   2.652   3.262   4.510
 7395TIP3   OH222129   2.015   4.546   4.137
 7395TIP3    H122130   1.992   4.617   4.077
 7395TIP3    H222131   2.002   4.584   4.224
 7396TIP3   OH222132   2.106   3.236   4.374
 7396TIP3    H122133   2.094   3.326   4.403
 7396TIP3    H222134   2.201   3.222   4.379
 7397TIP3   OH222135   3.347   3.751   5.263
 7397TIP3    H122136   3.252   3.742   5.265
 7397TIP3    H222137   3.368   3.771   5.172
 7398TIP3   OH222138   1.744   4.144   4.118
 7398TIP3    H122139   1.816   4.206   4.129
 7398TIP3    H222140   1.776   4.080   4.054
 7399TIP3   OH222141   1.654   3.436   4.259
 7399TIP3    H122142   1.669   3.530   4.265
 7399TIP3    H222143   1.624   3.422   4.169
 7400TIP3   OH222144   2.976   4.916   4.593
 7400TIP3    H122145   2.939   4.962   4.517
 7400TIP3    H222146   3.070   4.916   4.577
 7401TIP3   OH222147   2.048   3.167   5.118
 7401TIP3    H122148   2.022   3.141   5.029
 7401TIP3    H222149   2.035   3.088   5.171
 7402TIP3   OH222150   1.575   4.411   4.507
 7402TIP3    H122151   1.530   4.446   4.583
 7402TIP3    H222152   1.534   4.454   4.432
 7403TIP3   OH222153   2.242   4.862   5.617
 7403TIP3    H122154   2.332   4.831   5.626
 7403TIP3    H222155   2.207   4.814   5.542
 7404TIP3   OH222156   2.202   4.457   3.741
 7404TIP3    H122157   2.154   4.387   3.785
 7404TIP3    H222158   2.277   4.413   3.700
 7405TIP3   OH222159   2.842   4.799   5.376
 7405TIP3    H122160   2.862   4.725   5.433
 7405TIP3    H222161   2.921   4.853   5.378
 7406TIP3   OH222162   2.645   4.494   3.668
 7406TIP3    H122163   2.677   4.428   3.729
 7406TIP3    H222164   2.703   4.488   3.593
 7407TIP3   OH222165   1.880   4.342   5.783
 7407TIP3    H122166   1.905   4.250   5.794
 7407TIP3    H222167   1.795   4.338   5.739
 7408TIP3   OH222168   1.868   3.957   3.961
 7408TIP3    H122169   1.921   3.932   4.037
 7408TIP3    H222170   1.932   3.971   3.891
 7409TIP3   OH222171   2.502   4.435   5.549
 7409TIP3    H122172   2.472   4.456   5.461
 7409TIP3    H222173   2.553   4.355   5.538
 7410TIP3   OH222174   2.417   4.173   3.780
 7410TIP3    H122175   2.399   4.186   3.873
 7410TIP3    H222176   2.408   4.079   3.767
 7411TIP3   OH222177   2.936   4.406   5.138
 7411TIP3    H122178   2.941   4.500   5.120
 7411TIP3    H222179   2.862   4.376   5.086
 7412TIP3   OH222180   1.996   4.084   5.763
 7412TIP3    H122181   2.071   4.071   5.705
 7412TIP3    H222182   2.036   4.102   5.849
 7413TIP3   OH222183   2.053   3.899   4.160
 7413TIP3    H122184   2.021   3.867   4.244
 7413TIP3    H222185   2.099   3.824   4.122
 7414TIP3   OH222186   2.302   3.924   5.403
 7414TIP3    H122187   2.239   3.989   5.435
 7414TIP3    H222188   2.368   3.975   5.356
 7415TIP3   OH222189   2.183   3.700   4.017
 7415TIP3    H122190   2.156   3.707   3.926
 7415TIP3    H222191   2.278   3.707   4.014
 7416TIP3   OH222192   2.871   4.350   5.535
 7416TIP3    H122193   2.925   4.306   5.470
 7416TIP3    H222194   2.866   4.288   5.608
 7417TIP3   OH222195   2.981   4.009   3.702
 7417TIP3    H122196   2.971   3.964   3.618
 7417TIP3    H222197   2.953   4.099   3.684
 7418TIP3   OH222198   2.454   3.746   5.552
 7418TIP3    H122199   2.474   3.671   5.496
 7418TIP3    H222200   2.411   3.808   5.493
 7419TIP3   OH222201   2.482   3.537   5.359
 7419TIP3    H122202   2.524   3.602   5.304
 7419TIP3    H222203   2.393   3.529   5.324
 7420TIP3   OH222204   2.475   4.121   5.295
 7420TIP3    H122205   2.544   4.184   5.275
 7420TIP3    H222206   2.402   4.146   5.239
 7421TIP3   OH222207   3.081   4.032   5.593
 7421TIP3    H122208   3.133   3.952   5.600
 7421TIP3    H222209   3.145   4.099   5.568
 7422TIP3   OH222210   3.089   4.290   5.330
 7422TIP3    H122211   3.032   4.336   5.269
 7422TIP3    H222212   3.177   4.309   5.300
 7423TIP3   OH222213   2.339   3.833   5.788
 7423TIP3    H122214   2.273   3.765   5.803
 7423TIP3    H222215   2.372   3.815   5.699
 7424TIP3   OH222216   2.595   3.298   5.440
 7424TIP3    H122217   2.557   3.382   5.412
 7424TIP3    H222218   2.526   3.234   5.422
 7425TIP3   OH222219   2.726   3.790   5.644
 7425TIP3    H122220   2.700   3.777   5.735
 7425TIP3    H222221   2.645   3.775   5.594
 7426TIP3   OH222222   2.969   3.733   5.508
 7426TIP3    H122223   2.889   3.741   5.561
 7426TIP3    H222224   3.039   3.720   5.572
 7427TIP3   OH222225   3.203   3.705   5.663
 7427TIP3    H122226   3.215   3.610   5.672
 7427TIP3    H222227   3.196   3.737   5.753
 7428TIP3   OH222228   2.174   3.612   5.850
 7428TIP3    H122229   2.183   3.525   5.812
 7428TIP3    H222230   2.213   3.605   5.937
 7429TIP3   OH222231   2.652   3.294   5.708
 7429TIP3    H122232   2.696   3.210   5.715
 7429TIP3    H222233   2.630   3.303   5.616
 7430TIP3   OH222234   2.750   3.508   5.852
 7430TIP3    H122235   2.719   3.440   5.792
 7430TIP3    H222236   2.682   3.575   5.849
 7431TIP3   OH222237   2.004   4.756   3.953
 7431TIP3    H122238   2.093   4.734   3.926
 7431TIP3    H222239   1.966   4.801   3.878
 7432TIP3   OH222240   1.470   4.133   4.137
 7432TIP3    H122241   1.565   4.147   4.132
 7432TIP3    H222242   1.456   4.047   4.098
 7433TIP3   OH222243   1.375   4.720   4.593
 7433TIP3    H122244   1.312   4.667   4.545
 7433TIP3    H222245   1.419   4.659   4.652
 7434TIP3   OH222246   1.514   4.549   4.762
 7434TIP3    H122247   1.508   4.481   4.828
 7434TIP3    H222248   1.571   4.615   4.801
 7435TIP3   OH222249   3.253   4.952   4.570
 7435TIP3    H122250   3.279   4.979   4.658
 7435TIP3    H222251   3.313   4.998   4.512
 7436TIP3   OH222252   3.289   4.989   4.848
 7436TIP3    H122253   3.238   4.908   4.847
 7436TIP3    H222254   3.360   4.972   4.911
 7437TIP3   OH222255   3.331   4.692   5.428
 7437TIP3    H122256   3.259   4.702   5.490
 7437TIP3    H222257   3.375   4.777   5.429
 7438TIP3   OH222258   3.145   4.215   4.059
 7438TIP3    H122259   3.196   4.278   4.008
 7438TIP3    H222260   3.191   4.210   4.143
 7439TIP3   OH222261   3.350   4.428   4.634
 7439TIP3    H122262   3.320   4.374   4.561
 7439TIP3    H222263   3.348   4.517   4.599
 7440TIP3   OH222264   3.143   4.755   4.871
 7440TIP3    H122265   3.081   4.804   4.924
 7440TIP3    H222266   3.089   4.709   4.806
 7441TIP3   OH222267   3.174   3.989   3.898
 7441TIP3    H122268   3.105   3.994   3.832
 7441TIP3    H222269   3.163   4.067   3.951
 7442TIP3   OH222270   3.046   3.632   3.826
 7442TIP3    H122271   3.004   3.672   3.750
 7442TIP3    H222272   3.036   3.538   3.813
 7443TIP3   OH222273   1.708   3.989   5.139
 7443TIP3    H122274   1.701   3.955   5.050
 7443TIP3    H222275   1.802   3.993   5.156
 7444TIP3   OH222276   3.343   4.342   5.232
 7444TIP3    H122277   3.409   4.278   5.207
 7444TIP3    H222278   3.328   4.394   5.153
 7445TIP3   OH222279   3.523   4.129   5.222
 7445TIP3    H122280   3.452   4.090   5.273
 7445TIP3    H222281   3.600   4.076   5.242
 7446TIP3   OH222282   3.000   3.360   3.785
 7446TIP3    H122283   3.065   3.338   3.852
 7446TIP3    H222284   2.919   3.321   3.816
 7447TIP3   OH222285   3.061   3.635   4.245
 7447TIP3    H122286   3.109   3.554   4.259
 7447TIP3    H222287   3.113   3.682   4.179
 7448TIP3   OH222288   3.320   3.964   5.039
 7448TIP3    H122289   3.232   3.975   5.073
 7448TIP3    H222290   3.342   4.048   4.999
 7449TIP3   OH222291   1.913   3.663   5.774
 7449TIP3    H122292   2.007   3.663   5.793
 7449TIP3    H222293   1.880   3.583   5.813
 7450TIP3   OH222294   3.756   3.556   5.549
 7450TIP3    H122295   3.820   3.499   5.506
 7450TIP3    H222296   3.719   3.609   5.479
 7451TIP3   OH222297   3.190   3.395   4.307
 7451TIP3    H122298   3.238   3.383   4.389
 7451TIP3    H222299   3.124   3.326   4.307
 7452TIP3   OH222300   1.883   3.388   5.174
 7452TIP3    H122301   1.945   3.316   5.160
 7452TIP3    H222302   1.930   3.466   5.144
 7453TIP3   OH222303   1.664   3.649   5.203
 7453TIP3    H122304   1.717   3.640   5.124
 7453TIP3    H222305   1.694   3.731   5.243
 7454TIP3   OH222306   3.608   3.687   5.364
 7454TIP3    H122307   3.535   3.730   5.408
 7454TIP3    H222308   3.566   3.625   5.304
 7455TIP3   OH222309   3.225   3.317   3.942
 7455TIP3    H122310   3.275   3.258   3.886
 7455TIP3    H222311   3.281   3.394   3.952
 7456TIP3   OH222312   1.649   3.118   4.682
 7456TIP3    H122313   1.570   3.128   4.735
 7456TIP3    H222314   1.643   3.188   4.617
 7457TIP3   OH222315   2.816   4.868   4.214
 7457TIP3    H122316   2.873   4.864   4.136
 7457TIP3    H222317   2.854   4.938   4.267
 7458TIP3   OH222318   1.878   3.211   5.528
 7458TIP3    H122319   1.829   3.212   5.610
 7458TIP3    H222320   1.821   3.254   5.465
 7459TIP3   OH222321   1.884   4.667   5.550
 7459TIP3    H122322   1.881   4.584   5.503
 7459TIP3    H222323   1.906   4.642   5.640
 7460TIP3   OH222324   2.121   4.718   5.138
 7460TIP3    H122325   2.075   4.795   5.103
 7460TIP3    H222326   2.207   4.721   5.096
 7461TIP3   OH222327   2.512   4.956   5.296
 7461TIP3    H122328   2.556   4.944   5.381
 7461TIP3    H222329   2.575   5.004   5.243
 7462TIP3   OH222330   2.693   5.101   5.151
 7462TIP3    H122331   2.732   5.049   5.081
 7462TIP3    H222332   2.768   5.143   5.194
 7463TIP3   OH222333   3.506   3.449   5.242
 7463TIP3    H122334   3.429   3.462   5.187
 7463TIP3    H222335   3.530   3.357   5.230
 7464TIP3   OH222336   1.771   4.967   5.183
 7464TIP3    H122337   1.677   4.983   5.168
 7464TIP3    H222338   1.798   5.038   5.242
 7465TIP3   OH222339   2.007   4.947   5.037
 7465TIP3    H122340   1.922   4.955   5.080
 7465TIP3    H222341   1.990   4.970   4.946
 7466TIP3   OH222342   2.441   4.955   4.815
 7466TIP3    H122343   2.364   4.970   4.761
 7466TIP3    H222344   2.453   5.037   4.864
 7467TIP3   OH222345   2.719   4.968   4.905
 7467TIP3    H122346   2.637   4.935   4.868
 7467TIP3    H222347   2.759   5.018   4.834
 7468TIP3   OH222348   2.923   5.115   4.777
 7468TIP3    H122349   2.915   5.195   4.725
 7468TIP3    H222350   2.944   5.047   4.713
 7469TIP3   OH222351   1.686   4.726   4.909
 7469TIP3    H122352   1.711   4.702   4.998
 7469TIP3    H222353   1.758   4.694   4.855
 7470TIP3   OH222354   1.891   4.610   4.775
 7470TIP3    H122355   1.905   4.524   4.814
 7470TIP3    H222356   1.978   4.652   4.777
 7471TIP3   OH222357   2.157   4.712   4.790
 7471TIP3    H122358   2.173   4.619   4.776
 7471TIP3    H222359   2.215   4.736   4.862
 7472TIP3   OH222360   2.713   3.370   4.889
 7472TIP3    H122361   2.670   3.297   4.934
 7472TIP3    H222362   2.776   3.328   4.830
 7473TIP3   OH222363   3.227   3.253   4.732
 7473TIP3    H122364   3.282   3.294   4.665
 7473TIP3    H222365   3.157   3.316   4.747
 7474TIP3   OH222366   3.365   3.355   4.520
 7474TIP3    H122367   3.432   3.295   4.488
 7474TIP3    H222368   3.402   3.442   4.506
 7475TIP3   OH222369   1.970   3.065   4.871
 7475TIP3    H122370   1.878   3.040   4.867
 7475TIP3    H222371   2.018   2.983   4.863
 7476TIP3   OH222372   1.787   2.941   4.516
 7476TIP3    H122373   1.814   2.995   4.442
 7476TIP3    H222374   1.744   3.002   4.576
 7477TIP3   OH222375   2.436   3.092   4.763
 7477TIP3    H122376   2.481   3.133   4.690
 7477TIP3    H222377   2.448   3.154   4.836
 7478TIP3   OH222378   2.904   3.246   4.741
 7478TIP3    H122379   2.944   3.227   4.656
 7478TIP3    H222380   2.924   3.169   4.794
 7479TIP3   OH222381   2.998   3.190   4.307
 7479TIP3    H122382   2.917   3.237   4.326
 7479TIP3    H222383   2.983   3.101   4.340
 7480TIP3   OH222384   1.459   4.533   4.291
 7480TIP3    H122385   1.379   4.498   4.252
 7480TIP3    H222386   1.462   4.624   4.260
 7481TIP3   OH222387   1.887   3.085   4.290
 7481TIP3    H122388   1.930   3.029   4.225
 7481TIP3    H222389   1.958   3.139   4.325
 7482TIP3   OH222390   2.380   3.277   4.384
 7482TIP3    H122391   2.444   3.235   4.442
 7482TIP3    H222392   2.380   3.369   4.410
 7483TIP3   OH222393   2.259   4.682   3.884
 7483TIP3    H122394   2.343   4.709   3.846
 7483TIP3    H222395   2.230   4.610   3.829
 7484TIP3   OH222396   2.966   4.831   3.982
 7484TIP3    H122397   2.959   4.736   3.973
 7484TIP3    H222398   2.924   4.865   3.903
 7485TIP3   OH222399   2.186   3.339   5.754
 7485TIP3    H122400   2.150   3.273   5.813
 7485TIP3    H222401   2.277   3.348   5.780
 7486TIP3   OH222402   2.430   3.347   5.881
 7486TIP3    H122403   2.511   3.331   5.833
 7486TIP3    H222404   2.426   3.277   5.946
 7487TIP3   OH222405   1.568   4.527   3.943
 7487TIP3    H122406   1.573   4.538   4.038
 7487TIP3    H222407   1.649   4.481   3.921
 7488TIP3   OH222408   3.264   3.430   5.671
 7488TIP3    H122409   3.282   3.401   5.760
 7488TIP3    H222410   3.349   3.428   5.627
 7489TIP3   OH222411   3.187   4.968   5.179
 7489TIP3    H122412   3.113   4.937   5.126
 7489TIP3    H222413   3.172   5.062   5.188
 7490TIP3   OH222414   3.732   4.635   4.415
 7490TIP3    H122415   3.756   4.618   4.506
 7490TIP3    H222416   3.816   4.636   4.368
 7491TIP3   OH222417   3.463   3.831   4.218
 7491TIP3    H122418   3.489   3.922   4.232
 7491TIP3    H222419   3.388   3.835   4.159
 7492TIP3   OH222420   4.340   5.103   4.036
 7492TIP3    H122421   4.331   5.018   3.993
 7492TIP3    H222422   4.302   5.090   4.123
 7493TIP3   OH222423   5.295   3.865   4.374
 7493TIP3    H122424   5.312   3.946   4.421
 7493TIP3    H222425   5.339   3.876   4.289
 7494TIP3   OH222426   4.681   4.071   4.382
 7494TIP3    H122427   4.703   3.980   4.403
 7494TIP3    H222428   4.650   4.068   4.292
 7495TIP3   OH222429   4.003   3.724   4.334
 7495TIP3    H122430   3.947   3.797   4.308
 7495TIP3    H222431   3.962   3.647   4.293
 7496TIP3   OH222432   4.723   3.805   3.971
 7496TIP3    H122433   4.786   3.795   4.042
 7496TIP3    H222434   4.772   3.849   3.902
 7497TIP3   OH222435   5.341   4.086   4.552
 7497TIP3    H122436   5.262   4.139   4.541
 7497TIP3    H222437   5.388   4.129   4.623
 7498TIP3   OH222438   4.004   3.700   4.804
 7498TIP3    H122439   3.961   3.740   4.728
 7498TIP3    H222440   3.949   3.725   4.878
 7499TIP3   OH222441   4.105   4.504   4.567
 7499TIP3    H122442   4.045   4.570   4.602
 7499TIP3    H222443   4.098   4.513   4.472
 7500TIP3   OH222444   4.890   3.802   4.191
 7500TIP3    H122445   4.837   3.796   4.270
 7500TIP3    H222446   4.942   3.882   4.202
 7501TIP3   OH222447   3.891   3.805   4.582
 7501TIP3    H122448   3.932   3.892   4.583
 7501TIP3    H222449   3.917   3.768   4.498
 7502TIP3   OH222450   3.930   4.701   4.657
 7502TIP3    H122451   3.935   4.791   4.625
 7502TIP3    H222452   3.856   4.701   4.717
 7503TIP3   OH222453   3.303   4.389   3.907
 7503TIP3    H122454   3.278   4.410   3.817
 7503TIP3    H222455   3.335   4.472   3.943
 7504TIP3   OH222456   4.776   4.924   4.149
 7504TIP3    H122457   4.698   4.907   4.201
 7504TIP3    H222458   4.761   5.011   4.112
 7505TIP3   OH222459   5.081   3.753   4.526
 7505TIP3    H122460   4.996   3.784   4.495
 7505TIP3    H222461   5.143   3.786   4.462
 7506TIP3   OH222462   4.353   3.417   4.528
 7506TIP3    H122463   4.335   3.323   4.534
 7506TIP3    H222464   4.274   3.459   4.563
 7507TIP3   OH222465   4.462   4.919   3.794
 7507TIP3    H122466   4.515   4.863   3.850
 7507TIP3    H222467   4.519   4.992   3.772
 7508TIP3   OH222468   5.031   4.783   4.456
 7508TIP3    H122469   5.008   4.723   4.385
 7508TIP3    H222470   5.003   4.869   4.425
 7509TIP3   OH222471   4.244   4.172   3.782
 7509TIP3    H122472   4.182   4.112   3.825
 7509TIP3    H222473   4.240   4.147   3.690
 7510TIP3   OH222474   4.237   3.992   3.452
 7510TIP3    H122475   4.307   4.033   3.503
 7510TIP3    H222476   4.280   3.920   3.406
 7511TIP3   OH222477   4.550   4.297   3.746
 7511TIP3    H122478   4.474   4.339   3.786
 7511TIP3    H222479   4.566   4.219   3.798
 7512TIP3   OH222480   4.866   4.306   4.678
 7512TIP3    H122481   4.864   4.390   4.724
 7512TIP3    H222482   4.785   4.305   4.627
 7513TIP3   OH222483   3.972   4.674   4.293
 7513TIP3    H122484   3.947   4.670   4.200
 7513TIP3    H222485   4.052   4.728   4.294
 7514TIP3   OH222486   4.568   4.910   4.321
 7514TIP3    H122487   4.515   4.983   4.352
 7514TIP3    H222488   4.547   4.838   4.381
 7515TIP3   OH222489   4.140   4.789   4.829
 7515TIP3    H122490   4.078   4.853   4.865
 7515TIP3    H222491   4.088   4.739   4.765
 7516TIP3   OH222492   4.470   4.101   3.555
 7516TIP3    H122493   4.493   4.176   3.610
 7516TIP3    H222494   4.504   4.124   3.468
 7517TIP3   OH222495   3.905   4.342   4.967
 7517TIP3    H122496   3.909   4.436   4.982
 7517TIP3    H222497   3.811   4.323   4.958
 7518TIP3   OH222498   4.192   4.885   3.850
 7518TIP3    H122499   4.283   4.880   3.821
 7518TIP3    H222500   4.146   4.925   3.776
 7519TIP3   OH222501   3.935   4.963   4.894
 7519TIP3    H122502   3.919   4.979   4.801
 7519TIP3    H222503   3.847   4.950   4.931
 7520TIP3   OH222504   4.981   3.367   3.614
 7520TIP3    H122505   4.905   3.388   3.668
 7520TIP3    H222506   4.995   3.444   3.560
 7521TIP3   OH222507   4.808   4.745   3.161
 7521TIP3    H122508   4.807   4.839   3.140
 7521TIP3    H222509   4.897   4.717   3.140
 7522TIP3   OH222510   3.527   4.502   4.851
 7522TIP3    H122511   3.462   4.472   4.787
 7522TIP3    H222512   3.557   4.422   4.894
 7523TIP3   OH222513   3.371   4.692   4.516
 7523TIP3    H122514   3.463   4.717   4.523
 7523TIP3    H222515   3.323   4.767   4.551
 7524TIP3   OH222516   5.229   5.150   4.557
 7524TIP3    H122517   5.242   5.055   4.554
 7524TIP3    H222518   5.149   5.161   4.609
 7525TIP3   OH222519   4.359   4.925   4.727
 7525TIP3    H122520   4.336   5.018   4.724
 7525TIP3    H222521   4.278   4.881   4.753
 7526TIP3   OH222522   4.105   5.046   3.632
 7526TIP3    H122523   4.049   5.026   3.557
 7526TIP3    H222524   4.071   5.129   3.666
 7527TIP3   OH222525   3.548   4.889   4.030
 7527TIP3    H122526   3.599   4.880   4.110
 7527TIP3    H222527   3.504   4.804   4.019
 7528TIP3   OH222528   4.312   4.965   3.270
 7528TIP3    H122529   4.362   4.890   3.237
 7528TIP3    H222530   4.343   4.978   3.359
 7529TIP3   OH222531   4.360   5.007   3.541
 7529TIP3    H122532   4.271   5.015   3.576
 7529TIP3    H222533   4.410   4.966   3.612
 7530TIP3   OH222534   5.093   4.249   4.851
 7530TIP3    H122535   5.021   4.264   4.790
 7530TIP3    H222536   5.114   4.156   4.840
 7531TIP3   OH222537   3.716   4.702   4.830
 7531TIP3    H122538   3.768   4.688   4.910
 7531TIP3    H222539   3.648   4.635   4.834
 7532TIP3   OH222540   4.104   3.496   4.642
 7532TIP3    H122541   4.018   3.472   4.607
 7532TIP3    H222542   4.088   3.578   4.689
 7533TIP3   OH222543   4.654   3.619   4.843
 7533TIP3    H122544   4.723   3.597   4.907
 7533TIP3    H222545   4.572   3.600   4.889
 7534TIP3   OH222546   4.874   4.038   4.758
 7534TIP3    H122547   4.835   4.035   4.845
 7534TIP3    H222548   4.854   4.126   4.726
 7535TIP3   OH222549   4.556   4.137   3.296
 7535TIP3    H122550   4.514   4.131   3.210
 7535TIP3    H222551   4.637   4.185   3.278
 7536TIP3   OH222552   4.262   3.541   3.623
 7536TIP3    H122553   4.227   3.565   3.709
 7536TIP3    H222554   4.215   3.461   3.600
 7537TIP3   OH222555   4.024   4.048   4.609
 7537TIP3    H122556   3.978   4.062   4.692
 7537TIP3    H222557   3.988   4.114   4.550
 7538TIP3   OH222558   4.486   4.061   3.876
 7538TIP3    H122559   4.405   4.110   3.880
 7538TIP3    H222560   4.460   3.973   3.848
 7539TIP3   OH222561   4.598   4.253   4.973
 7539TIP3    H122562   4.572   4.185   5.035
 7539TIP3    H222563   4.690   4.269   4.993
 7540TIP3   OH222564   4.595   4.001   4.131
 7540TIP3    H122565   4.558   4.064   4.069
 7540TIP3    H222566   4.626   3.929   4.076
 7541TIP3   OH222567   3.893   4.038   4.858
 7541TIP3    H122568   3.915   4.108   4.920
 7541TIP3    H222569   3.882   3.960   4.912
 7542TIP3   OH222570   3.910   3.532   3.585
 7542TIP3    H122571   3.906   3.552   3.679
 7542TIP3    H222572   3.834   3.576   3.548
 7543TIP3   OH222573   3.478   3.597   4.471
 7543TIP3    H122574   3.548   3.619   4.531
 7543TIP3    H222575   3.498   3.646   4.391
 7544TIP3   OH222576   3.387   3.545   3.962
 7544TIP3    H122577   3.432   3.580   3.885
 7544TIP3    H222578   3.336   3.618   3.996
 7545TIP3   OH222579   4.619   4.274   4.552
 7545TIP3    H122580   4.642   4.214   4.481
 7545TIP3    H222581   4.572   4.219   4.615
 7546TIP3   OH222582   4.272   3.662   4.257
 7546TIP3    H122583   4.186   3.691   4.288
 7546TIP3    H222584   4.334   3.703   4.317
 7547TIP3   OH222585   3.700   3.732   4.319
 7547TIP3    H122586   3.628   3.770   4.269
 7547TIP3    H222587   3.738   3.666   4.260
 7548TIP3   OH222588   4.750   3.799   4.435
 7548TIP3    H122589   4.729   3.822   4.526
 7548TIP3    H222590   4.679   3.741   4.408
 7549TIP3   OH222591   3.728   3.797   3.684
 7549TIP3    H122592   3.725   3.766   3.593
 7549TIP3    H222593   3.811   3.845   3.689
 7550TIP3   OH222594   4.941   5.493   4.658
 7550TIP3    H122595   4.939   5.502   4.562
 7550TIP3    H222596   5.021   5.538   4.684
 7551TIP3   OH222597   3.876   4.609   5.062
 7551TIP3    H122598   3.959   4.629   5.106
 7551TIP3    H222599   3.811   4.614   5.131
 7552TIP3   OH222600   3.854   3.530   4.201
 7552TIP3    H122601   3.825   3.451   4.247
 7552TIP3    H222602   3.867   3.501   4.110
 7553TIP3   OH222603   4.287   3.959   4.662
 7553TIP3    H122604   4.208   4.005   4.634
 7553TIP3    H222605   4.353   4.028   4.670
 7554TIP3   OH222606   4.011   4.376   3.716
 7554TIP3    H122607   3.969   4.291   3.706
 7554TIP3    H222608   4.074   4.364   3.786
 7555TIP3   OH222609   4.476   3.664   3.512
 7555TIP3    H122610   4.400   3.627   3.557
 7555TIP3    H222611   4.510   3.730   3.573
 7556TIP3   OH222612   4.468   4.665   4.760
 7556TIP3    H122613   4.514   4.657   4.843
 7556TIP3    H222614   4.435   4.755   4.760
 7557TIP3   OH222615   4.576   3.862   3.668
 7557TIP3    H122616   4.667   3.878   3.693
 7557TIP3    H222617   4.544   3.948   3.638
 7558TIP3   OH222618   4.184   4.484   3.521
 7558TIP3    H122619   4.157   4.575   3.533
 7558TIP3    H222620   4.135   4.436   3.588
 7559TIP3   OH222621   3.630   4.300   5.014
 7559TIP3    H122622   3.667   4.305   5.102
 7559TIP3    H222623   3.560   4.234   5.021
 7560TIP3   OH222624   4.363   4.406   5.018
 7560TIP3    H122625   4.294   4.349   4.983
 7560TIP3    H222626   4.445   4.368   4.984
 7561TIP3   OH222627   4.622   4.951   4.629
 7561TIP3    H122628   4.529   4.928   4.633
 7561TIP3    H222629   4.641   4.993   4.712
 7562TIP3   OH222630   5.005   4.004   3.506
 7562TIP3    H122631   4.952   3.953   3.444
 7562TIP3    H222632   5.004   4.093   3.471
 7563TIP3   OH222633   5.296   4.882   4.517
 7563TIP3    H122634   5.217   4.833   4.495
 7563TIP3    H222635   5.358   4.859   4.447
 7564TIP3   OH222636   4.727   4.802   3.423
 7564TIP3    H122637   4.689   4.724   3.465
 7564TIP3    H222638   4.751   4.772   3.335
 7565TIP3   OH222639   3.868   4.706   4.039
 7565TIP3    H122640   3.900   4.773   3.979
 7565TIP3    H222641   3.786   4.675   3.999
 7566TIP3   OH222642   3.372   3.947   3.709
 7566TIP3    H122643   3.426   4.026   3.720
 7566TIP3    H222644   3.306   3.953   3.778
 7567TIP3   OH222645   3.765   4.922   3.859
 7567TIP3    H122646   3.686   4.920   3.913
 7567TIP3    H222647   3.801   5.009   3.870
 7568TIP3   OH222648   4.540   4.676   4.490
 7568TIP3    H122649   4.496   4.664   4.574
 7568TIP3    H222650   4.630   4.647   4.505
 7569TIP3   OH222651   4.488   4.546   3.340
 7569TIP3    H122652   4.542   4.519   3.414
 7569TIP3    H222653   4.400   4.515   3.362
 7570TIP3   OH222654   4.741   5.175   4.499
 7570TIP3    H122655   4.677   5.105   4.510
 7570TIP3    H222656   4.708   5.226   4.426
 7571TIP3   OH222657   4.814   5.020   3.132
 7571TIP3    H122658   4.853   5.092   3.082
 7571TIP3    H222659   4.737   5.059   3.174
 7572TIP3   OH222660   3.844   3.786   5.011
 7572TIP3    H122661   3.749   3.794   5.018
 7572TIP3    H222662   3.870   3.736   5.088
 7573TIP3   OH222663   4.659   4.469   3.542
 7573TIP3    H122664   4.627   4.411   3.612
 7573TIP3    H222665   4.754   4.460   3.545
 7574TIP3   OH222666   3.565   4.901   4.650
 7574TIP3    H122667   3.616   4.844   4.708
 7574TIP3    H222668   3.585   4.989   4.680
 7575TIP3   OH222669   3.835   4.515   3.336
 7575TIP3    H122670   3.850   4.424   3.311
 7575TIP3    H222671   3.824   4.513   3.431
 7576TIP3   OH222672   3.794   4.525   3.609
 7576TIP3    H122673   3.869   4.486   3.654
 7576TIP3    H222674   3.804   4.619   3.622
 7577TIP3   OH222675   3.468   4.201   3.761
 7577TIP3    H122676   3.423   4.248   3.832
 7577TIP3    H222677   3.508   4.270   3.708
 7578TIP3   OH222678   4.678   3.854   4.695
 7578TIP3    H122679   4.756   3.898   4.729
 7578TIP3    H222680   4.670   3.775   4.750
 7579TIP3   OH222681   4.566   3.605   3.874
 7579TIP3    H122682   4.527   3.648   3.798
 7579TIP3    H222683   4.618   3.674   3.916
 7580TIP3   OH222684   4.072   4.731   3.546
 7580TIP3    H122685   3.988   4.746   3.589
 7580TIP3    H222686   4.084   4.806   3.488
 7581TIP3   OH222687   4.523   4.098   4.740
 7581TIP3    H122688   4.551   4.137   4.823
 7581TIP3    H222689   4.569   4.014   4.736
 7582TIP3   OH222690   4.376   3.501   4.057
 7582TIP3    H122691   4.357   3.568   4.123
 7582TIP3    H222692   4.443   3.541   4.002
 7583TIP3   OH222693   3.815   4.801   3.620
 7583TIP3    H122694   3.790   4.868   3.557
 7583TIP3    H222695   3.797   4.841   3.706
 7584TIP3   OH222696   3.890   3.549   3.864
 7584TIP3    H122697   3.885   3.643   3.883
 7584TIP3    H222698   3.983   3.528   3.870
 7585TIP3   OH222699   5.139   3.983   4.757
 7585TIP3    H122700   5.043   3.983   4.756
 7585TIP3    H222701   5.165   3.982   4.665
 7586TIP3   OH222702   3.538   4.415   3.589
 7586TIP3    H122703   3.613   4.472   3.606
 7586TIP3    H222704   3.572   4.349   3.527
 7587TIP3   OH222705   3.483   3.689   3.747
 7587TIP3    H122706   3.574   3.716   3.736
 7587TIP3    H222707   3.432   3.769   3.732
 7588TIP3   OH222708   4.776   5.190   4.073
 7588TIP3    H122709   4.734   5.235   4.000
 7588TIP3    H222710   4.870   5.205   4.059
 7589TIP3   OH222711   3.834   3.420   4.601
 7589TIP3    H122712   3.811   3.394   4.512
 7589TIP3    H222713   3.827   3.340   4.652
 7590TIP3   OH222714   3.372   4.657   3.998
 7590TIP3    H122715   3.333   4.699   4.074
 7590TIP3    H222716   3.334   4.704   3.923
 7591TIP3   OH222717   3.574   5.208   5.066
 7591TIP3    H122718   3.657   5.213   5.113
 7591TIP3    H222719   3.562   5.115   5.048
 7592TIP3   OH222720   4.037   5.112   5.102
 7592TIP3    H122721   4.129   5.085   5.111
 7592TIP3    H222722   4.006   5.064   5.025
 7593TIP3   OH222723   3.999   4.708   3.226
 7593TIP3    H122724   3.948   4.642   3.272
 7593TIP3    H222725   4.074   4.661   3.191
 7594TIP3   OH222726   4.664   5.065   4.874
 7594TIP3    H122727   4.677   4.992   4.935
 7594TIP3    H222728   4.741   5.121   4.887
 7595TIP3   OH222729   4.442   4.751   3.158
 7595TIP3    H122730   4.471   4.686   3.221
 7595TIP3    H222731   4.503   4.742   3.084
 7596TIP3   OH222732   3.677   4.605   5.259
 7596TIP3    H122733   3.692   4.512   5.269
 7596TIP3    H222734   3.594   4.611   5.212
 7597TIP3   OH222735   3.659   4.209   3.453
 7597TIP3    H122736   3.700   4.166   3.529
 7597TIP3    H222737   3.731   4.221   3.391
 7598TIP3   OH222738   4.292   4.684   5.033
 7598TIP3    H122739   4.250   4.708   4.950
 7598TIP3    H222740   4.329   4.597   5.017
 7599TIP3   OH222741   4.194   4.432   3.256
 7599TIP3    H122742   4.182   4.445   3.350
 7599TIP3    H222743   4.190   4.337   3.245
 7600TIP3   OH222744   4.799   4.726   4.626
 7600TIP3    H122745   4.877   4.756   4.581
 7600TIP3    H222746   4.739   4.800   4.623
 7601TIP3   OH222747   3.791   4.344   5.248
 7601TIP3    H122748   3.870   4.331   5.196
 7601TIP3    H222749   3.823   4.363   5.336
 7602TIP3   OH222750   3.908   4.123   3.701
 7602TIP3    H122751   3.958   4.081   3.771
 7602TIP3    H222752   3.916   4.063   3.627
 7603TIP3   OH222753   4.158   4.229   4.918
 7603TIP3    H122754   4.073   4.273   4.925
 7603TIP3    H222755   4.191   4.255   4.832
 7604TIP3   OH222756   3.959   3.947   3.499
 7604TIP3    H122757   3.937   3.954   3.406
 7604TIP3    H222758   4.054   3.950   3.502
 7605TIP3   OH222759   4.649   4.607   5.003
 7605TIP3    H122760   4.717   4.571   4.946
 7605TIP3    H222761   4.648   4.549   5.079
 7606TIP3   OH222762   4.782   4.265   3.192
 7606TIP3    H122763   4.770   4.220   3.108
 7606TIP3    H222764   4.752   4.355   3.176
 7607TIP3   OH222765   4.257   4.001   5.035
 7607TIP3    H122766   4.257   3.925   4.977
 7607TIP3    H222767   4.226   4.073   4.980
 7608TIP3   OH222768   4.259   3.779   4.860
 7608TIP3    H122769   4.282   3.834   4.785
 7608TIP3    H222770   4.169   3.752   4.843
 7609TIP3   OH222771   4.274   4.329   4.694
 7609TIP3    H122772   4.362   4.362   4.677
 7609TIP3    H222773   4.216   4.390   4.648
 7610TIP3   OH222774   4.867   4.287   5.068
 7610TIP3    H122775   4.905   4.199   5.070
 7610TIP3    H222776   4.938   4.343   5.035
 7611TIP3   OH222777   4.895   4.553   4.816
 7611TIP3    H122778   4.849   4.614   4.758
 7611TIP3    H222779   4.987   4.559   4.788
 7612TIP3   OH222780   4.141   4.089   5.273
 7612TIP3    H122781   4.071   4.026   5.289
 7612TIP3    H222782   4.170   4.069   5.184
 7613TIP3   OH222783   4.392   3.550   4.926
 7613TIP3    H122784   4.351   3.633   4.901
 7613TIP3    H222785   4.326   3.484   4.907
 7614TIP3   OH222786   4.517   4.040   5.129
 7614TIP3    H122787   4.504   4.029   5.223
 7614TIP3    H222788   4.431   4.022   5.091
 7615TIP3   OH222789   4.764   3.998   5.001
 7615TIP3    H122790   4.684   3.998   5.054
 7615TIP3    H222791   4.833   3.973   5.062
 7616TIP3   OH222792   4.999   3.961   5.150
 7616TIP3    H122793   5.011   3.866   5.157
 7616TIP3    H222794   4.993   3.991   5.241
 7617TIP3   OH222795   3.972   3.868   5.334
 7617TIP3    H122796   3.982   3.781   5.296
 7617TIP3    H222797   4.011   3.862   5.420
 7618TIP3   OH222798   4.455   3.542   5.191
 7618TIP3    H122799   4.526   3.478   5.186
 7618TIP3    H222800   4.424   3.552   5.101
 7619TIP3   OH222801   4.546   3.760   5.335
 7619TIP3    H122802   4.516   3.690   5.277
 7619TIP3    H222803   4.475   3.825   5.334
 7620TIP3   OH222804   3.798   5.010   3.434
 7620TIP3    H122805   3.887   4.988   3.406
 7620TIP3    H222806   3.760   5.058   3.360
 7621TIP3   OH222807   3.265   4.401   3.616
 7621TIP3    H122808   3.359   4.418   3.609
 7621TIP3    H222809   3.254   4.313   3.580
 7622TIP3   OH222810   3.173   4.980   4.083
 7622TIP3    H122811   3.109   4.927   4.036
 7622TIP3    H222812   3.218   4.919   4.141
 7623TIP3   OH222813   3.317   4.809   4.248
 7623TIP3    H122814   3.309   4.743   4.317
 7623TIP3    H222815   3.372   4.877   4.287
 7624TIP3   OH222816   5.043   5.246   4.056
 7624TIP3    H122817   5.076   5.255   4.145
 7624TIP3    H222818   5.118   5.267   4.000
 7625TIP3   OH222819   5.092   5.245   4.334
 7625TIP3    H122820   5.034   5.168   4.333
 7625TIP3    H222821   5.156   5.225   4.403
 7626TIP3   OH222822   5.117   4.948   4.908
 7626TIP3    H122823   5.050   4.957   4.976
 7626TIP3    H222824   5.166   5.030   4.911
 7627TIP3   OH222825   4.947   4.472   3.546
 7627TIP3    H122826   4.996   4.534   3.492
 7627TIP3    H222827   4.980   4.486   3.635
 7628TIP3   OH222828   4.930   5.020   4.354
 7628TIP3    H122829   4.862   5.061   4.408
 7628TIP3    H222830   4.883   4.983   4.280
 7629TIP3   OH222831   4.984   4.249   3.380
 7629TIP3    H122832   4.914   4.250   3.315
 7629TIP3    H222833   4.966   4.324   3.436
 7630TIP3   OH222834   4.861   3.886   3.301
 7630TIP3    H122835   4.803   3.926   3.236
 7630TIP3    H222836   4.847   3.792   3.291
 7631TIP3   OH222837   5.157   4.579   4.722
 7631TIP3    H122838   5.228   4.516   4.737
 7631TIP3    H222839   5.179   4.620   4.638
 7632TIP3   OH222840   5.327   4.387   4.830
 7632TIP3    H122841   5.245   4.339   4.832
 7632TIP3    H222842   5.390   4.325   4.794
 7633TIP3   OH222843   4.805   3.615   3.265
 7633TIP3    H122844   4.861   3.590   3.338
 7633TIP3    H222845   4.721   3.573   3.284
 7634TIP3   OH222846   4.855   3.885   3.729
 7634TIP3    H122847   4.904   3.804   3.745
 7634TIP3    H222848   4.906   3.932   3.663
 7635TIP3   OH222849   5.101   4.230   4.526
 7635TIP3    H122850   5.018   4.245   4.571
 7635TIP3    H222851   5.104   4.297   4.457
 7636TIP3   OH222852   3.709   3.927   5.272
 7636TIP3    H122853   3.803   3.925   5.286
 7636TIP3    H222854   3.676   3.848   5.315
 7637TIP3   OH222855   5.558   3.812   5.039
 7637TIP3    H122856   5.619   3.756   4.992
 7637TIP3    H222857   5.516   3.864   4.971
 7638TIP3   OH222858   4.983   3.647   3.790
 7638TIP3    H122859   5.029   3.635   3.874
 7638TIP3    H222860   4.917   3.578   3.790
 7639TIP3   OH222861   3.677   3.645   4.661
 7639TIP3    H122862   3.730   3.567   4.647
 7639TIP3    H222863   3.732   3.717   4.631
 7640TIP3   OH222864   5.404   3.936   4.854
 7640TIP3    H122865   5.331   3.979   4.898
 7640TIP3    H222866   5.363   3.875   4.793
 7641TIP3   OH222867   5.024   3.570   3.431
 7641TIP3    H122868   5.073   3.508   3.376
 7641TIP3    H222869   5.082   3.646   3.439
 7642TIP3   OH222870   3.442   3.363   4.163
 7642TIP3    H122871   3.363   3.372   4.216
 7642TIP3    H222872   3.439   3.438   4.102
 7643TIP3   OH222873   4.623   5.113   3.704
 7643TIP3    H122874   4.680   5.109   3.628
 7643TIP3    H222875   4.658   5.186   3.756
 7644TIP3   OH222876   3.674   3.442   5.011
 7644TIP3    H122877   3.634   3.461   5.096
 7644TIP3    H222878   3.625   3.496   4.949
 7645TIP3   OH222879   3.706   4.935   5.058
 7645TIP3    H122880   3.614   4.910   5.059
 7645TIP3    H222881   3.737   4.915   5.147
 7646TIP3   OH222882   3.947   4.971   4.602
 7646TIP3    H122883   3.875   5.025   4.570
 7646TIP3    H222884   4.022   4.995   4.548
 7647TIP3   OH222885   4.317   5.206   4.774
 7647TIP3    H122886   4.359   5.196   4.859
 7647TIP3    H222887   4.381   5.252   4.720
 7648TIP3   OH222888   4.523   5.345   4.646
 7648TIP3    H122889   4.586   5.286   4.605
 7648TIP3    H222890   4.576   5.404   4.699
 7649TIP3   OH222891   5.306   3.695   4.729
 7649TIP3    H122892   5.222   3.704   4.683
 7649TIP3    H222893   5.328   3.602   4.720
 7650TIP3   OH222894   3.553   5.211   4.684
 7650TIP3    H122895   3.462   5.236   4.667
 7650TIP3    H222896   3.585   5.276   4.746
 7651TIP3   OH222897   3.751   5.134   4.509
 7651TIP3    H122898   3.681   5.174   4.561
 7651TIP3    H222899   3.765   5.195   4.437
 7652TIP3   OH222900   4.436   5.147   4.392
 7652TIP3    H122901   4.344   5.121   4.398
 7652TIP3    H222902   4.434   5.237   4.361
 7653TIP3   OH222903   4.725   5.362   4.283
 7653TIP3    H122904   4.702   5.443   4.237
 7653TIP3    H222905   4.734   5.297   4.214
 7654TIP3   OH222906   3.488   4.987   4.395
 7654TIP3    H122907   3.514   4.969   4.485
 7654TIP3    H222908   3.563   4.959   4.342
 7655TIP3   OH222909   3.694   4.868   4.263
 7655TIP3    H122910   3.700   4.785   4.311
 7655TIP3    H222911   3.784   4.901   4.261
 7656TIP3   OH222912   4.543   3.618   4.381
 7656TIP3    H122913   4.488   3.548   4.416
 7656TIP3    H222914   4.603   3.574   4.321
 7657TIP3   OH222915   5.027   3.513   4.238
 7657TIP3    H122916   5.067   3.567   4.170
 7657TIP3    H222917   4.938   3.547   4.246
 7658TIP3   OH222918   5.148   3.605   4.008
 7658TIP3    H122919   5.217   3.544   3.981
 7658TIP3    H222920   5.186   3.691   3.997
 7659TIP3   OH222921   3.768   3.310   4.353
 7659TIP3    H122922   3.677   3.280   4.359
 7659TIP3    H222923   3.819   3.229   4.351
 7660TIP3   OH222924   3.578   3.191   3.992
 7660TIP3    H122925   3.608   3.250   3.923
 7660TIP3    H222926   3.535   3.248   4.055
 7661TIP3   OH222927   4.227   3.354   4.246
 7661TIP3    H122928   4.266   3.396   4.170
 7661TIP3    H222929   4.238   3.417   4.317
 7662TIP3   OH222930   4.736   3.495   4.226
 7662TIP3    H122931   4.744   3.460   4.137
 7662TIP3    H222932   4.738   3.417   4.282
 7663TIP3   OH222933   4.787   3.447   3.796
 7663TIP3    H122934   4.707   3.496   3.817
 7663TIP3    H222935   4.773   3.361   3.836
 7664TIP3   OH222936   3.260   4.787   3.783
 7664TIP3    H122937   3.177   4.752   3.753
 7664TIP3    H222938   3.262   4.877   3.749
 7665TIP3   OH222939   3.691   3.354   3.781
 7665TIP3    H122940   3.746   3.304   3.720
 7665TIP3    H222941   3.749   3.423   3.814
 7666TIP3   OH222942   4.164   3.587   3.874
 7666TIP3    H122943   4.220   3.573   3.950
 7666TIP3    H222944   4.119   3.669   3.891
 7667TIP3   OH222945   4.052   4.940   3.360
 7667TIP3    H122946   4.137   4.966   3.325
 7667TIP3    H222947   4.026   4.865   3.307
 7668TIP3   OH222948   4.766   5.072   3.465
 7668TIP3    H122949   4.756   4.977   3.458
 7668TIP3    H222950   4.718   5.107   3.390
 7669TIP3   OH222951   3.982   3.596   5.239
 7669TIP3    H122952   3.947   3.530   5.300
 7669TIP3    H222953   4.074   3.603   5.261
 7670TIP3   OH222954   4.231   3.598   5.359
 7670TIP3    H122955   4.310   3.579   5.308
 7670TIP3    H222956   4.228   3.528   5.424
 7671TIP3   OH222957   3.364   4.784   3.431
 7671TIP3    H122958   3.368   4.789   3.527
 7671TIP3    H222959   3.444   4.739   3.406
 7672TIP3   OH222960   5.058   3.688   5.157
 7672TIP3    H122961   5.076   3.659   5.246
 7672TIP3    H222962   5.143   3.683   5.113
 7673TIP3   OH222963   4.973   5.216   4.657
 7673TIP3    H122964   4.895   5.188   4.609
 7673TIP3    H222965   4.963   5.311   4.668
 7674TIP3   OH222966   5.520   4.919   3.866
 7674TIP3    H122967   5.488   4.837   3.829
 7674TIP3    H222968   5.614   4.919   3.847
 7675TIP3   OH222969   5.241   4.065   3.667
 7675TIP3    H122970   5.228   4.155   3.695
 7675TIP3    H222971   5.161   4.042   3.620
 7676TIP3   OH222972   6.173   5.337   3.501
 7676TIP3    H122973   6.203   5.264   3.447
 7676TIP3    H222974   6.156   5.298   3.587
 7677TIP3   OH222975   6.011   4.817   3.825
 7677TIP3    H122976   6.019   4.737   3.774
 7677TIP3    H222977   6.101   4.839   3.851
 7678TIP3   OH222978   7.089   4.144   3.840
 7678TIP3    H122979   7.103   4.230   3.881
 7678TIP3    H222980   7.117   4.156   3.750
 7679TIP3   OH222981   6.466   4.272   3.901
 7679TIP3    H122982   6.470   4.230   3.987
 7679TIP3    H222983   6.488   4.203   3.839
 7680TIP3   OH222984   5.729   3.966   3.843
 7680TIP3    H122985   5.671   4.025   3.795
 7680TIP3    H222986   5.723   3.883   3.797
 7681TIP3   OH222987   6.520   4.051   3.443
 7681TIP3    H122988   6.566   4.075   3.524
 7681TIP3    H222989   6.566   4.099   3.374
 7682TIP3   OH222990   7.146   4.363   4.013
 7682TIP3    H122991   7.058   4.399   4.003
 7682TIP3    H222992   7.178   4.400   4.096
 7683TIP3   OH222993   5.801   3.968   4.289
 7683TIP3    H122994   5.753   4.009   4.217
 7683TIP3    H222995   5.746   3.984   4.366
 7684TIP3   OH222996   6.041   4.797   3.342
 7684TIP3    H122997   6.136   4.785   3.342
 7684TIP3    H222998   6.029   4.890   3.325
 7685TIP3   OH222999   5.923   4.767   4.097
 7685TIP3    H123000   5.845   4.814   4.126
 7685TIP3    H223001   5.929   4.787   4.003
 7686TIP3   OH223002   6.652   4.140   3.669
 7686TIP3    H123003   6.644   4.081   3.744
 7686TIP3    H223004   6.727   4.195   3.691
 7687TIP3   OH223005   5.663   4.076   4.082
 7687TIP3    H123006   5.700   4.165   4.080
 7687TIP3    H223007   5.690   4.037   3.998
 7688TIP3   OH223008   5.710   4.925   4.192
 7688TIP3    H123009   5.675   5.009   4.162
 7688TIP3    H223010   5.638   4.885   4.242
 7689TIP3   OH223011   5.108   4.647   3.399
 7689TIP3    H123012   5.081   4.666   3.309
 7689TIP3    H223013   5.135   4.732   3.434
 7690TIP3   OH223014   6.577   5.173   3.665
 7690TIP3    H123015   6.489   5.147   3.690
 7690TIP3    H223016   6.565   5.249   3.608
 7691TIP3   OH223017   6.889   4.028   4.012
 7691TIP3    H123018   6.801   4.037   3.975
 7691TIP3    H223019   6.947   4.059   3.942
 7692TIP3   OH223020   6.143   3.667   4.009
 7692TIP3    H123021   6.129   3.575   4.031
 7692TIP3    H223022   6.067   3.712   4.047
 7693TIP3   OH223023   6.270   5.150   3.315
 7693TIP3    H123024   6.317   5.068   3.330
 7693TIP3    H223025   6.336   5.210   3.281
 7694TIP3   OH223026   6.790   5.065   3.993
 7694TIP3    H123027   6.783   4.993   3.930
 7694TIP3    H223028   6.777   5.144   3.942
 7695TIP3   OH223029   6.068   4.434   3.244
 7695TIP3    H123030   5.998   4.499   3.236
 7695TIP3    H223031   6.127   4.453   3.171
 7696TIP3   OH223032   6.037   4.256   2.945
 7696TIP3    H123033   6.096   4.304   3.003
 7696TIP3    H223034   6.092   4.190   2.903
 7697TIP3   OH223035   6.973   4.708   3.848
 7697TIP3    H123036   6.892   4.758   3.848
 7697TIP3    H223037   7.007   4.718   3.759
 7698TIP3   OH223038   6.445   4.503   3.211
 7698TIP3    H123039   6.412   4.581   3.257
 7698TIP3    H223040   6.531   4.487   3.252
 7699TIP3   OH223041   6.687   4.567   4.157
 7699TIP3    H123042   6.682   4.652   4.201
 7699TIP3    H223043   6.606   4.562   4.107
 7700TIP3   OH223044   5.774   4.946   3.757
 7700TIP3    H123045   5.762   4.928   3.664
 7700TIP3    H223046   5.858   4.905   3.778
 7701TIP3   OH223047   6.331   5.126   3.774
 7701TIP3    H123048   6.313   5.210   3.816
 7701TIP3    H223049   6.308   5.060   3.840
 7702TIP3   OH223050   5.927   5.048   4.317
 7702TIP3    H123051   5.872   5.111   4.363
 7702TIP3    H223052   5.866   4.988   4.275
 7703TIP3   OH223053   6.266   4.394   3.041
 7703TIP3    H123054   6.328   4.445   3.092
 7703TIP3    H223055   6.296   4.402   2.951
 7704TIP3   OH223056   6.004   5.077   3.313
 7704TIP3    H123057   6.095   5.106   3.315
 7704TIP3    H223058   5.960   5.139   3.254
 7705TIP3   OH223059   5.733   5.235   4.389
 7705TIP3    H123060   5.706   5.228   4.297
 7705TIP3    H223061   5.655   5.213   4.439
 7706TIP3   OH223062   6.781   3.623   3.101
 7706TIP3    H123063   6.704   3.643   3.155
 7706TIP3    H223064   6.793   3.700   3.046
 7707TIP3   OH223065   5.553   4.357   3.407
 7707TIP3    H123066   5.466   4.393   3.390
 7707TIP3    H223067   5.538   4.283   3.466
 7708TIP3   OH223068   6.601   4.998   2.653
 7708TIP3    H123069   6.599   5.091   2.632
 7708TIP3    H223070   6.690   4.971   2.631
 7709TIP3   OH223071   5.168   4.958   3.955
 7709TIP3    H123072   5.253   4.964   3.999
 7709TIP3    H223073   5.104   4.982   4.022
 7710TIP3   OH223074   7.024   5.408   4.051
 7710TIP3    H123075   7.029   5.314   4.067
 7710TIP3    H223076   6.942   5.436   4.092
 7711TIP3   OH223077   6.115   5.188   4.173
 7711TIP3    H123078   6.115   5.278   4.208
 7711TIP3    H223079   6.050   5.142   4.226
 7712TIP3   OH223080   5.913   5.298   3.129
 7712TIP3    H123081   5.860   5.272   3.054
 7712TIP3    H223082   5.873   5.379   3.160
 7713TIP3   OH223083   5.342   5.150   3.502
 7713TIP3    H123084   5.384   5.150   3.589
 7713TIP3    H223085   5.292   5.069   3.500
 7714TIP3   OH223086   6.110   5.221   2.758
 7714TIP3    H123087   6.159   5.146   2.724
 7714TIP3    H223088   6.143   5.233   2.847
 7715TIP3   OH223089   6.167   5.267   3.029
 7715TIP3    H123090   6.080   5.268   3.070
 7715TIP3    H223091   6.224   5.226   3.094
 7716TIP3   OH223092   6.926   4.513   4.317
 7716TIP3    H123093   6.838   4.534   4.286
 7716TIP3    H223094   6.935   4.418   4.301
 7717TIP3   OH223095   5.904   3.759   4.131
 7717TIP3    H123096   5.820   3.730   4.096
 7717TIP3    H223097   5.884   3.841   4.177
 7718TIP3   OH223098   6.444   3.878   4.322
 7718TIP3    H123099   6.511   3.859   4.387
 7718TIP3    H223100   6.361   3.865   4.369
 7719TIP3   OH223101   6.671   4.300   4.245
 7719TIP3    H123102   6.619   4.290   4.325
 7719TIP3    H223103   6.656   4.391   4.219
 7720TIP3   OH223104   6.351   4.374   2.778
 7720TIP3    H123105   6.308   4.377   2.692
 7720TIP3    H223106   6.432   4.425   2.765
 7721TIP3   OH223107   6.064   3.787   3.092
 7721TIP3    H123108   6.035   3.788   3.183
 7721TIP3    H223109   6.022   3.709   3.054
 7722TIP3   OH223110   5.833   4.304   4.107
 7722TIP3    H123111   5.784   4.320   4.187
 7722TIP3    H223112   5.803   4.373   4.047
 7723TIP3   OH223113   6.216   4.255   3.390
 7723TIP3    H123114   6.165   4.324   3.349
 7723TIP3    H223115   6.280   4.230   3.323
 7724TIP3   OH223116   6.388   4.524   4.478
 7724TIP3    H123117   6.365   4.453   4.538
 7724TIP3    H223118   6.475   4.552   4.507
 7725TIP3   OH223119   5.687   4.309   4.343
 7725TIP3    H123120   5.633   4.382   4.375
 7725TIP3    H223121   5.666   4.236   4.401
 7726TIP3   OH223122   5.721   3.781   3.075
 7726TIP3    H123123   5.716   3.781   3.171
 7726TIP3    H223124   5.643   3.829   3.047
 7727TIP3   OH223125   5.276   3.837   3.954
 7727TIP3    H123126   5.344   3.862   4.016
 7727TIP3    H223127   5.310   3.865   3.869
 7728TIP3   OH223128   5.187   3.799   3.446
 7728TIP3    H123129   5.232   3.832   3.368
 7728TIP3    H223130   5.133   3.872   3.476
 7729TIP3   OH223131   6.450   4.516   4.025
 7729TIP3    H123132   6.459   4.438   3.969
 7729TIP3    H223133   6.403   4.484   4.102
 7730TIP3   OH223134   5.518   4.040   3.683
 7730TIP3    H123135   5.422   4.044   3.675
 7730TIP3    H223136   5.540   3.950   3.661
 7731TIP3   OH223137   5.754   4.014   3.385
 7731TIP3    H123138   5.839   4.051   3.362
 7731TIP3    H223139   5.695   4.048   3.317
 7732TIP3   OH223140   6.604   4.003   3.901
 7732TIP3    H123141   6.568   4.024   3.987
 7732TIP3    H223142   6.553   3.928   3.871
 7733TIP3   OH223143   5.604   4.072   3.163
 7733TIP3    H123144   5.544   4.021   3.107
 7733TIP3    H223145   5.661   4.118   3.101
 7734TIP3   OH223146   6.735   5.753   4.149
 7734TIP3    H123147   6.732   5.760   4.053
 7734TIP3    H223148   6.814   5.800   4.174
 7735TIP3   OH223149   5.674   4.965   4.574
 7735TIP3    H123150   5.748   4.935   4.626
 7735TIP3    H223151   5.640   4.886   4.533
 7736TIP3   OH223152   5.620   3.772   3.671
 7736TIP3    H123153   5.595   3.699   3.727
 7736TIP3    H223154   5.645   3.731   3.589
 7737TIP3   OH223155   6.099   4.241   4.144
 7737TIP3    H123156   6.009   4.260   4.118
 7737TIP3    H223157   6.141   4.327   4.150
 7738TIP3   OH223158   5.834   4.600   3.184
 7738TIP3    H123159   5.764   4.535   3.170
 7738TIP3    H223160   5.822   4.628   3.275
 7739TIP3   OH223161   6.755   4.875   3.797
 7739TIP3    H123162   6.807   4.919   3.729
 7739TIP3    H223163   6.664   4.886   3.768
 7740TIP3   OH223164   6.309   3.907   3.087
 7740TIP3    H123165   6.216   3.885   3.089
 7740TIP3    H223166   6.312   4.000   3.109
 7741TIP3   OH223167   6.242   4.916   4.191
 7741TIP3    H123168   6.276   4.898   4.279
 7741TIP3    H223169   6.188   4.995   4.202
 7742TIP3   OH223170   6.371   4.167   3.167
 7742TIP3    H123171   6.466   4.178   3.178
 7742TIP3    H223172   6.343   4.246   3.120
 7743TIP3   OH223173   5.997   4.746   3.006
 7743TIP3    H123174   5.963   4.834   3.022
 7743TIP3    H223175   5.958   4.692   3.075
 7744TIP3   OH223176   5.399   4.543   4.545
 7744TIP3    H123177   5.455   4.561   4.621
 7744TIP3    H223178   5.451   4.574   4.471
 7745TIP3   OH223179   6.148   4.672   4.500
 7745TIP3    H123180   6.080   4.614   4.467
 7745TIP3    H223181   6.230   4.629   4.476
 7746TIP3   OH223182   6.386   5.193   4.083
 7746TIP3    H123183   6.292   5.184   4.102
 7746TIP3    H223184   6.421   5.238   4.160
 7747TIP3   OH223185   6.791   4.252   2.987
 7747TIP3    H123186   6.736   4.205   2.924
 7747TIP3    H223187   6.793   4.342   2.954
 7748TIP3   OH223188   7.042   5.123   4.080
 7748TIP3    H123189   6.946   5.115   4.076
 7748TIP3    H223190   7.072   5.097   3.993
 7749TIP3   OH223191   6.527   5.058   2.918
 7749TIP3    H123192   6.502   4.979   2.968
 7749TIP3    H223193   6.547   5.025   2.831
 7750TIP3   OH223194   5.659   4.933   3.500
 7750TIP3    H123195   5.666   5.013   3.447
 7750TIP3    H223196   5.564   4.916   3.504
 7751TIP3   OH223197   5.214   4.225   3.225
 7751TIP3    H123198   5.264   4.303   3.247
 7751TIP3    H223199   5.136   4.230   3.280
 7752TIP3   OH223200   5.797   4.696   3.440
 7752TIP3    H123201   5.751   4.777   3.461
 7752TIP3    H223202   5.889   4.721   3.433
 7753TIP3   OH223203   5.929   5.261   3.973
 7753TIP3    H123204   5.970   5.334   3.927
 7753TIP3    H223205   5.997   5.227   4.030
 7754TIP3   OH223206   5.575   5.168   3.357
 7754TIP3    H123207   5.489   5.170   3.399
 7754TIP3    H223208   5.608   5.257   3.364
 7755TIP3   OH223209   6.314   4.855   3.932
 7755TIP3    H123210   6.267   4.865   4.015
 7755TIP3    H223211   6.406   4.864   3.956
 7756TIP3   OH223212   6.282   4.803   2.829
 7756TIP3    H123213   6.340   4.802   2.905
 7756TIP3    H223214   6.198   4.771   2.862
 7757TIP3   OH223215   6.537   5.431   3.988
 7757TIP3    H123216   6.468   5.364   3.991
 7757TIP3    H223217   6.513   5.488   3.915
 7758TIP3   OH223218   6.603   5.272   2.617
 7758TIP3    H123219   6.622   5.334   2.546
 7758TIP3    H223220   6.533   5.314   2.666
 7759TIP3   OH223221   5.632   4.035   4.499
 7759TIP3    H123222   5.537   4.044   4.513
 7759TIP3    H223223   5.662   3.987   4.577
 7760TIP3   OH223224   6.467   4.806   3.037
 7760TIP3    H123225   6.439   4.792   3.128
 7760TIP3    H223226   6.553   4.763   3.032
 7761TIP3   OH223227   5.357   5.120   4.133
 7761TIP3    H123228   5.392   5.042   4.178
 7761TIP3    H223229   5.383   5.193   4.189
 7762TIP3   OH223230   5.631   4.772   2.821
 7762TIP3    H123231   5.648   4.682   2.794
 7762TIP3    H223232   5.619   4.767   2.916
 7763TIP3   OH223233   5.588   4.784   3.094
 7763TIP3    H123234   5.667   4.751   3.137
 7763TIP3    H223235   5.593   4.879   3.105
 7764TIP3   OH223236   5.313   4.472   3.312
 7764TIP3    H123237   5.246   4.521   3.361
 7764TIP3    H223238   5.338   4.531   3.241
 7765TIP3   OH223239   6.515   4.086   4.144
 7765TIP3    H123240   6.565   4.150   4.194
 7765TIP3    H223241   6.483   4.024   4.209
 7766TIP3   OH223242   6.364   3.845   3.356
 7766TIP3    H123243   6.342   3.866   3.265
 7766TIP3    H223244   6.410   3.922   3.388
 7767TIP3   OH223245   5.864   4.984   3.034
 7767TIP3    H123246   5.779   5.001   3.076
 7767TIP3    H223247   5.875   5.056   2.972
 7768TIP3   OH223248   6.039   4.042   3.376
 7768TIP3    H123249   6.099   4.115   3.359
 7768TIP3    H223250   6.031   4.040   3.472
 7769TIP3   OH223251   6.352   4.384   4.242
 7769TIP3    H123252   6.359   4.436   4.323
 7769TIP3    H223253   6.342   4.294   4.272
 7770TIP3   OH223254   6.191   3.752   3.548
 7770TIP3    H123255   6.221   3.794   3.629
 7770TIP3    H223256   6.249   3.785   3.481
 7771TIP3   OH223257   5.608   5.060   3.108
 7771TIP3    H123258   5.584   5.129   3.048
 7771TIP3    H223259   5.595   5.097   3.195
 7772TIP3   OH223260   5.705   3.747   3.356
 7772TIP3    H123261   5.702   3.840   3.380
 7772TIP3    H223262   5.798   3.725   3.360
 7773TIP3   OH223263   6.934   4.241   4.232
 7773TIP3    H123264   6.840   4.251   4.244
 7773TIP3    H223265   6.943   4.188   4.153
 7774TIP3   OH223266   6.598   4.416   3.619
 7774TIP3    H123267   6.569   4.324   3.621
 7774TIP3    H223268   6.680   4.416   3.668
 7775TIP3   OH223269   5.339   4.655   3.095
 7775TIP3    H123270   5.412   4.716   3.105
 7775TIP3    H223271   5.370   4.591   3.031
 7776TIP3   OH223272   5.242   3.945   3.219
 7776TIP3    H123273   5.261   4.039   3.228
 7776TIP3    H223274   5.160   3.943   3.169
 7777TIP3   OH223275   6.584   5.436   3.553
 7777TIP3    H123276   6.536   5.476   3.480
 7777TIP3    H223277   6.675   5.462   3.539
 7778TIP3   OH223278   5.643   3.670   4.086
 7778TIP3    H123279   5.615   3.641   3.999
 7778TIP3    H223280   5.633   3.592   4.141
 7779TIP3   OH223281   5.170   4.917   3.483
 7779TIP3    H123282   5.130   4.958   3.560
 7779TIP3    H223283   5.130   4.962   3.408
 7780TIP3   OH223284   5.368   5.457   4.556
 7780TIP3    H123285   5.450   5.461   4.604
 7780TIP3    H223286   5.352   5.363   4.544
 7781TIP3   OH223287   5.838   5.389   4.588
 7781TIP3    H123288   5.923   5.348   4.605
 7781TIP3    H223289   5.802   5.340   4.514
 7782TIP3   OH223290   5.795   4.967   2.714
 7782TIP3    H123291   5.744   4.900   2.760
 7782TIP3    H223292   5.870   4.919   2.679
 7783TIP3   OH223293   6.474   5.316   4.307
 7783TIP3    H123294   6.460   5.248   4.373
 7783TIP3    H223295   6.542   5.372   4.345
 7784TIP3   OH223296   6.239   5.007   2.644
 7784TIP3    H123297   6.266   4.940   2.708
 7784TIP3    H223298   6.300   4.997   2.571
 7785TIP3   OH223299   5.441   4.859   4.758
 7785TIP3    H123300   5.487   4.776   4.746
 7785TIP3    H223301   5.384   4.868   4.681
 7786TIP3   OH223302   5.461   4.467   2.938
 7786TIP3    H123303   5.511   4.442   3.016
 7786TIP3    H223304   5.527   4.481   2.870
 7787TIP3   OH223305   6.085   4.945   4.520
 7787TIP3    H123306   6.035   4.964   4.441
 7787TIP3    H223307   6.115   4.855   4.509
 7788TIP3   OH223308   5.978   4.688   2.741
 7788TIP3    H123309   5.976   4.704   2.836
 7788TIP3    H223310   5.978   4.593   2.733
 7789TIP3   OH223311   6.549   4.962   4.081
 7789TIP3    H123312   6.629   5.009   4.060
 7789TIP3    H223313   6.482   5.030   4.091
 7790TIP3   OH223314   5.595   4.620   4.732
 7790TIP3    H123315   5.678   4.602   4.687
 7790TIP3    H223316   5.619   4.637   4.823
 7791TIP3   OH223317   5.634   4.409   3.148
 7791TIP3    H123318   5.614   4.383   3.238
 7791TIP3    H223319   5.681   4.334   3.112
 7792TIP3   OH223320   5.947   4.501   4.395
 7792TIP3    H123321   5.856   4.524   4.381
 7792TIP3    H223322   5.989   4.514   4.309
 7793TIP3   OH223323   5.766   4.217   2.996
 7793TIP3    H123324   5.740   4.223   2.904
 7793TIP3    H223325   5.861   4.227   2.994
 7794TIP3   OH223326   6.446   4.870   4.502
 7794TIP3    H123327   6.534   4.840   4.480
 7794TIP3    H223328   6.425   4.825   4.584
 7795TIP3   OH223329   6.570   4.514   2.675
 7795TIP3    H123330   6.557   4.473   2.589
 7795TIP3    H223331   6.541   4.605   2.663
 7796TIP3   OH223332   6.050   4.270   4.509
 7796TIP3    H123333   6.046   4.195   4.451
 7796TIP3    H223334   6.011   4.342   4.459
 7797TIP3   OH223335   6.059   4.047   4.333
 7797TIP3    H123336   6.081   4.104   4.259
 7797TIP3    H223337   5.967   4.022   4.317
 7798TIP3   OH223338   6.089   4.563   4.171
 7798TIP3    H123339   6.174   4.605   4.157
 7798TIP3    H223340   6.025   4.627   4.139
 7799TIP3   OH223341   6.651   4.574   4.571
 7799TIP3    H123342   6.712   4.505   4.599
 7799TIP3    H223343   6.706   4.652   4.566
 7800TIP3   OH223344   6.700   4.819   4.268
 7800TIP3    H123345   6.636   4.868   4.216
 7800TIP3    H223346   6.785   4.847   4.234
 7801TIP3   OH223347   5.936   4.338   4.756
 7801TIP3    H123348   5.862   4.279   4.771
 7801TIP3    H223349   5.961   4.323   4.665
 7802TIP3   OH223350   6.183   3.814   4.410
 7802TIP3    H123351   6.142   3.896   4.384
 7802TIP3    H223352   6.116   3.747   4.396
 7803TIP3   OH223353   6.306   4.298   4.613
 7803TIP3    H123354   6.290   4.284   4.707
 7803TIP3    H223355   6.220   4.285   4.573
 7804TIP3   OH223356   6.534   4.235   4.468
 7804TIP3    H123357   6.459   4.247   4.526
 7804TIP3    H223358   6.608   4.221   4.527
 7805TIP3   OH223359   6.777   4.206   4.609
 7805TIP3    H123360   6.790   4.112   4.624
 7805TIP3    H223361   6.769   4.243   4.697
 7806TIP3   OH223362   5.764   4.122   4.819
 7806TIP3    H123363   5.772   4.033   4.784
 7806TIP3    H223364   5.803   4.118   4.906
 7807TIP3   OH223365   6.251   3.800   4.676
 7807TIP3    H123366   6.320   3.734   4.669
 7807TIP3    H223367   6.219   3.811   4.587
 7808TIP3   OH223368   6.345   4.017   4.821
 7808TIP3    H123369   6.313   3.947   4.764
 7808TIP3    H223370   6.273   4.081   4.821
 7809TIP3   OH223371   5.598   5.273   2.926
 7809TIP3    H123372   5.687   5.249   2.898
 7809TIP3    H223373   5.560   5.318   2.851
 7810TIP3   OH223374   5.065   4.649   3.108
 7810TIP3    H123375   5.160   4.661   3.106
 7810TIP3    H223376   5.050   4.563   3.069
 7811TIP3   OH223377   4.962   5.240   3.557
 7811TIP3    H123378   4.899   5.183   3.513
 7811TIP3    H223379   5.011   5.182   3.616
 7812TIP3   OH223380   5.122   5.084   3.718
 7812TIP3    H123381   5.120   5.015   3.784
 7812TIP3    H223382   5.164   5.158   3.762
 7813TIP3   OH223383   6.841   5.536   3.537
 7813TIP3    H123384   6.873   5.530   3.627
 7813TIP3    H223385   6.919   5.529   3.483
 7814TIP3   OH223386   6.896   5.511   3.813
 7814TIP3    H123387   6.840   5.433   3.816
 7814TIP3    H223388   6.961   5.496   3.881
 7815TIP3   OH223389   6.908   5.201   4.408
 7815TIP3    H123390   6.835   5.210   4.470
 7815TIP3    H223391   6.953   5.286   4.413
 7816TIP3   OH223392   6.739   4.719   3.006
 7816TIP3    H123393   6.799   4.787   2.977
 7816TIP3    H223394   6.783   4.678   3.080
 7817TIP3   OH223395   6.867   4.577   3.206
 7817TIP3    H123396   6.802   4.535   3.263
 7817TIP3    H223397   6.931   4.613   3.267
 7818TIP3   OH223398   6.937   4.987   3.629
 7818TIP3    H123399   6.983   4.913   3.591
 7818TIP3    H223400   6.947   5.057   3.565
 7819TIP3   OH223401   6.735   5.291   3.850
 7819TIP3    H123402   6.667   5.333   3.903
 7819TIP3    H223403   6.688   5.248   3.779
 7820TIP3   OH223404   6.779   4.493   2.852
 7820TIP3    H123405   6.707   4.492   2.788
 7820TIP3    H223406   6.761   4.570   2.906
 7821TIP3   OH223407   6.645   4.138   2.785
 7821TIP3    H123408   6.591   4.176   2.716
 7821TIP3    H223409   6.634   4.044   2.775
 7822TIP3   OH223410   6.680   4.426   3.348
 7822TIP3    H123411   6.680   4.333   3.325
 7822TIP3    H223412   6.652   4.428   3.440
 7823TIP3   OH223413   6.963   4.868   4.195
 7823TIP3    H123414   7.026   4.797   4.183
 7823TIP3    H223415   6.997   4.940   4.143
 7824TIP3   OH223416   7.129   4.649   4.199
 7824TIP3    H123417   7.053   4.607   4.240
 7824TIP3    H223418   7.203   4.593   4.221
 7825TIP3   OH223419   6.598   3.866   2.759
 7825TIP3    H123420   6.659   3.843   2.830
 7825TIP3    H223421   6.513   3.832   2.788
 7826TIP3   OH223422   6.669   4.163   3.229
 7826TIP3    H123423   6.711   4.078   3.242
 7826TIP3    H223424   6.709   4.198   3.150
 7827TIP3   OH223425   6.829   4.337   3.753
 7827TIP3    H123426   6.912   4.353   3.710
 7827TIP3    H223427   6.840   4.372   3.842
 7828TIP3   OH223428   6.895   4.479   3.984
 7828TIP3    H123429   6.826   4.504   4.045
 7828TIP3    H223430   6.922   4.561   3.942
 7829TIP3   OH223431   5.499   4.178   4.763
 7829TIP3    H123432   5.594   4.180   4.775
 7829TIP3    H223433   5.471   4.097   4.806
 7830TIP3   OH223434   7.343   4.050   4.531
 7830TIP3    H123435   7.405   4.000   4.478
 7830TIP3    H223436   7.306   4.114   4.471
 7831TIP3   OH223437   6.779   3.909   3.276
 7831TIP3    H123438   6.820   3.894   3.362
 7831TIP3    H223439   6.712   3.840   3.270
 7832TIP3   OH223440   5.474   3.883   4.146
 7832TIP3    H123441   5.533   3.809   4.133
 7832TIP3    H223442   5.528   3.960   4.129
 7833TIP3   OH223443   7.202   4.199   4.350
 7833TIP3    H123444   7.128   4.236   4.399
 7833TIP3    H223445   7.161   4.137   4.289
 7834TIP3   OH223446   6.825   3.826   2.920
 7834TIP3    H123447   6.871   3.764   2.863
 7834TIP3    H223448   6.882   3.903   2.923
 7835TIP3   OH223449   5.242   3.635   3.659
 7835TIP3    H123450   5.159   3.638   3.707
 7835TIP3    H223451   5.234   3.705   3.594
 7836TIP3   OH223452   6.420   5.346   3.200
 7836TIP3    H123453   6.474   5.347   3.121
 7836TIP3    H223454   6.448   5.423   3.250
 7837TIP3   OH223455   5.475   3.697   4.500
 7837TIP3    H123456   5.432   3.704   4.585
 7837TIP3    H223457   5.419   3.747   4.441
 7838TIP3   OH223458   5.508   5.181   4.538
 7838TIP3    H123459   5.417   5.156   4.555
 7838TIP3    H223460   5.559   5.105   4.566
 7839TIP3   OH223461   5.691   5.209   4.116
 7839TIP3    H123462   5.648   5.289   4.083
 7839TIP3    H223463   5.777   5.209   4.074
 7840TIP3   OH223464   6.125   5.454   4.260
 7840TIP3    H123465   6.164   5.440   4.346
 7840TIP3    H223466   6.190   5.506   4.213
 7841TIP3   OH223467   6.317   5.606   4.127
 7841TIP3    H123468   6.385   5.543   4.099
 7841TIP3    H223469   6.364   5.669   4.181
 7842TIP3   OH223470   7.106   3.951   4.217
 7842TIP3    H123471   7.020   3.951   4.173
 7842TIP3    H223472   7.137   3.861   4.209
 7843TIP3   OH223473   5.378   5.500   4.150
 7843TIP3    H123474   5.284   5.512   4.137
 7843TIP3    H223475   5.397   5.552   4.228
 7844TIP3   OH223476   5.608   5.454   4.011
 7844TIP3    H123477   5.527   5.467   4.060
 7844TIP3    H223478   5.585   5.477   3.921
 7845TIP3   OH223479   6.021   5.469   3.807
 7845TIP3    H123480   5.946   5.483   3.749
 7845TIP3    H223481   6.032   5.553   3.851
 7846TIP3   OH223482   6.285   5.394   3.838
 7846TIP3    H123483   6.192   5.414   3.830
 7846TIP3    H223484   6.329   5.470   3.799
 7847TIP3   OH223485   6.495   5.591   3.761
 7847TIP3    H123486   6.452   5.661   3.711
 7847TIP3    H223487   6.529   5.532   3.694
 7848TIP3   OH223488   5.282   5.254   3.895
 7848TIP3    H123489   5.302   5.212   3.979
 7848TIP3    H223490   5.354   5.228   3.838
 7849TIP3   OH223491   5.483   5.158   3.740
 7849TIP3    H123492   5.490   5.077   3.790
 7849TIP3    H223493   5.571   5.195   3.742
 7850TIP3   OH223494   5.754   5.225   3.761
 7850TIP3    H123495   5.766   5.131   3.748
 7850TIP3    H223496   5.804   5.244   3.841
 7851TIP3   OH223497   6.288   3.828   3.793
 7851TIP3    H123498   6.260   3.786   3.874
 7851TIP3    H223499   6.379   3.801   3.782
 7852TIP3   OH223500   6.832   3.777   3.743
 7852TIP3    H123501   6.864   3.825   3.666
 7852TIP3    H223502   6.738   3.794   3.743
 7853TIP3   OH223503   6.933   3.857   3.503
 7853TIP3    H123504   7.001   3.797   3.473
 7853TIP3    H223505   6.970   3.944   3.488
 7854TIP3   OH223506   5.561   3.560   3.843
 7854TIP3    H123507   5.471   3.530   3.854
 7854TIP3    H223508   5.613   3.480   3.839
 7855TIP3   OH223509   5.372   3.457   3.490
 7855TIP3    H123510   5.398   3.513   3.417
 7855TIP3    H223511   5.331   3.517   3.553
 7856TIP3   OH223512   6.031   3.610   3.739
 7856TIP3    H123513   6.071   3.664   3.671
 7856TIP3    H223514   6.060   3.649   3.822
 7857TIP3   OH223515   6.551   3.756   3.727
 7857TIP3    H123516   6.554   3.727   3.636
 7857TIP3    H223517   6.549   3.676   3.779
 7858TIP3   OH223518   6.590   3.700   3.284
 7858TIP3    H123519   6.509   3.747   3.304
 7858TIP3    H223520   6.578   3.613   3.324
 7859TIP3   OH223521   5.058   5.043   3.266
 7859TIP3    H123522   4.973   5.008   3.240
 7859TIP3    H223523   5.058   5.133   3.234
 7860TIP3   OH223524   5.483   3.601   3.263
 7860TIP3    H123525   5.529   3.541   3.203
 7860TIP3    H223526   5.553   3.654   3.301
 7861TIP3   OH223527   5.985   3.775   3.357
 7861TIP3    H123528   6.044   3.746   3.426
 7861TIP3    H223529   5.992   3.870   3.358
 7862TIP3   OH223530   5.851   5.196   2.852
 7862TIP3    H123531   5.936   5.222   2.816
 7862TIP3    H223532   5.823   5.123   2.797
 7863TIP3   OH223533   6.560   5.328   2.959
 7863TIP3    H123534   6.552   5.233   2.950
 7863TIP3    H223535   6.514   5.363   2.882
 7864TIP3   OH223536   5.777   3.851   4.727
 7864TIP3    H123537   5.742   3.785   4.786
 7864TIP3    H223538   5.869   3.859   4.752
 7865TIP3   OH223539   6.026   3.855   4.850
 7865TIP3    H123540   6.105   3.834   4.801
 7865TIP3    H223541   6.019   3.786   4.916
 7866TIP3   OH223542   5.159   5.040   2.916
 7866TIP3    H123543   5.160   5.044   3.012
 7866TIP3    H223544   5.240   4.994   2.893
 7867TIP3   OH223545   6.849   3.938   4.643
 7867TIP3    H123546   6.867   3.913   4.733
 7867TIP3    H223547   6.934   3.933   4.599
 7868TIP3   OH223548   6.773   5.478   4.142
 7868TIP3    H123549   6.691   5.449   4.102
 7868TIP3    H223550   6.759   5.572   4.158
 7869TIP3   OH223551   8.059   4.870   2.870
 7869TIP3    H123552   8.018   4.956   2.864
 7869TIP3    H223553   7.988   4.808   2.855
 7870TIP3   OH223554   7.970   4.861   3.305
 7870TIP3    H123555   8.022   4.854   3.385
 7870TIP3    H223556   7.944   4.771   3.285
 7871TIP3   OH223557   7.348   4.726   3.654
 7871TIP3    H123558   7.383   4.671   3.724
 7871TIP3    H223559   7.424   4.751   3.601
 7872TIP3   OH223560   8.295   5.143   2.983
 7872TIP3    H123561   8.280   5.099   3.067
 7872TIP3    H223562   8.287   5.236   3.003
 7873TIP3   OH223563   7.318   5.146   3.352
 7873TIP3    H123564   7.309   5.051   3.353
 7873TIP3    H223565   7.412   5.161   3.344
 7874TIP3   OH223566   7.020   4.352   3.129
 7874TIP3    H123567   6.980   4.435   3.154
 7874TIP3    H223568   6.949   4.302   3.089
 7875TIP3   OH223569   7.097   4.660   3.345
 7875TIP3    H123570   7.147   4.582   3.370
 7875TIP3    H223571   7.164   4.722   3.315
 7876TIP3   OH223572   7.964   5.596   3.008
 7876TIP3    H123573   8.001   5.527   2.952
 7876TIP3    H223574   7.968   5.560   3.096
 7877TIP3   OH223575   7.837   5.100   3.323
 7877TIP3    H123576   7.874   5.015   3.300
 7877TIP3    H223577   7.913   5.154   3.345
 7878TIP3   OH223578   8.222   4.573   3.378
 7878TIP3    H123579   8.192   4.492   3.337
 7878TIP3    H223580   8.229   4.635   3.305
 7879TIP3   OH223581   7.589   4.226   3.318
 7879TIP3    H123582   7.571   4.299   3.259
 7879TIP3    H223583   7.540   4.153   3.282
 7880TIP3   OH223584   8.237   4.341   2.935
 7880TIP3    H123585   8.290   4.302   3.004
 7880TIP3    H223586   8.248   4.435   2.946
 7881TIP3   OH223587   7.237   4.440   3.436
 7881TIP3    H123588   7.320   4.422   3.481
 7881TIP3    H223589   7.241   4.387   3.356
 7882TIP3   OH223590   7.651   4.639   3.252
 7882TIP3    H123591   7.744   4.621   3.266
 7882TIP3    H223592   7.616   4.557   3.216
 7883TIP3   OH223593   7.578   4.233   3.771
 7883TIP3    H123594   7.530   4.270   3.697
 7883TIP3    H223595   7.523   4.252   3.847
 7884TIP3   OH223596   7.920   5.086   2.754
 7884TIP3    H123597   7.878   5.055   2.674
 7884TIP3    H223598   7.871   5.164   2.779
 7885TIP3   OH223599   7.691   5.003   3.536
 7885TIP3    H123600   7.636   5.073   3.573
 7885TIP3    H223601   7.739   5.046   3.465
 7886TIP3   OH223602   7.476   4.338   3.539
 7886TIP3    H123603   7.533   4.413   3.559
 7886TIP3    H223604   7.518   4.294   3.466
 7887TIP3   OH223605   7.532   5.202   3.641
 7887TIP3    H123606   7.522   5.291   3.609
 7887TIP3    H223607   7.454   5.185   3.694
 7888TIP3   OH223608   6.916   4.908   2.887
 7888TIP3    H123609   6.878   4.926   2.801
 7888TIP3    H223610   6.941   4.994   2.921
 7889TIP3   OH223611   8.221   5.411   3.000
 7889TIP3    H123612   8.186   5.399   3.088
 7889TIP3    H223613   8.284   5.483   3.009
 7890TIP3   OH223614   7.908   3.940   3.487
 7890TIP3    H123615   7.892   3.849   3.513
 7890TIP3    H223616   7.834   3.989   3.522
 7891TIP3   OH223617   8.069   5.451   2.780
 7891TIP3    H123618   8.124   5.411   2.847
 7891TIP3    H223619   8.120   5.526   2.749
 7892TIP3   OH223620   8.179   5.164   2.736
 7892TIP3    H123621   8.087   5.140   2.749
 7892TIP3    H223622   8.217   5.161   2.824
 7893TIP3   OH223623   0.106   5.336   3.472
 7893TIP3    H123624   0.201   5.322   3.478
 7893TIP3    H223625   0.097   5.414   3.417
 7894TIP3   OH223626   7.862   4.719   2.737
 7894TIP3    H123627   7.779   4.767   2.727
 7894TIP3    H223628   7.892   4.704   2.648
 7895TIP3   OH223629   7.821   4.498   2.435
 7895TIP3    H123630   7.892   4.541   2.482
 7895TIP3    H223631   7.863   4.425   2.389
 7896TIP3   OH223632   8.224   4.832   2.656
 7896TIP3    H123633   8.166   4.856   2.729
 7896TIP3    H223634   8.252   4.743   2.677
 7897TIP3   OH223635   8.365   4.838   3.677
 7897TIP3    H123636   8.446   4.888   3.667
 7897TIP3    H223637   8.298   4.903   3.696
 7898TIP3   OH223638   7.456   4.774   3.108
 7898TIP3    H123639   7.421   4.714   3.042
 7898TIP3    H223640   7.529   4.727   3.147
 7899TIP3   OH223641   7.582   5.197   3.252
 7899TIP3    H123642   7.569   5.180   3.159
 7899TIP3    H223643   7.671   5.167   3.270
 7900TIP3   OH223644   7.562   4.769   3.479
 7900TIP3    H123645   7.599   4.735   3.398
 7900TIP3    H223646   7.612   4.849   3.496
 7901TIP3   OH223647   8.062   5.397   3.230
 7901TIP3    H123648   8.072   5.479   3.279
 7901TIP3    H223649   8.095   5.330   3.290
 7902TIP3   OH223650   7.738   5.319   3.792
 7902TIP3    H123651   7.679   5.374   3.844
 7902TIP3    H223652   7.679   5.262   3.743
 7903TIP3   OH223653   8.050   4.628   2.521
 7903TIP3    H123654   8.051   4.723   2.528
 7903TIP3    H223655   8.090   4.610   2.436
 7904TIP3   OH223656   7.488   4.850   3.945
 7904TIP3    H123657   7.494   4.944   3.961
 7904TIP3    H223658   7.394   4.833   3.939
 7905TIP3   OH223659   7.813   5.337   2.785
 7905TIP3    H123660   7.897   5.383   2.792
 7905TIP3    H223661   7.757   5.398   2.737
 7906TIP3   OH223662   7.520   5.463   3.882
 7906TIP3    H123663   7.495   5.471   3.790
 7906TIP3    H223664   7.438   5.449   3.929
 7907TIP3   OH223665   7.335   4.615   2.906
 7907TIP3    H123666   7.257   4.661   2.874
 7907TIP3    H223667   7.305   4.526   2.923
 7908TIP3   OH223668   8.496   5.298   2.014
 7908TIP3    H123669   8.417   5.353   2.005
 7908TIP3    H223670   8.476   5.219   1.963
 7909TIP3   OH223671   7.117   5.019   3.841
 7909TIP3    H123672   7.054   5.003   3.771
 7909TIP3    H223673   7.152   4.932   3.862
 7910TIP3   OH223674   7.031   5.197   3.464
 7910TIP3    H123675   7.115   5.176   3.425
 7910TIP3    H223676   7.050   5.264   3.530
 7911TIP3   OH223677   7.915   5.460   3.639
 7911TIP3    H123678   7.927   5.547   3.677
 7911TIP3    H223679   7.854   5.416   3.700
 7912TIP3   OH223680   7.705   5.551   2.609
 7912TIP3    H123681   7.657   5.531   2.529
 7912TIP3    H223682   7.669   5.635   2.638
 7913TIP3   OH223683   7.136   5.411   2.997
 7913TIP3    H123684   7.180   5.402   3.081
 7913TIP3    H223685   7.087   5.329   2.986
 7914TIP3   OH223686   7.890   5.500   2.248
 7914TIP3    H123687   7.932   5.431   2.198
 7914TIP3    H223688   7.940   5.504   2.330
 7915TIP3   OH223689   7.963   5.508   2.524
 7915TIP3    H123690   7.871   5.515   2.547
 7915TIP3    H223691   8.008   5.490   2.606
 7916TIP3   OH223692   7.311   5.210   3.805
 7916TIP3    H123693   7.362   5.203   3.885
 7916TIP3    H223694   7.241   5.144   3.815
 7917TIP3   OH223695   7.680   4.026   3.618
 7917TIP3    H123696   7.597   3.993   3.585
 7917TIP3    H223697   7.657   4.103   3.670
 7918TIP3   OH223698   8.093   4.154   3.862
 7918TIP3    H123699   8.135   4.142   3.947
 7918TIP3    H223700   8.004   4.182   3.884
 7919TIP3   OH223701   0.061   4.647   3.789
 7919TIP3    H123702   0.004   4.644   3.866
 7919TIP3    H223703   0.040   4.731   3.748
 7920TIP3   OH223704   8.181   4.670   2.277
 7920TIP3    H123705   8.123   4.740   2.247
 7920TIP3    H223706   8.249   4.715   2.326
 7921TIP3   OH223707   7.811   4.057   2.584
 7921TIP3    H123708   7.781   4.063   2.675
 7921TIP3    H223709   7.782   3.971   2.554
 7922TIP3   OH223710   7.639   4.544   3.623
 7922TIP3    H123711   7.596   4.556   3.708
 7922TIP3    H223712   7.619   4.625   3.575
 7923TIP3   OH223713   7.512   4.424   3.147
 7923TIP3    H123714   7.422   4.400   3.170
 7923TIP3    H223715   7.523   4.392   3.058
 7924TIP3   OH223716   7.970   4.513   2.883
 7924TIP3    H123717   7.929   4.587   2.840
 7924TIP3    H223718   8.029   4.475   2.817
 7925TIP3   OH223719   8.164   4.772   3.957
 7925TIP3    H123720   8.145   4.697   4.013
 7925TIP3    H223721   8.255   4.795   3.978
 7926TIP3   OH223722   8.083   4.482   3.134
 7926TIP3    H123723   8.044   4.513   3.052
 7926TIP3    H223724   8.110   4.392   3.115
 7927TIP3   OH223725   7.472   4.561   3.845
 7927TIP3    H123726   7.491   4.630   3.908
 7927TIP3    H223727   7.451   4.484   3.899
 7928TIP3   OH223728   7.497   4.023   2.559
 7928TIP3    H123729   7.489   4.033   2.654
 7928TIP3    H223730   7.425   4.075   2.524
 7929TIP3   OH223731   7.062   4.081   3.428
 7929TIP3    H123732   7.133   4.118   3.479
 7929TIP3    H223733   7.101   4.063   3.342
 7930TIP3   OH223734   6.983   4.057   2.932
 7930TIP3    H123735   7.027   4.092   2.855
 7930TIP3    H223736   6.919   4.124   2.956
 7931TIP3   OH223737   8.107   4.779   3.526
 7931TIP3    H123738   8.152   4.715   3.471
 7931TIP3    H223739   8.098   4.735   3.610
 7932TIP3   OH223740   7.834   4.274   3.199
 7932TIP3    H123741   7.761   4.256   3.258
 7932TIP3    H223742   7.906   4.223   3.235
 7933TIP3   OH223743   7.277   4.295   3.207
 7933TIP3    H123744   7.189   4.302   3.171
 7933TIP3    H223745   7.305   4.206   3.187
 7934TIP3   OH223746   7.519   4.302   2.902
 7934TIP3    H123747   7.614   4.310   2.892
 7934TIP3    H223748   7.484   4.317   2.814
 7935TIP3   OH223749   8.207   4.282   3.367
 7935TIP3    H123750   8.188   4.300   3.459
 7935TIP3    H223751   8.302   4.288   3.360
 7936TIP3   OH223752   7.408   4.320   2.655
 7936TIP3    H123753   7.344   4.272   2.601
 7936TIP3    H223754   7.460   4.368   2.591
 7937TIP3   OH223755   0.003   6.005   3.706
 7937TIP3    H123756   0.007   6.040   3.617
 7937TIP3    H223757   0.074   6.050   3.753
 7938TIP3   OH223758   7.469   5.115   4.038
 7938TIP3    H123759   7.550   5.140   4.083
 7938TIP3    H223760   7.401   5.127   4.105
 7939TIP3   OH223761   7.910   4.583   3.321
 7939TIP3    H123762   7.970   4.544   3.257
 7939TIP3    H223763   7.927   4.535   3.402
 7940TIP3   OH223764   7.421   4.047   3.185
 7940TIP3    H123765   7.394   3.971   3.236
 7940TIP3    H223766   7.443   4.012   3.099
 7941TIP3   OH223767   7.906   4.473   3.603
 7941TIP3    H123768   7.816   4.505   3.602
 7941TIP3    H223769   7.956   4.541   3.648
 7942TIP3   OH223770   7.624   4.857   2.679
 7942TIP3    H123771   7.553   4.795   2.660
 7942TIP3    H223772   7.603   4.891   2.766
 7943TIP3   OH223773   8.510   5.058   3.314
 7943TIP3    H123774   8.496   4.973   3.272
 7943TIP3    H223775   8.422   5.093   3.327
 7944TIP3   OH223776   8.056   4.169   2.564
 7944TIP3    H123777   7.962   4.150   2.572
 7944TIP3    H223778   8.064   4.259   2.597
 7945TIP3   OH223779   8.015   5.203   3.692
 7945TIP3    H123780   8.061   5.226   3.772
 7945TIP3    H223781   7.972   5.284   3.665
 7946TIP3   OH223782   8.116   4.413   2.669
 7946TIP3    H123783   8.208   4.423   2.693
 7946TIP3    H223784   8.097   4.490   2.615
 7947TIP3   OH223785   7.329   4.862   3.336
 7947TIP3    H123786   7.367   4.843   3.251
 7947TIP3    H223787   7.395   4.832   3.399
 7948TIP3   OH223788   7.777   5.019   2.521
 7948TIP3    H123789   7.728   5.101   2.523
 7948TIP3    H223790   7.723   4.958   2.571
 7949TIP3   OH223791   7.216   4.785   3.967
 7949TIP3    H123792   7.220   4.762   4.060
 7949TIP3    H223793   7.140   4.739   3.934
 7950TIP3   OH223794   7.944   4.923   3.997
 7950TIP3    H123795   7.884   4.884   3.934
 7950TIP3    H223796   8.029   4.885   3.977
 7951TIP3   OH223797   8.185   5.453   3.530
 7951TIP3    H123798   8.091   5.447   3.546
 7951TIP3    H223799   8.218   5.505   3.603
 7952TIP3   OH223800   8.433   5.256   2.364
 7952TIP3    H123801   8.369   5.268   2.434
 7952TIP3    H223802   8.433   5.161   2.349
 7953TIP3   OH223803   8.236   5.016   3.226
 7953TIP3    H123804   8.165   5.051   3.280
 7953TIP3    H223805   8.213   4.923   3.216
 7954TIP3   OH223806   7.452   5.200   2.996
 7954TIP3    H123807   7.452   5.278   2.941
 7954TIP3    H223808   7.360   5.187   3.019
 7955TIP3   OH223809   7.016   4.483   2.711
 7955TIP3    H123810   7.059   4.566   2.732
 7955TIP3    H223811   6.936   4.484   2.762
 7956TIP3   OH223812   7.548   4.954   2.917
 7956TIP3    H123813   7.527   5.043   2.944
 7956TIP3    H223814   7.520   4.899   2.990
 7957TIP3   OH223815   7.730   5.527   3.446
 7957TIP3    H123816   7.766   5.601   3.397
 7957TIP3    H223817   7.803   5.497   3.499
 7958TIP3   OH223818   7.367   5.431   2.849
 7958TIP3    H123819   7.281   5.432   2.892
 7958TIP3    H223820   7.397   5.522   2.851
 7959TIP3   OH223821   8.096   5.165   3.427
 7959TIP3    H123822   8.063   5.164   3.517
 7959TIP3    H223823   8.189   5.184   3.437
 7960TIP3   OH223824   8.011   5.155   2.325
 7960TIP3    H123825   8.095   5.131   2.364
 7960TIP3    H223826   7.947   5.104   2.374
 7961TIP3   OH223827   8.308   5.705   3.454
 7961TIP3    H123828   8.244   5.634   3.447
 7961TIP3    H223829   8.288   5.763   3.381
 7962TIP3   OH223830   7.417   4.305   3.982
 7962TIP3    H123831   7.322   4.320   3.982
 7962TIP3    H223832   7.429   4.229   4.040
 7963TIP3   OH223833   8.219   5.046   2.487
 7963TIP3    H123834   8.238   4.966   2.536
 7963TIP3    H223835   8.202   5.112   2.555
 7964TIP3   OH223836   7.159   5.399   3.627
 7964TIP3    H123837   7.213   5.339   3.679
 7964TIP3    H223838   7.171   5.484   3.668
 7965TIP3   OH223839   7.426   5.033   2.312
 7965TIP3    H123840   7.443   4.944   2.284
 7965TIP3    H223841   7.412   5.027   2.407
 7966TIP3   OH223842   7.376   5.045   2.584
 7966TIP3    H123843   7.449   5.019   2.640
 7966TIP3    H223844   7.373   5.141   2.592
 7967TIP3   OH223845   7.112   4.734   2.791
 7967TIP3    H123846   7.047   4.781   2.843
 7967TIP3    H223847   7.131   4.793   2.718
 7968TIP3   OH223848   8.177   4.347   3.627
 7968TIP3    H123849   8.238   4.420   3.636
 7968TIP3    H223850   8.092   4.383   3.653
 7969TIP3   OH223851   8.089   4.122   2.851
 7969TIP3    H123852   8.097   4.112   2.756
 7969TIP3    H223853   8.134   4.204   2.871
 7970TIP3   OH223854   7.635   5.245   2.526
 7970TIP3    H123855   7.549   5.268   2.562
 7970TIP3    H223856   7.656   5.317   2.467
 7971TIP3   OH223857   7.793   4.311   2.933
 7971TIP3    H123858   7.854   4.381   2.908
 7971TIP3    H223859   7.806   4.301   3.028
 7972TIP3   OH223860   8.092   4.616   3.747
 7972TIP3    H123861   8.095   4.677   3.821
 7972TIP3    H223862   8.182   4.583   3.739
 7973TIP3   OH223863   7.940   3.995   3.037
 7973TIP3    H123864   7.966   4.045   3.114
 7973TIP3    H223865   7.991   4.033   2.965
 7974TIP3   OH223866   7.383   5.320   2.599
 7974TIP3    H123867   7.362   5.390   2.537
 7974TIP3    H223868   7.374   5.360   2.685
 7975TIP3   OH223869   7.472   4.029   2.841
 7975TIP3    H123870   7.458   4.120   2.868
 7975TIP3    H223871   7.567   4.017   2.846
 7976TIP3   OH223872   8.256   4.739   3.171
 7976TIP3    H123873   8.225   4.717   3.083
 7976TIP3    H223874   8.344   4.775   3.157
 7977TIP3   OH223875   7.131   4.915   2.576
 7977TIP3    H123876   7.203   4.977   2.587
 7977TIP3    H223877   7.163   4.852   2.511
 7978TIP3   OH223878   7.041   4.205   2.709
 7978TIP3    H123879   7.055   4.299   2.716
 7978TIP3    H223880   6.969   4.196   2.646
 7979TIP3   OH223881   8.359   5.657   3.026
 7979TIP3    H123882   8.326   5.717   2.959
 7979TIP3    H223883   8.449   5.685   3.042
 7980TIP3   OH223884   7.428   3.926   3.576
 7980TIP3    H123885   7.401   3.894   3.490
 7980TIP3    H223886   7.419   3.851   3.634
 7981TIP3   OH223887   6.967   5.184   2.965
 7981TIP3    H123888   6.916   5.215   3.040
 7981TIP3    H223889   6.926   5.224   2.889
 7982TIP3   OH223890   7.160   5.720   4.038
 7982TIP3    H123891   7.243   5.728   4.084
 7982TIP3    H223892   7.144   5.625   4.034
 7983TIP3   OH223893   7.622   5.626   4.079
 7983TIP3    H123894   7.713   5.598   4.091
 7983TIP3    H223895   7.591   5.574   4.005
 7984TIP3   OH223896   7.583   5.231   2.206
 7984TIP3    H123897   7.532   5.164   2.251
 7984TIP3    H223898   7.651   5.182   2.160
 7985TIP3   OH223899   8.243   5.605   3.746
 7985TIP3    H123900   8.226   5.529   3.801
 7985TIP3    H223901   8.293   5.664   3.802
 7986TIP3   OH223902   7.968   5.289   2.092
 7986TIP3    H123903   7.988   5.248   2.176
 7986TIP3    H223904   8.043   5.267   2.036
 7987TIP3   OH223905   7.271   5.117   4.235
 7987TIP3    H123906   7.288   5.024   4.246
 7987TIP3    H223907   7.184   5.121   4.195
 7988TIP3   OH223908   7.256   4.726   2.425
 7988TIP3    H123909   7.306   4.700   2.502
 7988TIP3    H223910   7.322   4.741   2.358
 7989TIP3   OH223911   7.855   5.189   4.009
 7989TIP3    H123912   7.838   5.223   3.921
 7989TIP3    H223913   7.904   5.108   3.994
 7990TIP3   OH223914   7.776   4.939   2.255
 7990TIP3    H123915   7.776   4.957   2.349
 7990TIP3    H223916   7.768   4.844   2.248
 7991TIP3   OH223917   8.299   5.107   3.751
 7991TIP3    H123918   8.312   5.149   3.666
 7991TIP3    H223919   8.249   5.171   3.801
 7992TIP3   OH223920   7.385   4.860   4.234
 7992TIP3    H123921   7.460   4.862   4.175
 7992TIP3    H223922   7.423   4.870   4.321
 7993TIP3   OH223923   7.427   4.666   2.640
 7993TIP3    H123924   7.407   4.635   2.729
 7993TIP3    H223925   7.471   4.592   2.598
 7994TIP3   OH223926   7.730   4.726   3.878
 7994TIP3    H123927   7.654   4.780   3.895
 7994TIP3    H223928   7.774   4.769   3.805
 7995TIP3   OH223929   7.551   4.477   2.483
 7995TIP3    H123930   7.518   4.484   2.393
 7995TIP3    H223931   7.646   4.480   2.474
 7996TIP3   OH223932   7.839   4.515   4.012
 7996TIP3    H123933   7.847   4.440   3.953
 7996TIP3    H223934   7.811   4.587   3.955
 7997TIP3   OH223935   7.835   4.307   3.818
 7997TIP3    H123936   7.871   4.350   3.741
 7997TIP3    H223937   7.743   4.292   3.797
 7998TIP3   OH223938   7.870   4.866   3.694
 7998TIP3    H123939   7.956   4.885   3.656
 7998TIP3    H223940   7.809   4.919   3.642
 7999TIP3   OH223941   8.413   4.813   4.056
 7999TIP3    H123942   8.494   4.767   4.076
 7999TIP3    H223943   8.442   4.889   4.005
 8000TIP3   OH223944   8.505   5.008   3.884
 8000TIP3    H123945   8.421   5.034   3.847
 8000TIP3    H223946   8.563   4.996   3.808
 8001TIP3   OH223947   7.703   4.614   4.229
 8001TIP3    H123948   7.615   4.583   4.208
 8001TIP3    H223949   7.754   4.600   4.149
 8002TIP3   OH223950   7.841   4.067   3.969
 8002TIP3    H123951   7.814   4.142   3.917
 8002TIP3    H223952   7.806   3.991   3.921
 8003TIP3   OH223953   8.110   4.548   4.097
 8003TIP3    H123954   8.137   4.539   4.188
 8003TIP3    H223955   8.018   4.524   4.097
 8004TIP3   OH223956   8.318   4.480   3.925
 8004TIP3    H123957   8.239   4.500   3.974
 8004TIP3    H223958   8.380   4.449   3.990
 8005TIP3   OH223959   8.472   4.418   4.138
 8005TIP3    H123960   8.519   4.353   4.190
 8005TIP3    H223961   8.460   4.492   4.197
 8006TIP3   OH223962   7.570   4.369   4.308
 8006TIP3    H123963   7.541   4.284   4.277
 8006TIP3    H223964   7.664   4.371   4.290
 8007TIP3   OH223965   8.021   4.059   4.171
 8007TIP3    H123966   8.071   3.977   4.169
 8007TIP3    H223967   7.958   4.051   4.100
 8008TIP3   OH223968   8.103   4.269   4.322
 8008TIP3    H123969   8.091   4.200   4.257
 8008TIP3    H223970   8.027   4.326   4.310
 8009TIP3   OH223971   7.383   5.528   2.415
 8009TIP3    H123972   7.473   5.507   2.391
 8009TIP3    H223973   7.347   5.574   2.339
 8010TIP3   OH223974   6.857   4.907   2.593
 8010TIP3    H123975   6.952   4.919   2.590
 8010TIP3    H223976   6.843   4.821   2.556
 8011TIP3   OH223977   6.761   5.492   3.051
 8011TIP3    H123978   6.699   5.435   3.006
 8011TIP3    H223979   6.807   5.436   3.113
 8012TIP3   OH223980   6.905   5.334   3.228
 8012TIP3    H123981   6.899   5.262   3.290
 8012TIP3    H223982   6.958   5.400   3.273
 8013TIP3   OH223983   0.300   5.700   3.285
 8013TIP3    H123984   0.321   5.616   3.327
 8013TIP3    H223985   0.277   5.758   3.357
 8014TIP3   OH223986   8.513   5.562   3.330
 8014TIP3    H123987   8.459   5.620   3.383
 8014TIP3    H223988   8.519   5.606   3.245
 8015TIP3   OH223989   0.038   4.620   2.872
 8015TIP3    H123990   0.130   4.595   2.885
 8015TIP3    H223991   0.042   4.713   2.850
 8016TIP3   OH223992   7.084   4.753   3.602
 8016TIP3    H123993   7.074   4.721   3.512
 8016TIP3    H223994   7.178   4.753   3.617
 8017TIP3   OH223995   7.296   4.435   4.246
 8017TIP3    H123996   7.391   4.427   4.256
 8017TIP3    H223997   7.262   4.356   4.288
 8018TIP3   OH223998   7.269   4.152   3.600
 8018TIP3    H123999   7.322   4.073   3.601
 8018TIP3    H224000   7.331   4.223   3.583
 8019TIP3   OH224001   7.072   4.422   3.662
 8019TIP3    H124002   7.118   4.412   3.578
 8019TIP3    H224003   7.095   4.511   3.691
 8020TIP3   OH224004   7.047   3.924   3.161
 8020TIP3    H124005   6.960   3.911   3.199
 8020TIP3    H224006   7.032   3.978   3.084
 8021TIP3   OH224007   8.199   5.659   2.669
 8021TIP3    H124008   8.253   5.652   2.591
 8021TIP3    H224009   8.247   5.719   2.726
 8022TIP3   OH224010   7.267   3.995   3.989
 8022TIP3    H124011   7.215   3.987   4.068
 8022TIP3    H224012   7.209   4.038   3.925
 8023TIP3   OH224013   7.299   5.434   4.048
 8023TIP3    H124014   7.205   5.416   4.046
 8023TIP3    H224015   7.322   5.433   4.141
 8024TIP3   OH224016   7.508   5.472   3.599
 8024TIP3    H124017   7.456   5.545   3.566
 8024TIP3    H224018   7.594   5.483   3.557
 8025TIP3   OH224019   7.925   5.713   3.754
 8025TIP3    H124020   7.973   5.692   3.834
 8025TIP3    H224021   7.987   5.763   3.701
 8026TIP3   OH224022   8.102   5.862   3.605
 8026TIP3    H124023   8.172   5.806   3.571
 8026TIP3    H224024   8.146   5.920   3.667
 8027TIP3   OH224025   7.166   5.711   3.642
 8027TIP3    H124026   7.078   5.739   3.617
 8027TIP3    H224027   7.193   5.773   3.709
 8028TIP3   OH224028   7.397   5.697   3.491
 8028TIP3    H124029   7.315   5.707   3.539
 8028TIP3    H224030   7.378   5.729   3.403
 8029TIP3   OH224031   7.803   5.741   3.286
 8029TIP3    H124032   7.729   5.758   3.226
 8029TIP3    H224033   7.817   5.825   3.330
 8030TIP3   OH224034   8.059   5.654   3.321
 8030TIP3    H124035   7.969   5.685   3.311
 8030TIP3    H224036   8.113   5.723   3.283
 8031TIP3   OH224037   8.245   5.827   3.217
 8031TIP3    H124038   8.273   5.915   3.192
 8031TIP3    H224039   8.282   5.770   3.150
 8032TIP3   OH224040   7.082   5.506   3.380
 8032TIP3    H124041   7.111   5.478   3.466
 8032TIP3    H224042   7.151   5.476   3.320
 8033TIP3   OH224043   7.279   5.391   3.231
 8033TIP3    H124044   7.291   5.306   3.274
 8033TIP3    H224045   7.366   5.431   3.233
 8034TIP3   OH224046   7.546   5.474   3.246
 8034TIP3    H124047   7.565   5.381   3.236
 8034TIP3    H224048   7.601   5.502   3.320
 8035TIP3   OH224049   8.033   4.100   3.271
 8035TIP3    H124050   8.021   4.043   3.347
 8035TIP3    H224051   8.097   4.165   3.300
 8036TIP3   OH224052   7.350   3.824   3.332
 8036TIP3    H124053   7.260   3.791   3.340
 8036TIP3    H224054   7.404   3.745   3.325
 8037TIP3   OH224055   7.171   3.728   2.992
 8037TIP3    H124056   7.194   3.776   2.913
 8037TIP3    H224057   7.134   3.794   3.051
 8038TIP3   OH224058   7.801   3.854   3.234
 8038TIP3    H124059   7.833   3.907   3.161
 8038TIP3    H224060   7.834   3.897   3.312
 8039TIP3   OH224061   8.483   3.961   3.273
 8039TIP3    H124062   8.554   3.936   3.215
 8039TIP3    H224063   8.405   3.964   3.217
 8040TIP3   OH224064   6.849   5.304   2.747
 8040TIP3    H124065   6.766   5.269   2.717
 8040TIP3    H224066   6.850   5.394   2.716
 8041TIP3   OH224067   7.272   3.856   2.752
 8041TIP3    H124068   7.320   3.796   2.694
 8041TIP3    H224069   7.338   3.915   2.787
 8042TIP3   OH224070   7.744   4.056   2.851
 8042TIP3    H124071   7.800   4.006   2.909
 8042TIP3    H224072   7.763   4.148   2.872
 8043TIP3   OH224073   7.639   5.458   2.346
 8043TIP3    H124074   7.721   5.489   2.309
 8043TIP3    H224075   7.612   5.386   2.289
 8044TIP3   OH224076   8.358   5.617   2.440
 8044TIP3    H124077   8.385   5.526   2.427
 8044TIP3    H224078   8.302   5.636   2.365
 8045TIP3   OH224079   7.560   4.105   4.220
 8045TIP3    H124080   7.528   4.033   4.274
 8045TIP3    H224081   7.652   4.115   4.245
 8046TIP3   OH224082   7.796   4.135   4.368
 8046TIP3    H124083   7.879   4.118   4.324
 8046TIP3    H224084   7.788   4.065   4.433
 8047TIP3   OH224085   6.955   5.296   2.405
 8047TIP3    H124086   6.957   5.300   2.500
 8047TIP3    H224087   7.036   5.250   2.382
 8048TIP3   OH224088   8.516   5.747   3.620
 8048TIP3    H124089   8.436   5.732   3.570
 8048TIP3    H224090   8.505   5.833   3.659
 8049TIP3   OH224091   0.533   5.671   4.621
 8049TIP3    H124092   0.490   5.756   4.608
 8049TIP3    H224093   0.473   5.608   4.582
 8050TIP3   OH224094   0.546   5.658   4.921
 8050TIP3    H124095   0.466   5.667   4.973
 8050TIP3    H224096   0.516   5.636   4.833
 8051TIP3   OH224097   0.764   5.955   4.662
 8051TIP3    H124098   0.770   5.884   4.727
 8051TIP3    H224099   0.793   6.033   4.710
 8052TIP3   OH224100   0.460   6.444   4.696
 8052TIP3    H124101   0.508   6.369   4.659
 8052TIP3    H224102   0.371   6.411   4.707
 8053TIP3   OH224103   0.339   5.760   5.108
 8053TIP3    H124104   0.265   5.750   5.048
 8053TIP3    H224105   0.344   5.854   5.125
 8054TIP3   OH224106   1.352   5.185   5.011
 8054TIP3    H124107   1.360   5.273   5.047
 8054TIP3    H224108   1.382   5.193   4.920
 8055TIP3   OH224109   0.775   5.355   5.044
 8055TIP3    H124110   0.802   5.263   5.052
 8055TIP3    H224111   0.689   5.351   5.003
 8056TIP3   OH224112   0.779   5.093   4.627
 8056TIP3    H124113   0.844   5.090   4.698
 8056TIP3    H224114   0.825   5.134   4.554
 8057TIP3   OH224115   1.398   5.397   5.202
 8057TIP3    H124116   1.318   5.447   5.182
 8057TIP3    H224117   1.440   5.447   5.272
 8058TIP3   OH224118   0.364   5.863   4.495
 8058TIP3    H124119   0.304   5.877   4.422
 8058TIP3    H224120   0.444   5.909   4.470
 8059TIP3   OH224121   0.936   5.132   4.845
 8059TIP3    H124122   0.900   5.107   4.930
 8059TIP3    H224123   0.993   5.206   4.865
 8060TIP3   OH224124   0.810   6.200   4.803
 8060TIP3    H124125   0.721   6.194   4.838
 8060TIP3    H224126   0.815   6.288   4.767
 8061TIP3   OH224127   1.115   5.062   5.151
 8061TIP3    H124128   1.027   5.082   5.121
 8061TIP3    H224129   1.173   5.100   5.085
 8062TIP3   OH224130   0.433   4.728   5.150
 8062TIP3    H124131   0.442   4.633   5.155
 8062TIP3    H224132   0.465   4.759   5.235
 8063TIP3   OH224133   0.507   6.227   4.504
 8063TIP3    H124134   0.533   6.136   4.490
 8063TIP3    H224135   0.573   6.278   4.457
 8064TIP3   OH224136   0.610   5.975   4.436
 8064TIP3    H124137   0.654   5.930   4.365
 8064TIP3    H224138   0.669   5.964   4.511
 8065TIP3   OH224139   1.033   6.097   5.159
 8065TIP3    H124140   1.019   6.019   5.104
 8065TIP3    H224141   1.020   6.170   5.099
 8066TIP3   OH224142   0.376   5.510   4.470
 8066TIP3    H124143   0.281   5.502   4.481
 8066TIP3    H224144   0.390   5.497   4.376
 8067TIP3   OH224145   0.349   5.272   4.101
 8067TIP3    H124146   0.393   5.327   4.166
 8067TIP3    H224147   0.420   5.223   4.059
 8068TIP3   OH224148   1.231   5.743   5.023
 8068TIP3    H124149   1.147   5.790   5.026
 8068TIP3    H224150   1.265   5.761   4.935
 8069TIP3   OH224151   0.690   5.594   4.401
 8069TIP3    H124152   0.646   5.624   4.481
 8069TIP3    H224153   0.774   5.558   4.432
 8070TIP3   OH224154   0.961   5.622   5.340
 8070TIP3    H124155   0.946   5.707   5.382
 8070TIP3    H224156   0.875   5.597   5.306
 8071TIP3   OH224157   0.565   6.209   4.929
 8071TIP3    H124158   0.554   6.292   4.976
 8071TIP3    H224159   0.601   6.149   4.994
 8072TIP3   OH224160   0.520   5.453   4.235
 8072TIP3    H124161   0.574   5.508   4.292
 8072TIP3    H224162   0.557   5.465   4.148
 8073TIP3   OH224163   1.043   4.659   4.267
 8073TIP3    H124164   0.968   4.675   4.324
 8073TIP3    H224165   1.051   4.739   4.214
 8074TIP3   OH224166   0.863   6.049   3.830
 8074TIP3    H124167   0.860   6.140   3.800
 8074TIP3    H224168   0.951   6.019   3.807
 8075TIP3   OH224169   1.274   6.450   5.229
 8075TIP3    H124170   1.281   6.355   5.241
 8075TIP3    H224171   1.196   6.476   5.277
 8076TIP3   OH224172   0.480   6.334   3.914
 8076TIP3    H124173   0.502   6.248   3.878
 8076TIP3    H224174   0.433   6.315   3.995
 8077TIP3   OH224175   0.429   6.319   4.191
 8077TIP3    H124176   0.385   6.234   4.198
 8077TIP3    H224177   0.513   6.306   4.235
 8078TIP3   OH224178   1.172   5.555   5.507
 8078TIP3    H124179   1.097   5.582   5.453
 8078TIP3    H224180   1.162   5.461   5.517
 8079TIP3   OH224181   0.756   4.912   5.476
 8079TIP3    H124182   0.820   4.891   5.543
 8079TIP3    H224183   0.671   4.904   5.519
 8080TIP3   OH224184   0.976   5.338   5.419
 8080TIP3    H124185   0.926   5.330   5.500
 8080TIP3    H224186   0.938   5.414   5.375
 8081TIP3   OH224187   0.637   5.471   3.997
 8081TIP3    H124188   0.585   5.443   3.922
 8081TIP3    H224189   0.717   5.509   3.959
 8082TIP3   OH224190   0.334   4.854   4.229
 8082TIP3    H124191   0.333   4.858   4.324
 8082TIP3    H224192   0.306   4.765   4.208
 8083TIP3   OH224193   0.502   5.286   4.547
 8083TIP3    H124194   0.449   5.363   4.526
 8083TIP3    H224195   0.542   5.262   4.464
 8084TIP3   OH224196   0.670   5.546   5.603
 8084TIP3    H124197   0.656   5.501   5.687
 8084TIP3    H224198   0.759   5.581   5.609
 8085TIP3   OH224199   0.677   5.327   4.749
 8085TIP3    H124200   0.615   5.335   4.677
 8085TIP3    H224201   0.724   5.246   4.731
 8086TIP3   OH224202   0.729   5.508   5.259
 8086TIP3    H124203   0.752   5.458   5.181
 8086TIP3    H224204   0.639   5.482   5.279
 8087TIP3   OH224205   0.355   4.931   4.913
 8087TIP3    H124206   0.273   4.979   4.924
 8087TIP3    H224207   0.423   4.998   4.919
 8088TIP3   OH224208   0.827   5.087   5.097
 8088TIP3    H124209   0.805   5.115   5.186
 8088TIP3    H224210   0.756   5.028   5.073
 8089TIP3   OH224211   0.983   6.796   5.321
 8089TIP3    H124212   0.985   6.802   5.226
 8089TIP3    H224213   1.060   6.845   5.350
 8090TIP3   OH224214   0.509   5.327   4.962
 8090TIP3    H124215   0.549   5.337   4.876
 8090TIP3    H224216   0.425   5.284   4.945
 8091TIP3   OH224217   0.390   5.219   5.232
 8091TIP3    H124218   0.352   5.292   5.182
 8091TIP3    H224219   0.458   5.260   5.286
 8092TIP3   OH224220   1.001   5.889   4.985
 8092TIP3    H124221   1.038   5.938   4.912
 8092TIP3    H224222   0.923   5.847   4.949
 8093TIP3   OH224223   0.586   4.952   4.266
 8093TIP3    H124224   0.493   4.941   4.245
 8093TIP3    H224225   0.597   5.047   4.273
 8094TIP3   OH224226   0.500   6.077   5.367
 8094TIP3    H124227   0.510   5.991   5.407
 8094TIP3    H224228   0.413   6.075   5.327
 8095TIP3   OH224229   0.645   5.215   4.323
 8095TIP3    H124230   0.739   5.221   4.336
 8095TIP3    H224231   0.623   5.292   4.271
 8096TIP3   OH224232   0.161   5.838   4.294
 8096TIP3    H124233   0.080   5.889   4.286
 8096TIP3    H224234   0.139   5.768   4.356
 8097TIP3   OH224235   0.449   5.735   5.781
 8097TIP3    H124236   0.417   5.670   5.718
 8097TIP3    H224237   0.508   5.790   5.729
 8098TIP3   OH224238   0.667   6.274   5.278
 8098TIP3    H124239   0.597   6.211   5.293
 8098TIP3    H224240   0.683   6.313   5.365
 8099TIP3   OH224241   1.040   5.301   4.167
 8099TIP3    H124242   0.984   5.256   4.104
 8099TIP3    H224243   1.046   5.391   4.134
 8100TIP3   OH224244   1.280   6.167   5.244
 8100TIP3    H124245   1.185   6.156   5.235
 8100TIP3    H224246   1.315   6.140   5.159
 8101TIP3   OH224247   0.772   6.110   4.087
 8101TIP3    H124248   0.736   6.032   4.127
 8101TIP3    H224249   0.795   6.083   3.998
 8102TIP3   OH224250   0.795   5.755   4.861
 8102TIP3    H124251   0.706   5.731   4.888
 8102TIP3    H224252   0.834   5.674   4.829
 8103TIP3   OH224253   0.651   6.011   5.100
 8103TIP3    H124254   0.694   6.023   5.185
 8103TIP3    H224255   0.651   5.916   5.086
 8104TIP3   OH224256   0.559   5.858   4.006
 8104TIP3    H124257   0.614   5.845   4.083
 8104TIP3    H224258   0.481   5.805   4.022
 8105TIP3   OH224259   0.821   6.462   5.145
 8105TIP3    H124260   0.754   6.401   5.176
 8105TIP3    H224261   0.772   6.529   5.097
 8106TIP3   OH224262   0.874   6.317   3.774
 8106TIP3    H124263   0.887   6.378   3.701
 8106TIP3    H224264   0.812   6.362   3.832
 8107TIP3   OH224265   0.722   5.814   4.229
 8107TIP3    H124266   0.701   5.735   4.279
 8107TIP3    H224267   0.815   5.803   4.207
 8108TIP3   OH224268   0.765   5.158   5.355
 8108TIP3    H124269   0.844   5.199   5.388
 8108TIP3    H224270   0.760   5.074   5.401
 8109TIP3   OH224271   0.654   4.873   4.519
 8109TIP3    H124272   0.623   4.894   4.431
 8109TIP3    H224273   0.699   4.953   4.547
 8110TIP3   OH224274   0.206   5.071   4.668
 8110TIP3    H124275   0.141   5.140   4.684
 8110TIP3    H224276   0.284   5.100   4.715
 8111TIP3   OH224277   0.567   5.333   5.437
 8111TIP3    H124278   0.610   5.403   5.487
 8111TIP3    H224279   0.639   5.276   5.409
 8112TIP3   OH224280   0.502   4.769   4.723
 8112TIP3    H124281   0.472   4.847   4.771
 8112TIP3    H224282   0.558   4.804   4.654
 8113TIP3   OH224283   1.229   5.232   5.384
 8113TIP3    H124284   1.137   5.254   5.396
 8113TIP3    H224285   1.251   5.267   5.298
 8114TIP3   OH224286   0.887   5.501   4.789
 8114TIP3    H124287   0.805   5.452   4.794
 8114TIP3    H224288   0.946   5.455   4.849
 8115TIP3   OH224289   0.840   6.468   4.746
 8115TIP3    H124290   0.799   6.508   4.669
 8115TIP3    H224291   0.934   6.479   4.732
 8116TIP3   OH224292   0.723   6.367   5.523
 8116TIP3    H124293   0.717   6.304   5.594
 8116TIP3    H224294   0.791   6.428   5.550
 8117TIP3   OH224295   0.542   6.083   3.828
 8117TIP3    H124296   0.548   6.009   3.888
 8117TIP3    H224297   0.575   6.049   3.745
 8118TIP3   OH224298   0.185   5.749   3.912
 8118TIP3    H124299   0.227   5.754   3.998
 8118TIP3    H224300   0.246   5.698   3.858
 8119TIP3   OH224301   0.827   6.046   5.332
 8119TIP3    H124302   0.903   6.068   5.277
 8119TIP3    H224303   0.777   6.128   5.337
 8120TIP3   OH224304   8.466   5.301   4.217
 8120TIP3    H124305   8.392   5.348   4.179
 8120TIP3    H224306   8.512   5.265   4.141
 8121TIP3   OH224307   0.708   5.913   5.713
 8121TIP3    H124308   0.747   5.874   5.635
 8121TIP3    H224309   0.723   5.849   5.782
 8122TIP3   OH224310   0.842   5.564   3.835
 8122TIP3    H124311   0.816   5.518   3.755
 8122TIP3    H224312   0.812   5.654   3.821
 8123TIP3   OH224313   0.318   5.021   5.408
 8123TIP3    H124314   0.341   5.054   5.321
 8123TIP3    H224315   0.294   5.099   5.458
 8124TIP3   OH224316   0.461   5.810   5.437
 8124TIP3    H124317   0.520   5.784   5.366
 8124TIP3    H224318   0.374   5.786   5.406
 8125TIP3   OH224319   0.937   5.591   5.723
 8125TIP3    H124320   0.986   5.510   5.738
 8125TIP3    H224321   1.004   5.657   5.707
 8126TIP3   OH224322   0.950   5.861   5.487
 8126TIP3    H124323   0.893   5.923   5.442
 8126TIP3    H224324   1.038   5.879   5.453
 8127TIP3   OH224325   0.492   4.844   5.536
 8127TIP3    H124326   0.433   4.903   5.489
 8127TIP3    H224327   0.441   4.764   5.549
 8128TIP3   OH224328   0.644   5.388   5.820
 8128TIP3    H124329   0.683   5.375   5.907
 8128TIP3    H224330   0.551   5.368   5.832
 8129TIP3   OH224331   0.838   5.288   5.644
 8129TIP3    H124332   0.761   5.309   5.696
 8129TIP3    H224333   0.906   5.267   5.708
 8130TIP3   OH224334   1.054   5.256   5.818
 8130TIP3    H124335   1.060   5.161   5.831
 8130TIP3    H224336   1.040   5.291   5.905
 8131TIP3   OH224337   0.621   4.899   5.782
 8131TIP3    H124338   0.657   4.811   5.794
 8131TIP3    H224339   0.571   4.894   5.701
 8132TIP3   OH224340   0.586   5.096   5.964
 8132TIP3    H124341   0.612   5.032   5.898
 8132TIP3    H224342   0.521   5.151   5.919
 8133TIP3   OH224343   1.109   6.515   4.723
 8133TIP3    H124344   1.134   6.542   4.811
 8133TIP3    H224345   1.173   6.557   4.666
 8134TIP3   OH224346   1.137   6.546   5.002
 8134TIP3    H124347   1.083   6.467   4.991
 8134TIP3    H224348   1.199   6.523   5.072
 8135TIP3   OH224349   1.182   6.253   5.570
 8135TIP3    H124350   1.112   6.266   5.634
 8135TIP3    H224351   1.230   6.336   5.571
 8136TIP3   OH224352   0.991   5.767   4.184
 8136TIP3    H124353   1.051   5.834   4.151
 8136TIP3    H224354   1.039   5.725   4.255
 8137TIP3   OH224355   1.119   5.621   4.381
 8137TIP3    H124356   1.051   5.581   4.436
 8137TIP3    H224357   1.183   5.656   4.443
 8138TIP3   OH224358   1.167   6.020   4.810
 8138TIP3    H124359   1.219   5.951   4.769
 8138TIP3    H224360   1.168   6.092   4.746
 8139TIP3   OH224361   0.986   6.310   4.993
 8139TIP3    H124362   0.921   6.359   5.043
 8139TIP3    H224363   0.936   6.268   4.924
 8140TIP3   OH224364   1.033   5.541   4.029
 8140TIP3    H124365   0.968   5.540   3.959
 8140TIP3    H224366   1.011   5.618   4.081
 8141TIP3   OH224367   0.889   5.198   3.967
 8141TIP3    H124368   0.839   5.235   3.895
 8141TIP3    H224369   0.879   5.103   3.957
 8142TIP3   OH224370   0.919   5.479   4.515
 8142TIP3    H124371   0.926   5.384   4.503
 8142TIP3    H224372   0.912   5.491   4.610
 8143TIP3   OH224373   1.202   5.903   5.381
 8143TIP3    H124374   1.265   5.833   5.361
 8143TIP3    H224375   1.219   5.970   5.315
 8144TIP3   OH224376   1.371   5.685   5.370
 8144TIP3    H124377   1.302   5.639   5.419
 8144TIP3    H224378   1.452   5.640   5.394
 8145TIP3   OH224379   0.852   4.929   3.948
 8145TIP3    H124380   0.920   4.899   4.008
 8145TIP3    H224381   0.774   4.879   3.972
 8146TIP3   OH224382   0.922   5.202   4.405
 8146TIP3    H124383   0.965   5.118   4.416
 8146TIP3    H224384   0.965   5.242   4.329
 8147TIP3   OH224385   1.081   5.354   4.934
 8147TIP3    H124386   1.163   5.378   4.889
 8147TIP3    H224387   1.086   5.398   5.018
 8148TIP3   OH224388   1.151   5.517   5.158
 8148TIP3    H124389   1.084   5.551   5.216
 8148TIP3    H224390   1.180   5.594   5.108
 8149TIP3   OH224391   1.566   5.008   5.620
 8149TIP3    H124392   1.616   4.999   5.701
 8149TIP3    H224393   1.549   5.102   5.612
 8150TIP3   OH224394   1.028   4.948   4.457
 8150TIP3    H124395   1.073   4.936   4.541
 8150TIP3    H224396   0.974   4.869   4.448
 8151TIP3   OH224397   1.451   5.252   5.543
 8151TIP3    H124398   1.411   5.295   5.619
 8151TIP3    H224399   1.380   5.245   5.479
 8152TIP3   OH224400   1.080   4.871   4.096
 8152TIP3    H124401   1.125   4.810   4.038
 8152TIP3    H224402   1.135   4.949   4.098
 8153TIP3   OH224403   0.668   6.389   4.361
 8153TIP3    H124404   0.729   6.389   4.287
 8153TIP3    H224405   0.699   6.460   4.417
 8154TIP3   OH224406   0.596   6.622   5.269
 8154TIP3    H124407   0.627   6.546   5.318
 8154TIP3    H224408   0.620   6.697   5.323
 8155TIP3   OH224409   1.320   4.971   5.408
 8155TIP3    H124410   1.284   5.059   5.406
 8155TIP3    H224411   1.251   4.916   5.371
 8156TIP3   OH224412   0.534   6.462   5.039
 8156TIP3    H124413   0.533   6.519   5.116
 8156TIP3    H224414   0.534   6.523   4.964
 8157TIP3   OH224415   0.776   6.666   4.934
 8157TIP3    H124416   0.751   6.740   4.879
 8157TIP3    H224417   0.788   6.594   4.873
 8158TIP3   OH224418   0.622   4.914   5.041
 8158TIP3    H124419   0.542   4.864   5.052
 8158TIP3    H224420   0.672   4.865   4.976
 8159TIP3   OH224421   1.074   4.818   4.918
 8159TIP3    H124422   1.111   4.868   4.846
 8159TIP3    H224423   0.980   4.832   4.912
 8160TIP3   OH224424   1.184   4.899   4.681
 8160TIP3    H124425   1.253   4.840   4.653
 8160TIP3    H224426   1.221   4.987   4.669
 8161TIP3   OH224427   0.333   4.644   4.901
 8161TIP3    H124428   0.401   4.664   4.837
 8161TIP3    H224429   0.351   4.703   4.975
 8162TIP3   OH224430   0.797   4.774   4.885
 8162TIP3    H124431   0.807   4.732   4.800
 8162TIP3    H224432   0.799   4.702   4.948
 8163TIP3   OH224433   0.865   4.716   4.463
 8163TIP3    H124434   0.785   4.766   4.477
 8163TIP3    H224435   0.850   4.633   4.508
 8164TIP3   OH224436   0.343   4.869   4.499
 8164TIP3    H124437   0.329   4.803   4.567
 8164TIP3    H224438   0.383   4.943   4.544
 8165TIP3   OH224439   0.822   6.375   4.135
 8165TIP3    H124440   0.810   6.281   4.120
 8165TIP3    H224441   0.782   6.416   4.059
 8166TIP3   OH224442   1.109   4.984   5.839
 8166TIP3    H124443   1.107   4.956   5.931
 8166TIP3    H224444   1.196   4.960   5.809
 8167TIP3   OH224445   1.026   6.522   5.325
 8167TIP3    H124446   0.956   6.491   5.268
 8167TIP3    H224447   1.007   6.616   5.336
 8168TIP3   OH224448   2.299   5.909   4.064
 8168TIP3    H124449   2.268   5.996   4.038
 8168TIP3    H224450   2.228   5.850   4.038
 8169TIP3   OH224451   2.294   5.902   4.488
 8169TIP3    H124452   2.347   5.884   4.566
 8169TIP3    H224453   2.252   5.818   4.467
 8170TIP3   OH224454   1.597   5.768   4.832
 8170TIP3    H124455   1.632   5.715   4.903
 8170TIP3    H224456   1.673   5.792   4.779
 8171TIP3   OH224457   2.562   6.212   4.162
 8171TIP3    H124458   2.551   6.143   4.228
 8171TIP3    H224459   2.584   6.290   4.211
 8172TIP3   OH224460   1.585   6.196   4.528
 8172TIP3    H124461   1.568   6.101   4.532
 8172TIP3    H224462   1.680   6.203   4.518
 8173TIP3   OH224463   1.272   5.395   4.308
 8173TIP3    H124464   1.233   5.479   4.330
 8173TIP3    H224465   1.202   5.346   4.264
 8174TIP3   OH224466   1.347   5.699   4.523
 8174TIP3    H124467   1.397   5.622   4.550
 8174TIP3    H224468   1.414   5.760   4.490
 8175TIP3   OH224469   2.220   6.641   4.173
 8175TIP3    H124470   2.246   6.577   4.108
 8175TIP3    H224471   2.223   6.594   4.256
 8176TIP3   OH224472   2.102   6.125   4.495
 8176TIP3    H124473   2.146   6.045   4.466
 8176TIP3    H224474   2.173   6.181   4.525
 8177TIP3   OH224475   3.130   5.453   4.493
 8177TIP3    H124476   3.150   5.536   4.535
 8177TIP3    H224477   3.167   5.460   4.405
 8178TIP3   OH224478   2.510   5.614   4.527
 8178TIP3    H124479   2.547   5.531   4.556
 8178TIP3    H224480   2.473   5.596   4.441
 8179TIP3   OH224481   1.863   5.271   4.489
 8179TIP3    H124482   1.843   5.344   4.430
 8179TIP3    H224483   1.810   5.199   4.456
 8180TIP3   OH224484   2.561   5.371   4.120
 8180TIP3    H124485   2.625   5.364   4.191
 8180TIP3    H224486   2.611   5.405   4.046
 8181TIP3   OH224487   1.487   5.480   4.617
 8181TIP3    H124488   1.571   5.464   4.660
 8181TIP3    H224489   1.492   5.429   4.536
 8182TIP3   OH224490   1.911   5.684   4.431
 8182TIP3    H124491   2.005   5.668   4.438
 8182TIP3    H224492   1.875   5.602   4.396
 8183TIP3   OH224493   3.191   5.665   4.670
 8183TIP3    H124494   3.100   5.696   4.668
 8183TIP3    H224495   3.224   5.696   4.755
 8184TIP3   OH224496   1.844   5.272   4.938
 8184TIP3    H124497   1.794   5.309   4.865
 8184TIP3    H224498   1.790   5.290   5.015
 8185TIP3   OH224499   2.194   6.126   3.926
 8185TIP3    H124500   2.153   6.098   3.844
 8185TIP3    H224501   2.142   6.201   3.955
 8186TIP3   OH224502   1.946   6.047   4.710
 8186TIP3    H124503   1.892   6.118   4.746
 8186TIP3    H224504   1.994   6.087   4.638
 8187TIP3   OH224505   2.723   5.395   4.339
 8187TIP3    H124506   2.684   5.373   4.423
 8187TIP3    H224507   2.781   5.469   4.357
 8188TIP3   OH224508   1.734   5.379   4.709
 8188TIP3    H124509   1.788   5.455   4.732
 8188TIP3    H224510   1.780   5.337   4.637
 8189TIP3   OH224511   1.788   6.249   4.816
 8189TIP3    H124512   1.773   6.339   4.785
 8189TIP3    H224513   1.709   6.227   4.865
 8190TIP3   OH224514   1.163   5.952   4.063
 8190TIP3    H124515   1.128   5.969   3.976
 8190TIP3    H224516   1.186   6.039   4.096
 8191TIP3   OH224517   2.600   6.458   4.303
 8191TIP3    H124518   2.512   6.450   4.341
 8191TIP3    H224519   2.599   6.542   4.257
 8192TIP3   OH224520   2.921   5.367   4.658
 8192TIP3    H124521   2.835   5.386   4.620
 8192TIP3    H224522   2.983   5.391   4.590
 8193TIP3   OH224523   2.188   4.967   4.665
 8193TIP3    H124524   2.180   4.875   4.692
 8193TIP3    H224525   2.112   5.010   4.704
 8194TIP3   OH224526   2.306   6.490   3.955
 8194TIP3    H124527   2.358   6.410   3.946
 8194TIP3    H224528   2.364   6.560   3.926
 8195TIP3   OH224529   2.454   6.266   3.913
 8195TIP3    H124530   2.392   6.194   3.899
 8195TIP3    H224531   2.501   6.242   3.992
 8196TIP3   OH224532   2.838   6.348   4.644
 8196TIP3    H124533   2.820   6.272   4.588
 8196TIP3    H224534   2.823   6.424   4.587
 8197TIP3   OH224535   2.125   5.749   3.915
 8197TIP3    H124536   2.043   5.794   3.895
 8197TIP3    H224537   2.172   5.746   3.832
 8198TIP3   OH224538   2.094   5.553   3.607
 8198TIP3    H124539   2.160   5.601   3.657
 8198TIP3    H224540   2.143   5.485   3.561
 8199TIP3   OH224541   3.020   6.006   4.511
 8199TIP3    H124542   2.935   6.051   4.509
 8199TIP3    H224543   3.055   6.017   4.423
 8200TIP3   OH224544   2.483   5.839   3.875
 8200TIP3    H124545   2.429   5.866   3.949
 8200TIP3    H224546   2.566   5.811   3.914
 8201TIP3   OH224547   2.712   5.868   4.819
 8201TIP3    H124548   2.710   5.950   4.868
 8201TIP3    H224549   2.629   5.866   4.771
 8202TIP3   OH224550   1.711   5.818   4.284
 8202TIP3    H124551   1.674   5.758   4.219
 8202TIP3    H224552   1.784   5.770   4.323
 8203TIP3   OH224553   1.846   6.243   4.424
 8203TIP3    H124554   1.823   6.225   4.333
 8203TIP3    H224555   1.933   6.204   4.435
 8204TIP3   OH224556   1.813   5.813   4.656
 8204TIP3    H124557   1.851   5.778   4.576
 8204TIP3    H224558   1.863   5.893   4.674
 8205TIP3   OH224559   2.361   6.451   4.434
 8205TIP3    H124560   2.352   6.529   4.489
 8205TIP3    H224561   2.349   6.378   4.494
 8206TIP3   OH224562   1.984   6.350   4.987
 8206TIP3    H124563   1.924   6.406   5.036
 8206TIP3    H224564   1.927   6.297   4.931
 8207TIP3   OH224565   2.313   5.699   3.709
 8207TIP3    H124566   2.374   5.755   3.757
 8207TIP3    H224567   2.341   5.706   3.618
 8208TIP3   OH224568   1.739   5.904   5.116
 8208TIP3    H124569   1.740   5.998   5.134
 8208TIP3    H224570   1.646   5.882   5.109
 8209TIP3   OH224571   2.059   6.368   3.968
 8209TIP3    H124572   2.141   6.416   3.972
 8209TIP3    H224573   2.000   6.425   3.918
 8210TIP3   OH224574   1.773   6.513   5.067
 8210TIP3    H124575   1.743   6.514   4.976
 8210TIP3    H224576   1.693   6.495   5.118
 8211TIP3   OH224577   2.825   4.926   3.763
 8211TIP3    H124578   2.748   4.947   3.816
 8211TIP3    H224579   2.836   5.003   3.707
 8212TIP3   OH224580   1.586   5.661   4.082
 8212TIP3    H124581   1.509   5.708   4.050
 8212TIP3    H224582   1.555   5.571   4.096
 8213TIP3   OH224583   2.647   6.298   3.321
 8213TIP3    H124584   2.645   6.392   3.299
 8213TIP3    H224585   2.737   6.271   3.301
 8214TIP3   OH224586   1.363   6.064   5.007
 8214TIP3    H124587   1.296   6.042   4.943
 8214TIP3    H224588   1.400   5.979   5.033
 8215TIP3   OH224589   1.215   6.250   4.652
 8215TIP3    H124590   1.309   6.263   4.661
 8215TIP3    H224591   1.176   6.325   4.696
 8216TIP3   OH224592   3.067   6.710   4.711
 8216TIP3    H124593   3.074   6.615   4.722
 8216TIP3    H224594   2.988   6.734   4.758
 8217TIP3   OH224595   2.168   6.490   4.837
 8217TIP3    H124596   2.165   6.580   4.868
 8217TIP3    H224597   2.104   6.444   4.891
 8218TIP3   OH224598   1.951   6.595   3.791
 8218TIP3    H124599   1.902   6.574   3.711
 8218TIP3    H224600   1.914   6.678   3.820
 8219TIP3   OH224601   1.387   6.448   4.172
 8219TIP3    H124602   1.430   6.439   4.256
 8219TIP3    H224603   1.336   6.367   4.162
 8220TIP3   OH224604   2.152   6.523   3.419
 8220TIP3    H124605   2.202   6.449   3.384
 8220TIP3    H224606   2.186   6.536   3.507
 8221TIP3   OH224607   2.204   6.566   3.689
 8221TIP3    H124608   2.118   6.571   3.730
 8221TIP3    H224609   2.260   6.527   3.756
 8222TIP3   OH224610   2.958   5.822   4.979
 8222TIP3    H124611   2.875   5.829   4.931
 8222TIP3    H224612   2.976   5.728   4.980
 8223TIP3   OH224613   1.561   6.251   4.974
 8223TIP3    H124614   1.612   6.239   5.054
 8223TIP3    H224615   1.490   6.187   4.982
 8224TIP3   OH224616   1.950   5.058   4.791
 8224TIP3    H124617   1.866   5.024   4.759
 8224TIP3    H224618   1.927   5.139   4.838
 8225TIP3   OH224619   2.483   5.175   4.984
 8225TIP3    H124620   2.553   5.151   5.045
 8225TIP3    H224621   2.402   5.157   5.031
 8226TIP3   OH224622   2.717   5.604   4.910
 8226TIP3    H124623   2.675   5.600   4.996
 8226TIP3    H224624   2.700   5.693   4.879
 8227TIP3   OH224625   2.392   5.695   3.448
 8227TIP3    H124626   2.349   5.690   3.362
 8227TIP3    H224627   2.475   5.739   3.431
 8228TIP3   OH224628   2.101   5.101   3.762
 8228TIP3    H124629   2.066   5.107   3.851
 8228TIP3    H224630   2.066   5.019   3.728
 8229TIP3   OH224631   1.888   5.589   4.801
 8229TIP3    H124632   1.845   5.598   4.886
 8229TIP3    H224633   1.868   5.670   4.755
 8230TIP3   OH224634   1.770   5.469   4.324
 8230TIP3    H124635   1.681   5.444   4.348
 8230TIP3    H224636   1.780   5.436   4.235
 8231TIP3   OH224637   2.251   5.544   4.051
 8231TIP3    H124638   2.204   5.617   4.010
 8231TIP3    H224639   2.310   5.512   3.982
 8232TIP3   OH224640   2.437   5.812   5.124
 8232TIP3    H124641   2.410   5.744   5.185
 8232TIP3    H224642   2.529   5.827   5.144
 8233TIP3   OH224643   2.418   5.558   4.275
 8233TIP3    H124644   2.350   5.580   4.211
 8233TIP3    H224645   2.466   5.485   4.237
 8234TIP3   OH224646   1.721   5.603   5.022
 8234TIP3    H124647   1.761   5.662   5.086
 8234TIP3    H224648   1.706   5.522   5.070
 8235TIP3   OH224649   1.768   5.081   3.736
 8235TIP3    H124650   1.758   5.084   3.832
 8235TIP3    H224651   1.689   5.125   3.703
 8236TIP3   OH224652   1.313   5.123   4.606
 8236TIP3    H124653   1.387   5.159   4.655
 8236TIP3    H224654   1.349   5.105   4.519
 8237TIP3   OH224655   1.231   5.105   4.109
 8237TIP3    H124656   1.275   5.138   4.031
 8237TIP3    H224657   1.166   5.172   4.131
 8238TIP3   OH224658   2.455   5.813   4.702
 8238TIP3    H124659   2.482   5.747   4.638
 8238TIP3    H224660   2.415   5.763   4.773
 8239TIP3   OH224661   2.131   5.263   4.375
 8239TIP3    H124662   2.054   5.262   4.432
 8239TIP3    H224663   2.205   5.251   4.434
 8240TIP3   OH224664   1.532   5.342   4.385
 8240TIP3    H124665   1.444   5.347   4.348
 8240TIP3    H224666   1.561   5.252   4.367
 8241TIP3   OH224667   1.784   5.345   4.079
 8241TIP3    H124668   1.879   5.356   4.068
 8241TIP3    H224669   1.748   5.363   3.992
 8242TIP3   OH224670   2.590   5.353   4.582
 8242TIP3    H124671   2.570   5.369   4.675
 8242TIP3    H224672   2.525   5.288   4.555
 8243TIP3   OH224673   1.667   5.372   3.832
 8243TIP3    H124674   1.604   5.322   3.781
 8243TIP3    H224675   1.722   5.416   3.767
 8244TIP3   OH224676   2.779   7.053   4.807
 8244TIP3    H124677   2.778   7.066   4.712
 8244TIP3    H224678   2.859   7.097   4.836
 8245TIP3   OH224679   1.706   6.168   5.202
 8245TIP3    H124680   1.787   6.192   5.247
 8245TIP3    H224681   1.639   6.168   5.270
 8246TIP3   OH224682   2.183   5.629   4.482
 8246TIP3    H124683   2.249   5.580   4.433
 8246TIP3    H224684   2.182   5.588   4.568
 8247TIP3   OH224685   1.678   5.094   4.370
 8247TIP3    H124686   1.648   5.019   4.420
 8247TIP3    H224687   1.706   5.058   4.286
 8248TIP3   OH224688   2.156   5.532   4.747
 8248TIP3    H124689   2.069   5.563   4.772
 8248TIP3    H224690   2.216   5.582   4.802
 8249TIP3   OH224691   1.889   5.889   3.858
 8249TIP3    H124692   1.815   5.831   3.836
 8249TIP3    H224693   1.865   5.928   3.942
 8250TIP3   OH224694   2.782   6.142   4.468
 8250TIP3    H124695   2.817   6.190   4.393
 8250TIP3    H224696   2.702   6.100   4.435
 8251TIP3   OH224697   2.355   5.203   3.761
 8251TIP3    H124698   2.261   5.182   3.759
 8251TIP3    H224699   2.357   5.298   3.775
 8252TIP3   OH224700   2.301   6.226   4.876
 8252TIP3    H124701   2.342   6.209   4.961
 8252TIP3    H224702   2.252   6.307   4.889
 8253TIP3   OH224703   2.414   5.467   3.834
 8253TIP3    H124704   2.510   5.470   3.844
 8253TIP3    H224705   2.393   5.545   3.782
 8254TIP3   OH224706   1.584   5.910   4.512
 8254TIP3    H124707   1.621   5.889   4.427
 8254TIP3    H224708   1.648   5.877   4.575
 8255TIP3   OH224709   2.042   6.049   3.699
 8255TIP3    H124710   1.995   6.132   3.698
 8255TIP3    H224711   1.987   5.991   3.752
 8256TIP3   OH224712   1.466   5.841   5.146
 8256TIP3    H124713   1.480   5.817   5.238
 8256TIP3    H224714   1.393   5.785   5.118
 8257TIP3   OH224715   2.212   5.975   5.160
 8257TIP3    H124716   2.146   5.925   5.112
 8257TIP3    H224717   2.295   5.933   5.137
 8258TIP3   OH224718   2.442   6.512   4.756
 8258TIP3    H124719   2.348   6.493   4.764
 8258TIP3    H224720   2.466   6.547   4.842
 8259TIP3   OH224721   2.833   5.555   3.653
 8259TIP3    H124722   2.777   5.510   3.591
 8259TIP3    H224723   2.838   5.645   3.620
 8260TIP3   OH224724   3.083   6.432   4.734
 8260TIP3    H124725   2.990   6.414   4.732
 8260TIP3    H224726   3.116   6.400   4.650
 8261TIP3   OH224727   2.570   6.372   3.586
 8261TIP3    H124728   2.544   6.302   3.646
 8261TIP3    H224729   2.588   6.326   3.503
 8262TIP3   OH224730   2.551   6.007   4.365
 8262TIP3    H124731   2.461   5.985   4.389
 8262TIP3    H224732   2.587   5.927   4.328
 8263TIP3   OH224733   1.702   6.241   4.177
 8263TIP3    H124734   1.700   6.318   4.120
 8263TIP3    H224735   1.611   6.225   4.198
 8264TIP3   OH224736   1.273   5.527   3.894
 8264TIP3    H124737   1.313   5.612   3.913
 8264TIP3    H224738   1.191   5.528   3.943
 8265TIP3   OH224739   1.796   5.997   4.087
 8265TIP3    H124740   1.777   6.086   4.116
 8265TIP3    H224741   1.769   5.942   4.160
 8266TIP3   OH224742   1.984   6.567   4.633
 8266TIP3    H124743   2.024   6.637   4.583
 8266TIP3    H224744   2.056   6.530   4.685
 8267TIP3   OH224745   1.619   6.468   4.025
 8267TIP3    H124746   1.532   6.472   4.066
 8267TIP3    H224747   1.652   6.557   4.030
 8268TIP3   OH224748   2.340   6.227   4.603
 8268TIP3    H124749   2.328   6.224   4.698
 8268TIP3    H224750   2.414   6.169   4.586
 8269TIP3   OH224751   2.330   6.108   3.479
 8269TIP3    H124752   2.383   6.084   3.555
 8269TIP3    H224753   2.246   6.064   3.494
 8270TIP3   OH224754   2.597   6.725   4.647
 8270TIP3    H124755   2.528   6.661   4.664
 8270TIP3    H224756   2.562   6.778   4.575
 8271TIP3   OH224757   2.649   6.573   3.282
 8271TIP3    H124758   2.672   6.637   3.215
 8271TIP3    H224759   2.576   6.613   3.329
 8272TIP3   OH224760   1.677   5.350   5.149
 8272TIP3    H124761   1.582   5.354   5.159
 8272TIP3    H224762   1.708   5.309   5.230
 8273TIP3   OH224763   2.506   6.033   3.676
 8273TIP3    H124764   2.490   5.973   3.749
 8273TIP3    H224765   2.601   6.038   3.669
 8274TIP3   OH224766   1.418   6.435   4.796
 8274TIP3    H124767   1.470   6.365   4.837
 8274TIP3    H224768   1.424   6.508   4.857
 8275TIP3   OH224769   1.682   6.072   3.485
 8275TIP3    H124770   1.693   5.981   3.458
 8275TIP3    H224771   1.667   6.068   3.579
 8276TIP3   OH224772   1.629   6.091   3.757
 8276TIP3    H124773   1.696   6.062   3.820
 8276TIP3    H224774   1.629   6.186   3.764
 8277TIP3   OH224775   1.363   5.781   3.969
 8277TIP3    H124776   1.296   5.828   4.020
 8277TIP3    H224777   1.381   5.839   3.895
 8278TIP3   OH224778   2.524   5.411   4.844
 8278TIP3    H124779   2.603   5.451   4.879
 8278TIP3    H224780   2.512   5.331   4.897
 8279TIP3   OH224781   2.412   5.154   4.030
 8279TIP3    H124782   2.393   5.172   3.938
 8279TIP3    H224783   2.456   5.233   4.062
 8280TIP3   OH224784   1.898   6.279   3.698
 8280TIP3    H124785   1.813   6.302   3.735
 8280TIP3    H224786   1.920   6.351   3.640
 8281TIP3   OH224787   2.064   5.354   4.121
 8281TIP3    H124788   2.127   5.422   4.095
 8281TIP3    H224789   2.086   5.334   4.212
 8282TIP3   OH224790   2.362   5.645   4.900
 8282TIP3    H124791   2.389   5.687   4.982
 8282TIP3    H224792   2.414   5.564   4.897
 8283TIP3   OH224793   2.227   5.051   4.210
 8283TIP3    H124794   2.205   5.128   4.262
 8283TIP3    H224795   2.296   5.081   4.151
 8284TIP3   OH224796   1.648   6.364   3.772
 8284TIP3    H124797   1.625   6.435   3.713
 8284TIP3    H224798   1.635   6.401   3.860
 8285TIP3   OH224799   1.741   5.072   4.015
 8285TIP3    H124800   1.729   5.162   4.045
 8285TIP3    H224801   1.835   5.057   4.021
 8286TIP3   OH224802   2.980   5.542   4.888
 8286TIP3    H124803   2.886   5.555   4.902
 8286TIP3    H224804   2.986   5.483   4.812
 8287TIP3   OH224805   2.642   5.751   4.276
 8287TIP3    H124806   2.566   5.693   4.288
 8287TIP3    H224807   2.711   5.711   4.329
 8288TIP3   OH224808   1.385   5.958   3.753
 8288TIP3    H124809   1.457   6.021   3.761
 8288TIP3    H224810   1.416   5.895   3.689
 8289TIP3   OH224811   1.291   5.249   3.885
 8289TIP3    H124812   1.304   5.343   3.894
 8289TIP3    H224813   1.228   5.240   3.814
 8290TIP3   OH224814   2.622   6.726   4.220
 8290TIP3    H124815   2.579   6.776   4.151
 8290TIP3    H224816   2.716   6.742   4.206
 8291TIP3   OH224817   1.687   4.968   4.756
 8291TIP3    H124818   1.660   4.937   4.670
 8291TIP3    H224819   1.679   4.891   4.813
 8292TIP3   OH224820   1.213   6.225   4.142
 8292TIP3    H124821   1.163   6.258   4.216
 8292TIP3    H224822   1.174   6.266   4.065
 8293TIP3   OH224823   1.406   6.756   5.226
 8293TIP3    H124824   1.487   6.761   5.276
 8293TIP3    H224825   1.386   6.663   5.220
 8294TIP3   OH224826   1.873   6.701   5.242
 8294TIP3    H124827   1.960   6.671   5.270
 8294TIP3    H224828   1.845   6.635   5.178
 8295TIP3   OH224829   1.841   6.271   3.377
 8295TIP3    H124830   1.792   6.201   3.421
 8295TIP3    H224831   1.916   6.226   3.337
 8296TIP3   OH224832   2.502   6.613   5.003
 8296TIP3    H124833   2.510   6.542   5.067
 8296TIP3    H224834   2.576   6.670   5.021
 8297TIP3   OH224835   2.282   6.312   3.302
 8297TIP3    H124836   2.312   6.247   3.366
 8297TIP3    H224837   2.342   6.303   3.228
 8298TIP3   OH224838   1.508   6.139   5.393
 8298TIP3    H124839   1.521   6.047   5.412
 8298TIP3    H224840   1.420   6.144   5.356
 8299TIP3   OH224841   1.509   5.768   3.603
 8299TIP3    H124842   1.560   5.743   3.680
 8299TIP3    H224843   1.574   5.780   3.534
 8300TIP3   OH224844   2.160   6.257   5.184
 8300TIP3    H124845   2.095   6.269   5.115
 8300TIP3    H224846   2.183   6.164   5.180
 8301TIP3   OH224847   2.063   5.991   3.431
 8301TIP3    H124848   2.045   6.002   3.525
 8301TIP3    H224849   2.051   5.898   3.416
 8302TIP3   OH224850   2.615   6.285   4.798
 8302TIP3    H124851   2.692   6.315   4.749
 8302TIP3    H224852   2.548   6.351   4.780
 8303TIP3   OH224853   1.635   5.876   5.406
 8303TIP3    H124854   1.709   5.887   5.346
 8303TIP3    H224855   1.665   5.912   5.489
 8304TIP3   OH224856   1.683   5.708   3.815
 8304TIP3    H124857   1.661   5.677   3.903
 8304TIP3    H224858   1.730   5.635   3.774
 8305TIP3   OH224859   1.972   5.766   5.059
 8305TIP3    H124860   1.899   5.826   5.077
 8305TIP3    H224861   2.017   5.805   4.984
 8306TIP3   OH224862   1.821   5.522   3.660
 8306TIP3    H124863   1.791   5.525   3.569
 8306TIP3    H224864   1.916   5.528   3.654
 8307TIP3   OH224865   2.497   6.165   5.156
 8307TIP3    H124866   2.568   6.126   5.104
 8307TIP3    H224867   2.492   6.110   5.234
 8308TIP3   OH224868   2.616   5.818   3.339
 8308TIP3    H124869   2.603   5.774   3.255
 8308TIP3    H224870   2.589   5.908   3.324
 8309TIP3   OH224871   2.095   5.554   5.178
 8309TIP3    H124872   2.102   5.482   5.115
 8309TIP3    H224873   2.057   5.626   5.128
 8310TIP3   OH224874   2.104   5.357   4.975
 8310TIP3    H124875   2.133   5.393   4.891
 8310TIP3    H224876   2.013   5.331   4.958
 8311TIP3   OH224877   2.114   5.891   4.864
 8311TIP3    H124878   2.204   5.911   4.839
 8311TIP3    H224879   2.060   5.949   4.812
 8312TIP3   OH224880   2.705   5.841   5.224
 8312TIP3    H124881   2.739   5.752   5.230
 8312TIP3    H224882   2.782   5.895   5.206
 8313TIP3   OH224883   2.738   6.109   4.965
 8313TIP3    H124884   2.684   6.171   4.915
 8313TIP3    H224885   2.827   6.123   4.933
 8314TIP3   OH224886   1.980   5.650   5.416
 8314TIP3    H124887   1.912   5.585   5.435
 8314TIP3    H224888   2.012   5.626   5.329
 8315TIP3   OH224889   2.224   5.126   5.075
 8315TIP3    H124890   2.184   5.206   5.041
 8315TIP3    H224891   2.159   5.058   5.060
 8316TIP3   OH224892   2.353   5.599   5.277
 8316TIP3    H124893   2.346   5.589   5.371
 8316TIP3    H224894   2.267   5.577   5.243
 8317TIP3   OH224895   2.601   5.559   5.149
 8317TIP3    H124896   2.522   5.555   5.203
 8317TIP3    H224897   2.671   5.526   5.206
 8318TIP3   OH224898   2.832   5.510   5.298
 8318TIP3    H124899   2.847   5.415   5.302
 8318TIP3    H224900   2.830   5.538   5.390
 8319TIP3   OH224901   1.819   5.431   5.483
 8319TIP3    H124902   1.837   5.346   5.443
 8319TIP3    H224903   1.857   5.424   5.571
 8320TIP3   OH224904   2.288   5.110   5.341
 8320TIP3    H124905   2.360   5.047   5.340
 8320TIP3    H224906   2.263   5.119   5.249
 8321TIP3   OH224907   2.387   5.322   5.487
 8321TIP3    H124908   2.359   5.251   5.430
 8321TIP3    H224909   2.314   5.384   5.486
 8322TIP3   OH224910   1.643   6.576   3.590
 8322TIP3    H124911   1.731   6.552   3.561
 8322TIP3    H224912   1.605   6.620   3.514
 8323TIP3   OH224913   1.113   5.951   3.773
 8323TIP3    H124914   1.208   5.963   3.769
 8323TIP3    H224915   1.099   5.863   3.737
 8324TIP3   OH224916   1.019   6.540   4.227
 8324TIP3    H124917   0.955   6.485   4.182
 8324TIP3    H224918   1.062   6.480   4.288
 8325TIP3   OH224919   1.156   6.375   4.400
 8325TIP3    H124920   1.147   6.304   4.463
 8325TIP3    H224921   1.209   6.441   4.446
 8326TIP3   OH224922   2.886   6.798   4.205
 8326TIP3    H124923   2.917   6.814   4.294
 8326TIP3    H224924   2.958   6.829   4.149
 8327TIP3   OH224925   2.920   6.804   4.487
 8327TIP3    H124926   2.869   6.723   4.479
 8327TIP3    H224927   2.987   6.784   4.553
 8328TIP3   OH224928   2.958   6.507   5.059
 8328TIP3    H124929   2.886   6.514   5.123
 8328TIP3    H224930   3.004   6.590   5.066
 8329TIP3   OH224931   2.785   6.022   3.670
 8329TIP3    H124932   2.845   6.091   3.641
 8329TIP3    H224933   2.828   5.982   3.745
 8330TIP3   OH224934   2.910   5.878   3.871
 8330TIP3    H124935   2.843   5.838   3.927
 8330TIP3    H224936   2.975   5.912   3.933
 8331TIP3   OH224937   2.958   6.278   4.300
 8331TIP3    H124938   3.013   6.207   4.265
 8331TIP3    H224939   2.962   6.346   4.234
 8332TIP3   OH224940   2.771   6.569   4.492
 8332TIP3    H124941   2.704   6.612   4.546
 8332TIP3    H224942   2.722   6.527   4.422
 8333TIP3   OH224943   2.824   5.796   3.517
 8333TIP3    H124944   2.752   5.795   3.454
 8333TIP3    H224945   2.808   5.873   3.571
 8334TIP3   OH224946   2.680   5.448   3.454
 8334TIP3    H124947   2.633   5.482   3.378
 8334TIP3    H224948   2.670   5.353   3.447
 8335TIP3   OH224949   2.708   5.738   4.006
 8335TIP3    H124950   2.715   5.643   3.994
 8335TIP3    H224951   2.691   5.748   4.100
 8336TIP3   OH224952   1.333   5.800   4.777
 8336TIP3    H124953   1.325   5.768   4.687
 8336TIP3    H224954   1.428   5.799   4.793
 8337TIP3   OH224955   2.995   6.155   4.868
 8337TIP3    H124956   3.062   6.087   4.856
 8337TIP3    H224957   3.008   6.214   4.794
 8338TIP3   OH224958   3.173   5.945   4.864
 8338TIP3    H124959   3.098   5.902   4.906
 8338TIP3    H224960   3.247   5.888   4.884
 8339TIP3   OH224961   2.636   5.178   3.428
 8339TIP3    H124962   2.704   5.149   3.490
 8339TIP3    H224963   2.557   5.134   3.458
 8340TIP3   OH224964   2.704   5.461   3.891
 8340TIP3    H124965   2.749   5.378   3.904
 8340TIP3    H224966   2.748   5.500   3.815
 8341TIP3   OH224967   2.858   5.628   4.412
 8341TIP3    H124968   2.939   5.646   4.364
 8341TIP3    H224969   2.872   5.667   4.499
 8342TIP3   OH224970   2.930   5.777   4.640
 8342TIP3    H124971   2.858   5.807   4.696
 8342TIP3    H224972   2.963   5.857   4.599
 8343TIP3   OH224973   1.555   5.483   5.423
 8343TIP3    H124974   1.649   5.486   5.439
 8343TIP3    H224975   1.525   5.407   5.474
 8344TIP3   OH224976   3.393   5.378   5.179
 8344TIP3    H124977   3.458   5.321   5.138
 8344TIP3    H224978   3.353   5.425   5.106
 8345TIP3   OH224979   2.818   5.212   3.943
 8345TIP3    H124980   2.865   5.197   4.026
 8345TIP3    H224981   2.756   5.139   3.937
 8346TIP3   OH224982   1.525   5.193   4.776
 8346TIP3    H124983   1.580   5.115   4.777
 8346TIP3    H224984   1.586   5.264   4.756
 8347TIP3   OH224985   1.318   5.463   4.843
 8347TIP3    H124986   1.367   5.452   4.761
 8347TIP3    H224987   1.331   5.555   4.866
 8348TIP3   OH224988   3.239   5.484   4.977
 8348TIP3    H124989   3.151   5.522   4.984
 8348TIP3    H224990   3.225   5.401   4.930
 8349TIP3   OH224991   2.866   5.128   3.581
 8349TIP3    H124992   2.912   5.066   3.524
 8349TIP3    H224993   2.925   5.204   3.585
 8350TIP3   OH224994   1.297   4.974   4.339
 8350TIP3    H124995   1.210   4.958   4.375
 8350TIP3    H224996   1.282   5.027   4.261
 8351TIP3   OH224997   2.451   6.690   3.849
 8351TIP3    H124998   2.508   6.676   3.773
 8351TIP3    H224999   2.498   6.754   3.902
 8352TIP3   OH225000   1.492   5.013   5.173
 8352TIP3    H125001   1.423   5.016   5.240
 8352TIP3    H225002   1.459   5.070   5.103
 8353TIP3   OH225003   1.551   6.486   5.236
 8353TIP3    H125004   1.459   6.462   5.227
 8353TIP3    H225005   1.574   6.461   5.325
 8354TIP3   OH225006   1.756   6.523   4.782
 8354TIP3    H125007   1.704   6.597   4.748
 8354TIP3    H225008   1.841   6.533   4.739
 8355TIP3   OH225009   2.167   6.756   4.918
 8355TIP3    H125010   2.206   6.744   5.005
 8355TIP3    H225011   2.231   6.808   4.870
 8356TIP3   OH225012   2.353   6.913   4.787
 8356TIP3    H125013   2.414   6.856   4.740
 8356TIP3    H225014   2.409   6.968   4.842
 8357TIP3   OH225015   3.155   5.226   4.890
 8357TIP3    H125016   3.066   5.199   4.866
 8357TIP3    H225017   3.208   5.147   4.881
 8358TIP3   OH225018   1.421   6.787   4.819
 8358TIP3    H125019   1.327   6.802   4.811
 8358TIP3    H225020   1.447   6.834   4.898
 8359TIP3   OH225021   1.651   6.755   4.672
 8359TIP3    H125022   1.568   6.764   4.718
 8359TIP3    H225023   1.631   6.778   4.581
 8360TIP3   OH225024   2.068   6.774   4.466
 8360TIP3    H125025   1.996   6.784   4.404
 8360TIP3    H225026   2.076   6.860   4.507
 8361TIP3   OH225027   2.334   6.718   4.518
 8361TIP3    H125028   2.241   6.733   4.497
 8361TIP3    H225029   2.381   6.785   4.469
 8362TIP3   OH225030   2.539   6.893   4.423
 8362TIP3    H125031   2.533   6.978   4.379
 8362TIP3    H225032   2.567   6.833   4.354
 8363TIP3   OH225033   1.336   6.547   4.554
 8363TIP3    H125034   1.365   6.517   4.640
 8363TIP3    H225035   1.404   6.515   4.494
 8364TIP3   OH225036   1.533   6.434   4.405
 8364TIP3    H125037   1.544   6.350   4.450
 8364TIP3    H225038   1.620   6.474   4.407
 8365TIP3   OH225039   1.801   6.520   4.427
 8365TIP3    H125040   1.820   6.427   4.412
 8365TIP3    H225041   1.853   6.543   4.504
 8366TIP3   OH225042   2.355   5.168   4.510
 8366TIP3    H125043   2.319   5.096   4.562
 8366TIP3    H225044   2.427   5.128   4.460
 8367TIP3   OH225045   2.866   5.077   4.397
 8367TIP3    H125046   2.905   5.127   4.326
 8367TIP3    H225047   2.775   5.107   4.402
 8368TIP3   OH225048   2.979   5.162   4.162
 8368TIP3    H125049   3.049   5.101   4.138
 8368TIP3    H225050   3.017   5.248   4.149
 8369TIP3   OH225051   1.602   4.868   4.513
 8369TIP3    H125052   1.513   4.834   4.520
 8369TIP3    H225053   1.657   4.789   4.506
 8370TIP3   OH225054   1.423   4.778   4.169
 8370TIP3    H125055   1.448   4.826   4.090
 8370TIP3    H225056   1.387   4.845   4.227
 8371TIP3   OH225057   2.077   4.906   4.405
 8371TIP3    H125058   2.125   4.954   4.337
 8371TIP3    H225059   2.118   4.934   4.487
 8372TIP3   OH225060   2.576   5.060   4.382
 8372TIP3    H125061   2.590   5.027   4.293
 8372TIP3    H225062   2.580   4.983   4.438
 8373TIP3   OH225063   2.633   5.002   3.948
 8373TIP3    H125064   2.553   5.048   3.972
 8373TIP3    H225065   2.622   4.915   3.986
 8374TIP3   OH225066   1.107   6.348   3.922
 8374TIP3    H125067   1.027   6.313   3.883
 8374TIP3    H225068   1.108   6.440   3.896
 8375TIP3   OH225069   1.529   4.904   3.929
 8375TIP3    H125070   1.574   4.843   3.871
 8375TIP3    H225071   1.599   4.960   3.963
 8376TIP3   OH225072   2.016   5.102   4.026
 8376TIP3    H125073   2.075   5.050   4.080
 8376TIP3    H225074   2.031   5.192   4.054
 8377TIP3   OH225075   1.896   6.497   3.519
 8377TIP3    H125076   1.981   6.524   3.482
 8377TIP3    H225077   1.868   6.424   3.463
 8378TIP3   OH225078   2.603   6.640   3.620
 8378TIP3    H125079   2.597   6.545   3.614
 8378TIP3    H225080   2.559   6.673   3.542
 8379TIP3   OH225081   1.831   5.162   5.383
 8379TIP3    H125082   1.795   5.112   5.457
 8379TIP3    H225083   1.925   5.167   5.400
 8380TIP3   OH225084   2.073   5.164   5.511
 8380TIP3    H125085   2.152   5.143   5.460
 8380TIP3    H225086   2.073   5.101   5.582
 8381TIP3   OH225087   1.199   6.338   3.576
 8381TIP3    H125088   1.198   6.344   3.671
 8381TIP3    H225089   1.281   6.292   3.556
 8382TIP3   OH225090   2.898   5.239   5.301
 8382TIP3    H125091   2.913   5.208   5.391
 8382TIP3    H225092   2.984   5.235   5.260
 8383TIP3   OH225093   2.819   6.779   4.809
 8383TIP3    H125094   2.744   6.748   4.758
 8383TIP3    H225095   2.804   6.873   4.820
 8384TIP3   OH225096   4.097   6.169   3.549
 8384TIP3    H125097   4.065   6.255   3.522
 8384TIP3    H225098   4.026   6.109   3.526
 8385TIP3   OH225099   4.092   6.159   3.975
 8385TIP3    H125100   4.145   6.139   4.053
 8385TIP3    H225101   4.050   6.076   3.952
 8386TIP3   OH225102   3.390   6.020   4.322
 8386TIP3    H125103   3.426   5.967   4.393
 8386TIP3    H225104   3.466   6.043   4.268
 8387TIP3   OH225105   4.358   6.467   3.649
 8387TIP3    H125106   4.347   6.399   3.715
 8387TIP3    H225107   4.381   6.545   3.698
 8388TIP3   OH225108   3.377   6.452   4.015
 8388TIP3    H125109   3.363   6.357   4.017
 8388TIP3    H225110   3.472   6.462   4.006
 8389TIP3   OH225111   3.067   5.654   3.791
 8389TIP3    H125112   3.027   5.737   3.816
 8389TIP3    H225113   2.995   5.603   3.753
 8390TIP3   OH225114   3.140   5.956   4.012
 8390TIP3    H125115   3.189   5.878   4.039
 8390TIP3    H225116   3.207   6.016   3.978
 8391TIP3   OH225117   4.017   6.898   3.662
 8391TIP3    H125118   4.043   6.833   3.596
 8391TIP3    H225119   4.022   6.850   3.745
 8392TIP3   OH225120   3.896   6.380   3.980
 8392TIP3    H125121   3.939   6.299   3.953
 8392TIP3    H225122   3.968   6.437   4.009
 8393TIP3   OH225123   4.924   5.698   3.983
 8393TIP3    H125124   4.943   5.781   4.028
 8393TIP3    H225125   4.952   5.713   3.893
 8394TIP3   OH225126   4.311   5.872   4.013
 8394TIP3    H125127   4.346   5.787   4.041
 8394TIP3    H225128   4.270   5.854   3.929
 8395TIP3   OH225129   3.650   5.532   3.982
 8395TIP3    H125130   3.633   5.602   3.920
 8395TIP3    H225131   3.600   5.457   3.948
 8396TIP3   OH225132   4.359   5.626   3.605
 8396TIP3    H125133   4.421   5.620   3.678
 8396TIP3    H225134   4.410   5.661   3.533
 8397TIP3   OH225135   3.284   5.738   4.100
 8397TIP3    H125136   3.366   5.720   4.146
 8397TIP3    H225137   3.289   5.686   4.020
 8398TIP3   OH225138   3.704   5.942   3.919
 8398TIP3    H125139   3.799   5.927   3.924
 8398TIP3    H225140   3.669   5.859   3.885
 8399TIP3   OH225141   4.979   5.912   4.156
 8399TIP3    H125142   4.894   5.954   4.143
 8399TIP3    H225143   4.985   5.899   4.251
 8400TIP3   OH225144   3.637   5.531   4.432
 8400TIP3    H125145   3.586   5.564   4.359
 8400TIP3    H225146   3.583   5.547   4.509
 8401TIP3   OH225147   3.995   6.386   3.410
 8401TIP3    H125148   3.954   6.355   3.329
 8401TIP3    H225149   3.940   6.459   3.438
 8402TIP3   OH225150   3.742   6.302   4.197
 8402TIP3    H125151   3.687   6.373   4.230
 8402TIP3    H225152   3.790   6.341   4.123
 8403TIP3   OH225153   4.519   5.652   3.824
 8403TIP3    H125154   4.481   5.629   3.908
 8403TIP3    H225155   4.577   5.727   3.843
 8404TIP3   OH225156   3.525   5.637   4.202
 8404TIP3    H125157   3.582   5.710   4.226
 8404TIP3    H225158   3.571   5.593   4.130
 8405TIP3   OH225159   3.581   6.506   4.298
 8405TIP3    H125160   3.565   6.595   4.268
 8405TIP3    H225161   3.504   6.484   4.350
 8406TIP3   OH225162   2.961   6.207   3.553
 8406TIP3    H125163   2.926   6.222   3.465
 8406TIP3    H225164   2.985   6.294   3.584
 8407TIP3   OH225165   4.397   6.715   3.790
 8407TIP3    H125166   4.309   6.707   3.827
 8407TIP3    H225167   4.396   6.798   3.744
 8408TIP3   OH225168   4.713   5.615   4.155
 8408TIP3    H125169   4.627   5.627   4.114
 8408TIP3    H225170   4.776   5.633   4.085
 8409TIP3   OH225171   3.973   5.259   4.137
 8409TIP3    H125172   4.026   5.207   4.196
 8409TIP3    H225173   3.895   5.282   4.189
 8410TIP3   OH225174   4.102   6.748   3.442
 8410TIP3    H125175   4.154   6.668   3.434
 8410TIP3    H225176   4.160   6.818   3.413
 8411TIP3   OH225177   4.243   6.519   3.403
 8411TIP3    H125178   4.171   6.456   3.399
 8411TIP3    H225179   4.293   6.494   3.480
 8412TIP3   OH225180   4.634   6.602   4.132
 8412TIP3    H125181   4.615   6.527   4.076
 8412TIP3    H225182   4.620   6.679   4.076
 8413TIP3   OH225183   3.921   6.007   3.402
 8413TIP3    H125184   3.838   6.050   3.382
 8413TIP3    H225185   3.968   6.004   3.319
 8414TIP3   OH225186   3.889   5.810   3.095
 8414TIP3    H125187   3.955   5.858   3.146
 8414TIP3    H225188   3.938   5.742   3.051
 8415TIP3   OH225189   4.816   6.266   3.997
 8415TIP3    H125190   4.730   6.309   3.995
 8415TIP3    H225191   4.850   6.277   3.908
 8416TIP3   OH225192   4.281   6.095   3.361
 8416TIP3    H125193   4.226   6.124   3.435
 8416TIP3    H225194   4.363   6.068   3.401
 8417TIP3   OH225195   4.509   6.127   4.304
 8417TIP3    H125196   4.505   6.208   4.354
 8417TIP3    H225197   4.426   6.123   4.256
 8418TIP3   OH225198   3.507   6.076   3.770
 8418TIP3    H125199   3.471   6.015   3.706
 8418TIP3    H225200   3.579   6.027   3.812
 8419TIP3   OH225201   3.640   6.500   3.912
 8419TIP3    H125202   3.617   6.482   3.821
 8419TIP3    H225203   3.726   6.460   3.923
 8420TIP3   OH225204   3.606   6.068   4.146
 8420TIP3    H125205   3.644   6.031   4.067
 8420TIP3    H225206   3.657   6.147   4.163
 8421TIP3   OH225207   4.156   6.709   3.917
 8421TIP3    H125208   4.147   6.786   3.973
 8421TIP3    H225209   4.145   6.635   3.977
 8422TIP3   OH225210   3.780   6.609   4.464
 8422TIP3    H125211   3.718   6.665   4.511
 8422TIP3    H225212   3.724   6.555   4.407
 8423TIP3   OH225213   4.110   5.955   3.196
 8423TIP3    H125214   4.170   6.013   3.244
 8423TIP3    H225215   4.138   5.962   3.105
 8424TIP3   OH225216   3.531   6.169   4.600
 8424TIP3    H125217   3.529   6.262   4.624
 8424TIP3    H225218   3.439   6.144   4.596
 8425TIP3   OH225219   3.855   6.624   3.453
 8425TIP3    H125220   3.936   6.674   3.459
 8425TIP3    H225221   3.796   6.679   3.402
 8426TIP3   OH225222   3.567   6.767   4.548
 8426TIP3    H125223   3.542   6.773   4.456
 8426TIP3    H225224   3.485   6.751   4.595
 8427TIP3   OH225225   4.621   5.179   3.251
 8427TIP3    H125226   4.545   5.197   3.306
 8427TIP3    H225227   4.631   5.257   3.197
 8428TIP3   OH225228   3.383   5.918   3.569
 8428TIP3    H125229   3.303   5.961   3.537
 8428TIP3    H225230   3.355   5.828   3.589
 8429TIP3   OH225231   4.444   6.558   2.805
 8429TIP3    H125232   4.441   6.652   2.786
 8429TIP3    H225233   4.533   6.532   2.781
 8430TIP3   OH225234   3.160   6.321   4.497
 8430TIP3    H125235   3.091   6.300   4.434
 8430TIP3    H225236   3.195   6.237   4.525
 8431TIP3   OH225237   3.031   6.498   4.133
 8431TIP3    H125238   3.125   6.488   4.118
 8431TIP3    H225239   3.024   6.571   4.195
 8432TIP3   OH225240   4.863   6.967   4.198
 8432TIP3    H125241   4.870   6.872   4.209
 8432TIP3    H225242   4.784   6.992   4.246
 8433TIP3   OH225243   3.968   6.751   4.324
 8433TIP3    H125244   3.961   6.842   4.354
 8433TIP3    H225245   3.902   6.704   4.374
 8434TIP3   OH225246   3.743   6.851   3.274
 8434TIP3    H125247   3.695   6.829   3.195
 8434TIP3    H225248   3.707   6.935   3.302
 8435TIP3   OH225249   3.183   6.705   3.660
 8435TIP3    H125250   3.227   6.697   3.744
 8435TIP3    H225251   3.134   6.624   3.650
 8436TIP3   OH225252   3.943   6.778   2.909
 8436TIP3    H125253   3.996   6.706   2.874
 8436TIP3    H225254   3.977   6.791   2.998
 8437TIP3   OH225255   3.998   6.824   3.177
 8437TIP3    H125256   3.912   6.828   3.217
 8437TIP3    H225257   4.054   6.785   3.245
 8438TIP3   OH225258   4.755   6.080   4.466
 8438TIP3    H125259   4.674   6.084   4.416
 8438TIP3    H225260   4.773   5.986   4.474
 8439TIP3   OH225261   3.361   6.507   4.467
 8439TIP3    H125262   3.411   6.496   4.547
 8439TIP3    H225263   3.290   6.443   4.474
 8440TIP3   OH225264   3.742   5.317   4.293
 8440TIP3    H125265   3.659   5.283   4.259
 8440TIP3    H225266   3.717   5.394   4.344
 8441TIP3   OH225267   4.321   5.453   4.483
 8441TIP3    H125268   4.385   5.412   4.541
 8441TIP3    H225269   4.237   5.413   4.508
 8442TIP3   OH225270   4.519   5.866   4.403
 8442TIP3    H125271   4.477   5.862   4.489
 8442TIP3    H225272   4.497   5.953   4.369
 8443TIP3   OH225273   4.191   5.946   2.935
 8443TIP3    H125274   4.145   5.944   2.851
 8443TIP3    H225275   4.272   5.993   2.917
 8444TIP3   OH225276   3.898   5.359   3.254
 8444TIP3    H125277   3.866   5.363   3.344
 8444TIP3    H225278   3.861   5.278   3.219
 8445TIP3   OH225279   3.685   5.843   4.291
 8445TIP3    H125280   3.641   5.851   4.376
 8445TIP3    H225281   3.663   5.925   4.246
 8446TIP3   OH225282   3.563   5.728   3.809
 8446TIP3    H125283   3.475   5.700   3.834
 8446TIP3    H225284   3.576   5.692   3.721
 8447TIP3   OH225285   4.048   5.803   3.539
 8447TIP3    H125286   4.000   5.875   3.498
 8447TIP3    H225287   4.105   5.769   3.470
 8448TIP3   OH225288   4.230   6.074   4.616
 8448TIP3    H125289   4.203   6.003   4.674
 8448TIP3    H225290   4.323   6.087   4.635
 8449TIP3   OH225291   4.220   5.818   3.759
 8449TIP3    H125292   4.149   5.838   3.697
 8449TIP3    H225293   4.265   5.742   3.721
 8450TIP3   OH225294   3.518   5.856   4.512
 8450TIP3    H125295   3.568   5.907   4.575
 8450TIP3    H225296   3.498   5.774   4.558
 8451TIP3   OH225297   3.563   5.339   3.222
 8451TIP3    H125298   3.556   5.340   3.318
 8451TIP3    H225299   3.484   5.384   3.192
 8452TIP3   OH225300   3.112   5.383   4.086
 8452TIP3    H125301   3.181   5.418   4.142
 8452TIP3    H225302   3.156   5.358   4.005
 8453TIP3   OH225303   3.024   5.359   3.596
 8453TIP3    H125304   3.071   5.394   3.520
 8453TIP3    H225305   2.962   5.427   3.620
 8454TIP3   OH225306   4.254   6.069   4.189
 8454TIP3    H125307   4.280   6.004   4.125
 8454TIP3    H225308   4.214   6.019   4.260
 8455TIP3   OH225309   3.912   5.558   3.871
 8455TIP3    H125310   3.838   5.539   3.929
 8455TIP3    H225311   3.988   5.522   3.917
 8456TIP3   OH225312   3.328   5.598   3.868
 8456TIP3    H125313   3.239   5.601   3.832
 8456TIP3    H225314   3.356   5.508   3.853
 8457TIP3   OH225315   3.580   5.601   3.566
 8457TIP3    H125316   3.674   5.612   3.556
 8457TIP3    H225317   3.544   5.619   3.479
 8458TIP3   OH225318   4.395   5.611   4.072
 8458TIP3    H125319   4.370   5.627   4.162
 8458TIP3    H225320   4.341   5.537   4.044
 8459TIP3   OH225321   3.462   5.630   3.319
 8459TIP3    H125322   3.399   5.580   3.267
 8459TIP3    H225323   3.517   5.673   3.254
 8460TIP3   OH225324   4.576   7.310   4.293
 8460TIP3    H125325   4.574   7.324   4.198
 8460TIP3    H225326   4.655   7.355   4.323
 8461TIP3   OH225327   3.515   6.431   4.702
 8461TIP3    H125328   3.596   6.445   4.750
 8461TIP3    H225329   3.447   6.432   4.769
 8462TIP3   OH225330   3.978   5.894   3.962
 8462TIP3    H125331   4.029   5.830   3.913
 8462TIP3    H225332   3.973   5.858   4.051
 8463TIP3   OH225333   3.473   5.350   3.859
 8463TIP3    H125334   3.444   5.275   3.911
 8463TIP3    H225335   3.514   5.311   3.782
 8464TIP3   OH225336   3.952   5.804   4.222
 8464TIP3    H125337   3.865   5.820   4.257
 8464TIP3    H225338   4.012   5.843   4.287
 8465TIP3   OH225339   3.682   6.143   3.345
 8465TIP3    H125340   3.609   6.086   3.323
 8465TIP3    H225341   3.659   6.182   3.429
 8466TIP3   OH225342   4.576   6.399   3.955
 8466TIP3    H125343   4.611   6.447   3.880
 8466TIP3    H225344   4.497   6.356   3.922
 8467TIP3   OH225345   4.149   5.464   3.240
 8467TIP3    H125346   4.057   5.441   3.244
 8467TIP3    H225347   4.152   5.558   3.260
 8468TIP3   OH225348   4.097   6.484   4.356
 8468TIP3    H125349   4.144   6.467   4.438
 8468TIP3    H225350   4.056   6.570   4.370
 8469TIP3   OH225351   4.210   5.724   3.322
 8469TIP3    H125352   4.305   5.727   3.334
 8469TIP3    H225353   4.189   5.803   3.271
 8470TIP3   OH225354   3.381   6.170   3.999
 8470TIP3    H125355   3.418   6.146   3.914
 8470TIP3    H225356   3.443   6.134   4.062
 8471TIP3   OH225357   3.837   6.306   3.191
 8471TIP3    H125358   3.790   6.388   3.189
 8471TIP3    H225359   3.782   6.247   3.242
 8472TIP3   OH225360   3.258   6.098   4.635
 8472TIP3    H125361   3.269   6.072   4.727
 8472TIP3    H225362   3.188   6.042   4.603
 8473TIP3   OH225363   4.003   6.229   4.648
 8473TIP3    H125364   3.938   6.177   4.600
 8473TIP3    H225365   4.086   6.188   4.626
 8474TIP3   OH225366   4.240   6.771   4.245
 8474TIP3    H125367   4.146   6.755   4.250
 8474TIP3    H225368   4.263   6.806   4.331
 8475TIP3   OH225369   4.631   5.810   3.138
 8475TIP3    H125370   4.576   5.763   3.075
 8475TIP3    H225371   4.634   5.900   3.106
 8476TIP3   OH225372   4.880   6.690   4.220
 8476TIP3    H125373   4.786   6.671   4.219
 8476TIP3    H225374   4.912   6.656   4.137
 8477TIP3   OH225375   4.366   6.626   3.073
 8477TIP3    H125376   4.337   6.558   3.134
 8477TIP3    H225377   4.382   6.580   2.991
 8478TIP3   OH225378   4.346   6.263   3.852
 8478TIP3    H125379   4.257   6.240   3.877
 8478TIP3    H225380   4.383   6.183   3.816
 8479TIP3   OH225381   3.499   6.499   3.663
 8479TIP3    H125382   3.497   6.576   3.605
 8479TIP3    H225383   3.407   6.481   3.681
 8480TIP3   OH225384   3.059   5.783   3.372
 8480TIP3    H125385   3.104   5.865   3.395
 8480TIP3    H225386   2.979   5.784   3.426
 8481TIP3   OH225387   3.593   6.254   3.574
 8481TIP3    H125388   3.575   6.343   3.604
 8481TIP3    H225389   3.567   6.198   3.647
 8482TIP3   OH225390   3.781   6.822   4.119
 8482TIP3    H125391   3.819   6.894   4.068
 8482TIP3    H225392   3.855   6.787   4.170
 8483TIP3   OH225393   3.413   6.726   3.508
 8483TIP3    H125394   3.328   6.728   3.552
 8483TIP3    H225395   3.445   6.816   3.514
 8484TIP3   OH225396   4.136   6.484   4.083
 8484TIP3    H125397   4.125   6.480   4.178
 8484TIP3    H225398   4.205   6.419   4.065
 8485TIP3   OH225399   4.129   6.365   2.958
 8485TIP3    H125400   4.179   6.337   3.035
 8485TIP3    H225401   4.045   6.319   2.967
 8486TIP3   OH225402   4.394   6.983   4.133
 8486TIP3    H125403   4.325   6.919   4.150
 8486TIP3    H225404   4.359   7.036   4.061
 8487TIP3   OH225405   4.448   6.833   2.769
 8487TIP3    H125406   4.479   6.902   2.710
 8487TIP3    H225407   4.373   6.872   2.813
 8488TIP3   OH225408   3.467   5.606   4.638
 8488TIP3    H125409   3.372   5.612   4.642
 8488TIP3    H225410   3.491   5.547   4.710
 8489TIP3   OH225411   4.302   6.281   3.154
 8489TIP3    H125412   4.286   6.227   3.231
 8489TIP3    H225413   4.398   6.287   3.149
 8490TIP3   OH225414   3.203   6.704   4.287
 8490TIP3    H125415   3.255   6.638   4.333
 8490TIP3    H225416   3.222   6.786   4.333
 8491TIP3   OH225417   3.481   6.332   2.977
 8491TIP3    H125418   3.490   6.241   2.947
 8491TIP3    H225419   3.464   6.325   3.070
 8492TIP3   OH225420   3.421   6.351   3.248
 8492TIP3    H125421   3.488   6.323   3.310
 8492TIP3    H225422   3.423   6.446   3.252
 8493TIP3   OH225423   3.156   6.033   3.454
 8493TIP3    H125424   3.092   6.080   3.507
 8493TIP3    H225425   3.176   6.092   3.382
 8494TIP3   OH225426   4.325   5.678   4.331
 8494TIP3    H125427   4.406   5.721   4.362
 8494TIP3    H225428   4.319   5.599   4.385
 8495TIP3   OH225429   4.211   5.410   3.510
 8495TIP3    H125430   4.191   5.430   3.419
 8495TIP3    H225431   4.254   5.489   3.543
 8496TIP3   OH225432   3.694   6.536   3.182
 8496TIP3    H125433   3.609   6.562   3.217
 8496TIP3    H225434   3.715   6.603   3.117
 8497TIP3   OH225435   3.858   5.615   3.609
 8497TIP3    H125436   3.922   5.681   3.584
 8497TIP3    H225437   3.875   5.598   3.701
 8498TIP3   OH225438   4.159   5.903   4.386
 8498TIP3    H125439   4.183   5.939   4.471
 8498TIP3    H225440   4.208   5.821   4.380
 8499TIP3   OH225441   4.035   5.311   3.701
 8499TIP3    H125442   4.047   5.372   3.773
 8499TIP3    H225443   4.096   5.342   3.633
 8500TIP3   OH225444   3.444   6.626   3.253
 8500TIP3    H125445   3.419   6.697   3.194
 8500TIP3    H225446   3.432   6.663   3.341
 8501TIP3   OH225447   3.541   5.328   3.499
 8501TIP3    H125448   3.529   5.416   3.533
 8501TIP3    H225449   3.635   5.312   3.509
 8502TIP3   OH225450   4.779   5.796   4.368
 8502TIP3    H125451   4.687   5.814   4.387
 8502TIP3    H225452   4.776   5.729   4.299
 8503TIP3   OH225453   4.439   6.008   3.762
 8503TIP3    H125454   4.363   5.951   3.773
 8503TIP3    H225455   4.507   5.967   3.816
 8504TIP3   OH225456   3.176   6.216   3.240
 8504TIP3    H125457   3.248   6.279   3.250
 8504TIP3    H225458   3.208   6.153   3.176
 8505TIP3   OH225459   3.088   5.506   3.374
 8505TIP3    H125460   3.100   5.601   3.380
 8505TIP3    H225461   3.024   5.494   3.304
 8506TIP3   OH225462   4.419   6.982   3.707
 8506TIP3    H125463   4.377   7.033   3.637
 8506TIP3    H225464   4.513   6.994   3.692
 8507TIP3   OH225465   3.479   5.229   4.247
 8507TIP3    H125466   3.455   5.195   4.161
 8507TIP3    H225467   3.475   5.153   4.305
 8508TIP3   OH225468   3.012   6.482   3.630
 8508TIP3    H125469   2.961   6.512   3.704
 8508TIP3    H225470   2.970   6.523   3.554
 8509TIP3   OH225471   3.209   7.019   4.703
 8509TIP3    H125472   3.292   7.024   4.751
 8509TIP3    H225473   3.193   6.926   4.692
 8510TIP3   OH225474   3.674   6.933   4.740
 8510TIP3    H125475   3.765   6.904   4.751
 8510TIP3    H225476   3.640   6.878   4.669
 8511TIP3   OH225477   3.642   6.528   2.868
 8511TIP3    H125478   3.592   6.458   2.910
 8511TIP3    H225479   3.716   6.483   2.826
 8512TIP3   OH225480   4.294   6.869   4.496
 8512TIP3    H125481   4.306   6.798   4.559
 8512TIP3    H225482   4.369   6.927   4.510
 8513TIP3   OH225483   4.082   6.574   2.789
 8513TIP3    H125484   4.112   6.509   2.852
 8513TIP3    H225485   4.141   6.566   2.715
 8514TIP3   OH225486   3.312   6.419   4.892
 8514TIP3    H125487   3.333   6.327   4.902
 8514TIP3    H225488   3.225   6.420   4.851
 8515TIP3   OH225489   3.300   6.026   3.089
 8515TIP3    H125490   3.351   5.999   3.166
 8515TIP3    H225491   3.366   6.039   3.021
 8516TIP3   OH225492   3.931   6.502   4.669
 8516TIP3    H125493   3.887   6.521   4.586
 8516TIP3    H225494   3.968   6.414   4.657
 8517TIP3   OH225495   3.873   6.248   2.925
 8517TIP3    H125496   3.850   6.260   3.017
 8517TIP3    H225497   3.856   6.156   2.907
 8518TIP3   OH225498   4.413   6.545   4.290
 8518TIP3    H125499   4.490   6.572   4.239
 8518TIP3    H225500   4.346   6.610   4.268
 8519TIP3   OH225501   3.430   6.166   4.893
 8519TIP3    H125502   3.506   6.140   4.841
 8519TIP3    H225503   3.465   6.182   4.980
 8520TIP3   OH225504   3.475   5.964   3.301
 8520TIP3    H125505   3.455   5.933   3.389
 8520TIP3    H225506   3.522   5.891   3.260
 8521TIP3   OH225507   3.760   6.026   4.549
 8521TIP3    H125508   3.687   6.086   4.563
 8521TIP3    H225509   3.807   6.063   4.474
 8522TIP3   OH225510   3.615   5.779   3.146
 8522TIP3    H125511   3.587   5.783   3.054
 8522TIP3    H225512   3.711   5.785   3.141
 8523TIP3   OH225513   4.293   6.420   4.644
 8523TIP3    H125514   4.362   6.381   4.590
 8523TIP3    H225515   4.290   6.364   4.722
 8524TIP3   OH225516   4.412   6.073   2.823
 8524TIP3    H125517   4.398   6.031   2.738
 8524TIP3    H225518   4.387   6.164   2.809
 8525TIP3   OH225519   3.890   5.816   4.667
 8525TIP3    H125520   3.895   5.743   4.605
 8525TIP3    H225521   3.848   5.886   4.616
 8526TIP3   OH225522   3.894   5.626   4.463
 8526TIP3    H125523   3.927   5.637   4.374
 8526TIP3    H225524   3.807   5.589   4.452
 8527TIP3   OH225525   3.907   6.147   4.356
 8527TIP3    H125526   3.996   6.153   4.322
 8527TIP3    H225527   3.856   6.206   4.300
 8528TIP3   OH225528   4.498   6.097   4.713
 8528TIP3    H125529   4.508   6.002   4.711
 8528TIP3    H225530   4.585   6.131   4.692
 8529TIP3   OH225531   4.533   6.367   4.456
 8529TIP3    H125532   4.481   6.430   4.406
 8529TIP3    H225533   4.622   6.378   4.425
 8530TIP3   OH225534   3.776   5.901   4.908
 8530TIP3    H125535   3.709   5.836   4.929
 8530TIP3    H225536   3.807   5.878   4.821
 8531TIP3   OH225537   4.061   5.360   4.547
 8531TIP3    H125538   3.995   5.408   4.497
 8531TIP3    H225539   4.074   5.278   4.499
 8532TIP3   OH225540   4.148   5.857   4.762
 8532TIP3    H125541   4.139   5.842   4.856
 8532TIP3    H225542   4.062   5.834   4.725
 8533TIP3   OH225543   4.405   5.832   4.645
 8533TIP3    H125544   4.323   5.815   4.692
 8533TIP3    H225545   4.472   5.785   4.697
 8534TIP3   OH225546   4.636   5.768   4.786
 8534TIP3    H125547   4.651   5.674   4.793
 8534TIP3    H225548   4.631   5.798   4.877
 8535TIP3   OH225549   3.610   5.681   4.972
 8535TIP3    H125550   3.616   5.595   4.932
 8535TIP3    H225551   3.651   5.671   5.058
 8536TIP3   OH225552   4.089   5.363   4.821
 8536TIP3    H125553   4.159   5.297   4.823
 8536TIP3    H225554   4.066   5.370   4.728
 8537TIP3   OH225555   4.184   5.576   4.970
 8537TIP3    H125556   4.158   5.505   4.912
 8537TIP3    H225557   4.111   5.638   4.968
 8538TIP3   OH225558   3.425   6.842   3.071
 8538TIP3    H125559   3.512   6.820   3.038
 8538TIP3    H225560   3.384   6.892   3.000
 8539TIP3   OH225561   2.903   6.204   3.269
 8539TIP3    H125562   2.997   6.219   3.259
 8539TIP3    H225563   2.887   6.120   3.226
 8540TIP3   OH225564   2.806   6.796   3.718
 8540TIP3    H125565   2.742   6.741   3.672
 8540TIP3    H225566   2.851   6.736   3.778
 8541TIP3   OH225567   2.949   6.632   3.889
 8541TIP3    H125568   2.940   6.562   3.953
 8541TIP3    H225569   3.000   6.699   3.935
 8542TIP3   OH225570   4.688   7.040   3.693
 8542TIP3    H125571   4.712   7.065   3.782
 8542TIP3    H225572   4.750   7.086   3.637
 8543TIP3   OH225573   4.713   7.061   3.975
 8543TIP3    H125574   4.664   6.979   3.967
 8543TIP3    H225575   4.781   7.043   4.040
 8544TIP3   OH225576   4.756   6.764   4.545
 8544TIP3    H125577   4.686   6.771   4.611
 8544TIP3    H225578   4.802   6.848   4.550
 8545TIP3   OH225579   4.582   6.277   3.155
 8545TIP3    H125580   4.641   6.347   3.128
 8545TIP3    H225581   4.624   6.238   3.232
 8546TIP3   OH225582   4.706   6.134   3.358
 8546TIP3    H125583   4.639   6.094   3.413
 8546TIP3    H225584   4.771   6.168   3.420
 8547TIP3   OH225585   4.755   6.536   3.789
 8547TIP3    H125586   4.808   6.465   3.752
 8547TIP3    H225587   4.757   6.605   3.723
 8548TIP3   OH225588   4.568   6.824   3.981
 8548TIP3    H125589   4.501   6.868   4.033
 8548TIP3    H225590   4.519   6.782   3.910
 8549TIP3   OH225591   4.618   6.051   3.003
 8549TIP3    H125592   4.546   6.051   2.940
 8549TIP3    H225593   4.602   6.128   3.058
 8550TIP3   OH225594   4.484   5.699   2.935
 8550TIP3    H125595   4.433   5.736   2.863
 8550TIP3    H225596   4.473   5.604   2.927
 8551TIP3   OH225597   4.505   5.994   3.493
 8551TIP3    H125598   4.510   5.899   3.481
 8551TIP3    H225599   4.487   6.005   3.587
 8552TIP3   OH225600   3.128   6.064   4.265
 8552TIP3    H125601   3.118   6.026   4.177
 8552TIP3    H225602   3.222   6.058   4.283
 8553TIP3   OH225603   4.790   6.410   4.357
 8553TIP3    H125604   4.857   6.343   4.345
 8553TIP3    H225605   4.799   6.467   4.280
 8554TIP3   OH225606   4.972   6.203   4.352
 8554TIP3    H125607   4.896   6.158   4.390
 8554TIP3    H225608   5.046   6.147   4.374
 8555TIP3   OH225609   4.437   5.427   2.908
 8555TIP3    H125610   4.501   5.403   2.975
 8555TIP3    H225611   4.354   5.390   2.938
 8556TIP3   OH225612   4.500   5.718   3.376
 8556TIP3    H125613   4.543   5.633   3.389
 8556TIP3    H225614   4.544   5.757   3.301
 8557TIP3   OH225615   4.654   5.885   3.897
 8557TIP3    H125616   4.737   5.902   3.851
 8557TIP3    H225617   4.667   5.922   3.984
 8558TIP3   OH225618   4.726   6.036   4.124
 8558TIP3    H125619   4.654   6.063   4.180
 8558TIP3    H225620   4.758   6.117   4.084
 8559TIP3   OH225621   3.344   5.734   4.914
 8559TIP3    H125622   3.439   5.730   4.929
 8559TIP3    H225623   3.310   5.652   4.950
 8560TIP3   OH225624   5.187   5.636   4.662
 8560TIP3    H125625   5.250   5.573   4.626
 8560TIP3    H225626   5.153   5.682   4.585
 8561TIP3   OH225627   4.611   5.468   3.424
 8561TIP3    H125628   4.658   5.456   3.507
 8561TIP3    H225629   4.550   5.394   3.420
 8562TIP3   OH225630   3.315   5.453   4.264
 8562TIP3    H125631   3.368   5.373   4.270
 8562TIP3    H225632   3.379   5.523   4.247
 8563TIP3   OH225633   3.101   5.719   4.316
 8563TIP3    H125634   3.152   5.710   4.235
 8563TIP3    H225635   3.145   5.790   4.364
 8564TIP3   OH225636   5.041   5.748   4.453
 8564TIP3    H125637   4.953   5.781   4.469
 8564TIP3    H225638   5.028   5.664   4.409
 8565TIP3   OH225639   4.662   5.384   3.069
 8565TIP3    H125640   4.707   5.322   3.012
 8565TIP3    H225641   4.721   5.459   3.074
 8566TIP3   OH225642   3.089   5.219   3.822
 8566TIP3    H125643   3.003   5.211   3.863
 8566TIP3    H225644   3.075   5.276   3.746
 8567TIP3   OH225645   4.247   6.947   3.335
 8567TIP3    H125646   4.304   6.933   3.259
 8567TIP3    H225647   4.293   7.013   3.387
 8568TIP3   OH225648   3.297   5.306   4.659
 8568TIP3    H125649   3.239   5.283   4.731
 8568TIP3    H225650   3.240   5.347   4.594
 8569TIP3   OH225651   3.342   6.741   4.713
 8569TIP3    H125652   3.249   6.719   4.706
 8569TIP3    H225653   3.365   6.720   4.804
 8570TIP3   OH225654   3.551   6.782   4.266
 8570TIP3    H125655   3.502   6.858   4.234
 8570TIP3    H225656   3.637   6.790   4.223
 8571TIP3   OH225657   3.956   7.018   4.406
 8571TIP3    H125658   3.994   7.008   4.493
 8571TIP3    H225659   4.020   7.070   4.357
 8572TIP3   OH225660   4.147   7.170   4.276
 8572TIP3    H125661   4.208   7.114   4.228
 8572TIP3    H225662   4.203   7.226   4.330
 8573TIP3   OH225663   4.962   5.485   4.373
 8573TIP3    H125664   4.873   5.457   4.350
 8573TIP3    H225665   5.014   5.405   4.366
 8574TIP3   OH225666   3.215   7.036   4.310
 8574TIP3    H125667   3.123   7.055   4.291
 8574TIP3    H225668   3.238   7.097   4.379
 8575TIP3   OH225669   3.446   7.015   4.162
 8575TIP3    H125670   3.363   7.022   4.209
 8575TIP3    H225671   3.424   7.037   4.072
 8576TIP3   OH225672   3.862   7.031   3.953
 8576TIP3    H125673   3.792   7.043   3.890
 8576TIP3    H225674   3.872   7.116   3.995
 8577TIP3   OH225675   4.128   6.974   4.006
 8577TIP3    H125676   4.036   6.989   3.985
 8577TIP3    H225677   4.176   7.041   3.957
 8578TIP3   OH225678   4.332   7.149   3.909
 8578TIP3    H125679   4.327   7.234   3.866
 8578TIP3    H225680   4.362   7.089   3.840
 8579TIP3   OH225681   3.126   6.805   4.039
 8579TIP3    H125682   3.151   6.777   4.127
 8579TIP3    H225683   3.196   6.773   3.982
 8580TIP3   OH225684   3.328   6.693   3.895
 8580TIP3    H125685   3.339   6.608   3.937
 8580TIP3    H225686   3.415   6.732   3.896
 8581TIP3   OH225687   3.597   6.777   3.913
 8581TIP3    H125688   3.615   6.684   3.898
 8581TIP3    H225689   3.650   6.800   3.989
 8582TIP3   OH225690   4.128   5.417   3.965
 8582TIP3    H125691   4.091   5.361   4.034
 8582TIP3    H225692   4.212   5.377   3.944
 8583TIP3   OH225693   4.659   5.335   3.874
 8583TIP3    H125694   4.693   5.388   3.801
 8583TIP3    H225695   4.567   5.359   3.880
 8584TIP3   OH225696   4.773   5.424   3.641
 8584TIP3    H125697   4.842   5.362   3.617
 8584TIP3    H225698   4.813   5.510   3.630
 8585TIP3   OH225699   3.400   5.123   4.003
 8585TIP3    H125700   3.312   5.089   4.013
 8585TIP3    H225701   3.456   5.045   3.998
 8586TIP3   OH225702   3.200   5.023   3.647
 8586TIP3    H125703   3.234   5.074   3.574
 8586TIP3    H225704   3.170   5.088   3.710
 8587TIP3   OH225705   3.865   5.175   3.892
 8587TIP3    H125706   3.922   5.220   3.829
 8587TIP3    H225707   3.901   5.198   3.978
 8588TIP3   OH225708   4.375   5.321   3.879
 8588TIP3    H125709   4.376   5.281   3.792
 8588TIP3    H225710   4.374   5.246   3.939
 8589TIP3   OH225711   4.430   5.253   3.437
 8589TIP3    H125712   4.350   5.300   3.460
 8589TIP3    H225713   4.420   5.167   3.477
 8590TIP3   OH225714   2.895   6.603   3.412
 8590TIP3    H125715   2.811   6.567   3.383
 8590TIP3    H225716   2.895   6.693   3.381
 8591TIP3   OH225717   3.325   5.162   3.416
 8591TIP3    H125718   3.371   5.099   3.360
 8591TIP3    H225719   3.395   5.217   3.452
 8592TIP3   OH225720   3.818   5.359   3.520
 8592TIP3    H125721   3.875   5.309   3.578
 8592TIP3    H225722   3.830   5.450   3.546
 8593TIP3   OH225723   3.682   6.762   3.000
 8593TIP3    H125724   3.768   6.786   2.967
 8593TIP3    H225725   3.656   6.686   2.948
 8594TIP3   OH225726   4.400   6.895   3.107
 8594TIP3    H125727   4.393   6.800   3.101
 8594TIP3    H225728   4.355   6.928   3.029
 8595TIP3   OH225729   3.621   5.412   4.882
 8595TIP3    H125730   3.590   5.344   4.942
 8595TIP3    H225731   3.715   5.418   4.900
 8596TIP3   OH225732   3.874   5.416   4.998
 8596TIP3    H125733   3.949   5.396   4.942
 8596TIP3    H225734   3.871   5.345   5.062
 8597TIP3   OH225735   3.009   6.614   3.067
 8597TIP3    H125736   3.004   6.608   3.162
 8597TIP3    H225737   3.088   6.564   3.044
 8598TIP3   OH225738   4.701   5.501   4.797
 8598TIP3    H125739   4.717   5.469   4.886
 8598TIP3    H225740   4.785   5.493   4.753
 8599TIP3   OH225741   4.614   7.035   4.297
 8599TIP3    H125742   4.540   7.005   4.245
 8599TIP3    H225743   4.600   7.130   4.306
 8600TIP3   OH225744   5.896   6.425   3.035
 8600TIP3    H125745   5.864   6.512   3.010
 8600TIP3    H225746   5.825   6.366   3.012
 8601TIP3   OH225747   5.890   6.412   3.458
 8601TIP3    H125748   5.939   6.397   3.538
 8601TIP3    H225749   5.844   6.329   3.442
 8602TIP3   OH225750   5.186   6.278   3.806
 8602TIP3    H125751   5.222   6.225   3.878
 8602TIP3    H225752   5.263   6.305   3.756
 8603TIP3   OH225753   6.149   6.727   3.128
 8603TIP3    H125754   6.141   6.660   3.195
 8603TIP3    H225755   6.175   6.806   3.176
 8604TIP3   OH225756   5.176   6.707   3.499
 8604TIP3    H125757   5.160   6.613   3.503
 8604TIP3    H225758   5.271   6.715   3.493
 8605TIP3   OH225759   4.865   5.913   3.276
 8605TIP3    H125760   4.824   5.995   3.302
 8605TIP3    H225761   4.793   5.860   3.240
 8606TIP3   OH225762   4.938   6.213   3.498
 8606TIP3    H125763   4.987   6.136   3.526
 8606TIP3    H225764   5.004   6.274   3.466
 8607TIP3   OH225765   5.811   7.153   3.147
 8607TIP3    H125766   5.841   7.086   3.086
 8607TIP3    H225767   5.817   7.111   3.233
 8608TIP3   OH225768   5.696   6.637   3.467
 8608TIP3    H125769   5.739   6.556   3.438
 8608TIP3    H225770   5.767   6.693   3.498
 8609TIP3   OH225771   6.121   6.132   3.491
 8609TIP3    H125772   6.138   6.044   3.525
 8609TIP3    H225773   6.070   6.118   3.412
 8610TIP3   OH225774   5.460   5.787   3.461
 8610TIP3    H125775   5.435   5.859   3.403
 8610TIP3    H225776   5.404   5.714   3.433
 8611TIP3   OH225777   6.152   5.886   3.098
 8611TIP3    H125778   6.214   5.877   3.170
 8611TIP3    H225779   6.203   5.921   3.026
 8612TIP3   OH225780   5.083   5.997   3.589
 8612TIP3    H125781   5.165   5.978   3.634
 8612TIP3    H225782   5.086   5.944   3.509
 8613TIP3   OH225783   5.503   6.199   3.403
 8613TIP3    H125784   5.597   6.182   3.411
 8613TIP3    H225785   5.467   6.117   3.370
 8614TIP3   OH225786   5.439   5.787   3.915
 8614TIP3    H125787   5.386   5.820   3.843
 8614TIP3    H225788   5.384   5.797   3.992
 8615TIP3   OH225789   5.792   6.642   2.890
 8615TIP3    H125790   5.750   6.611   2.810
 8615TIP3    H225791   5.737   6.714   2.920
 8616TIP3   OH225792   5.535   6.562   3.681
 8616TIP3    H125793   5.481   6.632   3.716
 8616TIP3    H225794   5.584   6.603   3.609
 8617TIP3   OH225795   6.314   5.903   3.319
 8617TIP3    H125796   6.265   5.880   3.397
 8617TIP3    H225797   6.384   5.960   3.350
 8618TIP3   OH225798   5.328   5.893   3.683
 8618TIP3    H125799   5.384   5.967   3.708
 8618TIP3    H225800   5.376   5.850   3.612
 8619TIP3   OH225801   5.376   6.764   3.785
 8619TIP3    H125802   5.361   6.854   3.755
 8619TIP3    H225803   5.299   6.742   3.837
 8620TIP3   OH225804   4.756   6.466   3.037
 8620TIP3    H125805   4.716   6.486   2.952
 8620TIP3    H225806   4.780   6.551   3.073
 8621TIP3   OH225807   6.192   6.971   3.272
 8621TIP3    H125808   6.104   6.964   3.311
 8621TIP3    H225809   6.192   7.056   3.229
 8622TIP3   OH225810   5.781   5.480   3.640
 8622TIP3    H125811   5.774   5.389   3.667
 8622TIP3    H225812   5.705   5.523   3.680
 8623TIP3   OH225813   5.898   7.001   2.929
 8623TIP3    H125814   5.952   6.923   2.918
 8623TIP3    H225815   5.953   7.073   2.899
 8624TIP3   OH225816   6.042   6.773   2.874
 8624TIP3    H125817   5.968   6.712   2.875
 8624TIP3    H225818   6.091   6.752   2.953
 8625TIP3   OH225819   6.427   6.858   3.617
 8625TIP3    H125820   6.416   6.782   3.560
 8625TIP3    H225821   6.414   6.933   3.560
 8626TIP3   OH225822   5.719   6.264   2.891
 8626TIP3    H125823   5.637   6.308   2.869
 8626TIP3    H225824   5.767   6.259   2.808
 8627TIP3   OH225825   5.685   6.076   2.574
 8627TIP3    H125826   5.751   6.121   2.627
 8627TIP3    H225827   5.733   6.007   2.529
 8628TIP3   OH225828   6.598   6.465   3.449
 8628TIP3    H125829   6.522   6.521   3.464
 8628TIP3    H225830   6.648   6.509   3.380
 8629TIP3   OH225831   6.078   6.360   2.842
 8629TIP3    H125832   6.025   6.388   2.916
 8629TIP3    H225833   6.162   6.334   2.881
 8630TIP3   OH225834   6.301   6.378   3.796
 8630TIP3    H125835   6.302   6.462   3.841
 8630TIP3    H225836   6.217   6.377   3.750
 8631TIP3   OH225837   5.308   6.335   3.253
 8631TIP3    H125838   5.270   6.273   3.191
 8631TIP3    H225839   5.379   6.286   3.295
 8632TIP3   OH225840   5.440   6.755   3.397
 8632TIP3    H125841   5.418   6.736   3.306
 8632TIP3    H225842   5.527   6.717   3.409
 8633TIP3   OH225843   5.404   6.325   3.632
 8633TIP3    H125844   5.443   6.289   3.552
 8633TIP3    H225845   5.454   6.406   3.648
 8634TIP3   OH225846   5.952   6.962   3.401
 8634TIP3    H125847   5.942   7.042   3.453
 8634TIP3    H225848   5.939   6.891   3.465
 8635TIP3   OH225849   5.576   6.864   3.951
 8635TIP3    H125850   5.516   6.922   3.999
 8635TIP3    H225851   5.519   6.812   3.895
 8636TIP3   OH225852   5.905   6.215   2.685
 8636TIP3    H125853   5.966   6.271   2.733
 8636TIP3    H225854   5.931   6.224   2.594
 8637TIP3   OH225855   5.330   6.414   4.084
 8637TIP3    H125856   5.333   6.506   4.109
 8637TIP3    H225857   5.237   6.393   4.082
 8638TIP3   OH225858   5.652   6.877   2.936
 8638TIP3    H125859   5.734   6.927   2.945
 8638TIP3    H225860   5.587   6.942   2.908
 8639TIP3   OH225861   5.364   7.023   4.035
 8639TIP3    H125862   5.339   7.031   3.943
 8639TIP3    H225863   5.282   7.007   4.081
 8640TIP3   OH225864   6.422   5.439   2.743
 8640TIP3    H125865   6.343   5.458   2.794
 8640TIP3    H225866   6.433   5.516   2.687
 8641TIP3   OH225867   5.179   6.176   3.054
 8641TIP3    H125868   5.100   6.220   3.024
 8641TIP3    H225869   5.150   6.087   3.076
 8642TIP3   OH225870   6.236   6.819   2.226
 8642TIP3    H125871   6.247   6.913   2.235
 8642TIP3    H225872   6.324   6.783   2.237
 8643TIP3   OH225873   4.957   6.575   3.985
 8643TIP3    H125874   4.887   6.556   3.923
 8643TIP3    H225875   4.991   6.489   4.011
 8644TIP3   OH225876   4.816   6.759   3.624
 8644TIP3    H125877   4.912   6.763   3.623
 8644TIP3    H225878   4.790   6.836   3.674
 8645TIP3   OH225879   6.654   7.220   3.685
 8645TIP3    H125880   6.660   7.125   3.698
 8645TIP3    H225881   6.574   7.245   3.732
 8646TIP3   OH225882   5.764   7.007   3.811
 8646TIP3    H125883   5.758   7.098   3.841
 8646TIP3    H225884   5.697   6.961   3.862
 8647TIP3   OH225885   5.525   7.114   2.764
 8647TIP3    H125886   5.454   7.101   2.701
 8647TIP3    H225887   5.507   7.199   2.804
 8648TIP3   OH225888   4.979   6.961   3.146
 8648TIP3    H125889   5.022   6.954   3.231
 8648TIP3    H225890   4.929   6.880   3.137
 8649TIP3   OH225891   5.781   7.012   2.398
 8649TIP3    H125892   5.876   7.024   2.393
 8649TIP3    H225893   5.759   7.034   2.488
 8650TIP3   OH225894   5.777   7.083   2.661
 8650TIP3    H125895   5.692   7.090   2.705
 8650TIP3    H225896   5.837   7.054   2.731
 8651TIP3   OH225897   6.546   6.348   3.977
 8651TIP3    H125898   6.466   6.357   3.926
 8651TIP3    H225899   6.568   6.255   3.970
 8652TIP3   OH225900   5.158   6.762   3.954
 8652TIP3    H125901   5.209   6.750   4.034
 8652TIP3    H225902   5.086   6.698   3.961
 8653TIP3   OH225903   5.545   5.573   3.767
 8653TIP3    H125904   5.461   5.538   3.738
 8653TIP3    H225905   5.523   5.651   3.818
 8654TIP3   OH225906   6.094   5.686   3.968
 8654TIP3    H125907   6.163   5.659   4.029
 8654TIP3    H225908   6.012   5.671   4.016
 8655TIP3   OH225909   6.309   6.109   3.881
 8655TIP3    H125910   6.269   6.102   3.968
 8655TIP3    H225911   6.292   6.200   3.855
 8656TIP3   OH225912   5.982   6.223   2.427
 8656TIP3    H125913   5.949   6.201   2.339
 8656TIP3    H225914   6.066   6.266   2.410
 8657TIP3   OH225915   5.694   5.616   2.734
 8657TIP3    H125916   5.659   5.622   2.823
 8657TIP3    H225917   5.658   5.534   2.700
 8658TIP3   OH225918   5.483   6.102   3.779
 8658TIP3    H125919   5.436   6.108   3.862
 8658TIP3    H225920   5.460   6.184   3.734
 8659TIP3   OH225921   5.362   5.984   3.296
 8659TIP3    H125922   5.273   5.959   3.322
 8659TIP3    H225923   5.372   5.948   3.208
 8660TIP3   OH225924   5.843   6.057   3.024
 8660TIP3    H125925   5.795   6.130   2.984
 8660TIP3    H225926   5.900   6.025   2.954
 8661TIP3   OH225927   6.028   6.326   4.100
 8661TIP3    H125928   6.001   6.258   4.162
 8661TIP3    H225929   6.120   6.341   4.120
 8662TIP3   OH225930   6.007   6.076   3.246
 8662TIP3    H125931   5.937   6.093   3.183
 8662TIP3    H225932   6.053   6.000   3.211
 8663TIP3   OH225933   5.316   6.115   3.998
 8663TIP3    H125934   5.332   6.176   4.070
 8663TIP3    H225935   5.296   6.032   4.041
 8664TIP3   OH225936   5.360   5.596   2.709
 8664TIP3    H125937   5.351   5.596   2.804
 8664TIP3    H225938   5.281   5.640   2.678
 8665TIP3   OH225939   4.911   5.644   3.566
 8665TIP3    H125940   4.981   5.675   3.622
 8665TIP3    H225941   4.955   5.612   3.487
 8666TIP3   OH225942   4.822   5.614   3.082
 8666TIP3    H125943   4.867   5.650   3.005
 8666TIP3    H225944   4.760   5.682   3.106
 8667TIP3   OH225945   6.050   6.324   3.674
 8667TIP3    H125946   6.079   6.258   3.611
 8667TIP3    H225947   6.009   6.273   3.744
 8668TIP3   OH225948   5.725   5.779   3.350
 8668TIP3    H125949   5.645   5.777   3.404
 8668TIP3    H225950   5.796   5.762   3.411
 8669TIP3   OH225951   5.125   5.858   3.355
 8669TIP3    H125952   5.036   5.863   3.320
 8669TIP3    H225953   5.151   5.767   3.342
 8670TIP3   OH225954   5.377   5.858   3.052
 8670TIP3    H125955   5.472   5.868   3.040
 8670TIP3    H225956   5.340   5.876   2.966
 8671TIP3   OH225957   6.149   5.863   3.544
 8671TIP3    H125958   6.141   5.874   3.638
 8671TIP3    H225959   6.080   5.801   3.521
 8672TIP3   OH225960   5.260   5.887   2.806
 8672TIP3    H125961   5.195   5.837   2.756
 8672TIP3    H225962   5.314   5.929   2.740
 8673TIP3   OH225963   6.371   7.565   3.779
 8673TIP3    H125964   6.369   7.580   3.685
 8673TIP3    H225965   6.451   7.608   3.809
 8674TIP3   OH225966   5.315   6.679   4.186
 8674TIP3    H125967   5.395   6.697   4.235
 8674TIP3    H225968   5.246   6.682   4.253
 8675TIP3   OH225969   5.776   6.144   3.457
 8675TIP3    H125970   5.834   6.085   3.409
 8675TIP3    H225971   5.771   6.107   3.545
 8676TIP3   OH225972   5.271   5.609   3.349
 8676TIP3    H125973   5.241   5.536   3.402
 8676TIP3    H225974   5.300   5.569   3.267
 8677TIP3   OH225975   5.751   6.053   3.720
 8677TIP3    H125976   5.663   6.080   3.747
 8677TIP3    H225977   5.809   6.102   3.778
 8678TIP3   OH225978   5.486   6.402   2.826
 8678TIP3    H125979   5.413   6.345   2.805
 8678TIP3    H225980   5.462   6.443   2.909
 8679TIP3   OH225981   6.384   6.644   3.442
 8679TIP3    H125982   6.421   6.697   3.370
 8679TIP3    H225983   6.301   6.612   3.407
 8680TIP3   OH225984   5.947   5.718   2.734
 8680TIP3    H125985   5.854   5.696   2.732
 8680TIP3    H225986   5.949   5.813   2.748
 8681TIP3   OH225987   5.889   6.738   3.848
 8681TIP3    H125988   5.939   6.724   3.929
 8681TIP3    H225989   5.849   6.824   3.859
 8682TIP3   OH225990   6.007   5.982   2.808
 8682TIP3    H125991   6.102   5.985   2.817
 8682TIP3    H225992   5.985   6.059   2.755
 8683TIP3   OH225993   5.178   6.422   3.484
 8683TIP3    H125994   5.217   6.402   3.399
 8683TIP3    H225995   5.240   6.387   3.547
 8684TIP3   OH225996   5.635   6.565   2.664
 8684TIP3    H125997   5.586   6.647   2.669
 8684TIP3    H225998   5.584   6.503   2.716
 8685TIP3   OH225999   5.057   6.346   4.119
 8685TIP3    H126000   5.063   6.321   4.212
 8685TIP3    H226001   4.983   6.296   4.085
 8686TIP3   OH226002   5.794   6.479   4.138
 8686TIP3    H126003   5.725   6.418   4.111
 8686TIP3    H226004   5.875   6.437   4.110
 8687TIP3   OH226005   6.035   7.022   3.732
 8687TIP3    H126006   5.941   7.009   3.739
 8687TIP3    H226007   6.060   7.061   3.816
 8688TIP3   OH226008   6.428   6.058   2.637
 8688TIP3    H126009   6.370   6.010   2.577
 8688TIP3    H226010   6.427   6.148   2.604
 8689TIP3   OH226011   6.673   6.935   3.715
 8689TIP3    H126012   6.578   6.921   3.709
 8689TIP3    H226013   6.707   6.908   3.629
 8690TIP3   OH226014   6.134   6.869   2.574
 8690TIP3    H126015   6.105   6.832   2.657
 8690TIP3    H226016   6.197   6.806   2.540
 8691TIP3   OH226017   6.145   6.521   3.336
 8691TIP3    H126018   6.056   6.501   3.364
 8691TIP3    H226019   6.177   6.440   3.297
 8692TIP3   OH226020   5.294   6.754   3.148
 8692TIP3    H126021   5.287   6.831   3.093
 8692TIP3    H226022   5.205   6.741   3.183
 8693TIP3   OH226023   4.855   6.040   2.864
 8693TIP3    H126024   4.899   6.122   2.886
 8693TIP3    H226025   4.774   6.041   2.916
 8694TIP3   OH226026   5.388   6.513   3.053
 8694TIP3    H126027   5.368   6.601   3.084
 8694TIP3    H226028   5.364   6.455   3.126
 8695TIP3   OH226029   5.578   7.080   3.605
 8695TIP3    H126030   5.616   7.152   3.555
 8695TIP3    H226031   5.652   7.046   3.657
 8696TIP3   OH226032   5.211   6.980   2.998
 8696TIP3    H126033   5.125   6.985   3.040
 8696TIP3    H226034   5.246   7.070   3.004
 8697TIP3   OH226035   5.933   6.740   3.576
 8697TIP3    H126036   5.917   6.737   3.670
 8697TIP3    H226037   6.014   6.691   3.563
 8698TIP3   OH226038   5.917   6.632   2.447
 8698TIP3    H126039   5.978   6.604   2.516
 8698TIP3    H226040   5.833   6.592   2.471
 8699TIP3   OH226041   6.186   7.241   3.617
 8699TIP3    H126042   6.115   7.178   3.630
 8699TIP3    H226043   6.156   7.296   3.545
 8700TIP3   OH226044   6.239   7.090   2.256
 8700TIP3    H126045   6.262   7.146   2.182
 8700TIP3    H226046   6.169   7.137   2.302
 8701TIP3   OH226047   5.258   5.865   4.118
 8701TIP3    H126048   5.163   5.877   4.124
 8701TIP3    H226049   5.279   5.803   4.188
 8702TIP3   OH226050   6.101   6.542   2.628
 8702TIP3    H126051   6.082   6.487   2.704
 8702TIP3    H226052   6.197   6.546   2.625
 8703TIP3   OH226053   5.004   6.965   3.770
 8703TIP3    H126054   5.053   6.900   3.820
 8703TIP3    H226055   5.020   7.048   3.815
 8704TIP3   OH226056   5.261   6.589   2.462
 8704TIP3    H126057   5.275   6.499   2.435
 8704TIP3    H226058   5.249   6.584   2.557
 8705TIP3   OH226059   5.217   6.602   2.735
 8705TIP3    H126060   5.277   6.572   2.804
 8705TIP3    H226061   5.218   6.697   2.743
 8706TIP3   OH226062   4.952   6.291   2.943
 8706TIP3    H126063   4.887   6.337   2.995
 8706TIP3    H226064   4.969   6.350   2.869
 8707TIP3   OH226065   6.123   5.913   3.811
 8707TIP3    H126066   6.198   5.962   3.845
 8707TIP3    H226067   6.114   5.838   3.871
 8708TIP3   OH226068   6.006   5.667   3.004
 8708TIP3    H126069   5.985   5.686   2.912
 8708TIP3    H226070   6.048   5.747   3.035
 8709TIP3   OH226071   5.490   6.793   2.669
 8709TIP3    H126072   5.403   6.810   2.705
 8709TIP3    H226073   5.522   6.880   2.641
 8710TIP3   OH226074   5.658   5.866   3.095
 8710TIP3    H126075   5.720   5.934   3.070
 8710TIP3    H226076   5.678   5.847   3.187
 8711TIP3   OH226077   5.959   6.162   3.877
 8711TIP3    H126078   5.979   6.209   3.957
 8711TIP3    H226079   6.005   6.078   3.885
 8712TIP3   OH226080   5.821   5.567   3.186
 8712TIP3    H126081   5.799   5.644   3.237
 8712TIP3    H226082   5.889   5.597   3.125
 8713TIP3   OH226083   5.240   6.875   2.747
 8713TIP3    H126084   5.220   6.946   2.686
 8713TIP3    H226085   5.226   6.913   2.834
 8714TIP3   OH226086   5.334   5.585   2.987
 8714TIP3    H126087   5.322   5.674   3.020
 8714TIP3    H226088   5.428   5.569   2.994
 8715TIP3   OH226089   6.578   6.103   3.834
 8715TIP3    H126090   6.487   6.079   3.853
 8715TIP3    H226091   6.574   6.150   3.751
 8716TIP3   OH226092   6.230   6.251   3.253
 8716TIP3    H126093   6.146   6.210   3.235
 8716TIP3    H226094   6.252   6.225   3.342
 8717TIP3   OH226095   4.972   6.470   2.727
 8717TIP3    H126096   5.043   6.533   2.737
 8717TIP3    H226097   5.005   6.407   2.663
 8718TIP3   OH226098   4.881   5.763   2.858
 8718TIP3    H126099   4.893   5.857   2.866
 8718TIP3    H226100   4.806   5.753   2.799
 8719TIP3   OH226101   6.213   7.237   3.189
 8719TIP3    H126102   6.170   7.285   3.119
 8719TIP3    H226103   6.306   7.256   3.179
 8720TIP3   OH226104   5.283   5.486   3.732
 8720TIP3    H126105   5.252   5.449   3.650
 8720TIP3    H226106   5.272   5.416   3.796
 8721TIP3   OH226107   4.807   6.737   3.119
 8721TIP3    H126108   4.759   6.771   3.194
 8721TIP3    H226109   4.765   6.779   3.043
 8722TIP3   OH226110   5.004   7.275   4.189
 8722TIP3    H126111   5.087   7.280   4.237
 8722TIP3    H226112   4.989   7.182   4.177
 8723TIP3   OH226113   5.470   7.189   4.228
 8723TIP3    H126114   5.561   7.163   4.238
 8723TIP3    H226115   5.436   7.134   4.157
 8724TIP3   OH226116   5.455   6.750   2.352
 8724TIP3    H126117   5.379   6.711   2.394
 8724TIP3    H226118   5.525   6.685   2.365
 8725TIP3   OH226119   6.090   7.128   3.979
 8725TIP3    H126120   6.098   7.057   4.043
 8725TIP3    H226121   6.166   7.185   3.996
 8726TIP3   OH226122   5.972   6.847   2.287
 8726TIP3    H126123   5.970   6.782   2.358
 8726TIP3    H226124   6.064   6.853   2.262
 8727TIP3   OH226125   5.109   6.678   4.377
 8727TIP3    H126126   5.131   6.585   4.386
 8727TIP3    H226127   5.023   6.678   4.336
 8728TIP3   OH226128   5.102   6.283   2.578
 8728TIP3    H126129   5.152   6.258   2.656
 8728TIP3    H226130   5.169   6.295   2.510
 8729TIP3   OH226131   5.728   6.756   4.156
 8729TIP3    H126132   5.683   6.777   4.073
 8729TIP3    H226133   5.762   6.667   4.143
 8730TIP3   OH226134   5.634   6.533   2.392
 8730TIP3    H126135   5.628   6.536   2.487
 8730TIP3    H226136   5.632   6.439   2.371
 8731TIP3   OH226137   6.205   6.795   3.769
 8731TIP3    H126138   6.283   6.824   3.721
 8731TIP3    H226139   6.140   6.864   3.754
 8732TIP3   OH226140   5.228   6.426   4.380
 8732TIP3    H126141   5.304   6.390   4.333
 8732TIP3    H226142   5.260   6.440   4.469
 8733TIP3   OH226143   5.278   6.223   2.789
 8733TIP3    H126144   5.254   6.194   2.877
 8733TIP3    H226145   5.322   6.148   2.751
 8734TIP3   OH226146   5.585   6.302   4.041
 8734TIP3    H126147   5.500   6.345   4.049
 8734TIP3    H226148   5.618   6.330   3.955
 8735TIP3   OH226149   5.413   6.035   2.631
 8735TIP3    H126150   5.382   6.038   2.541
 8735TIP3    H226151   5.508   6.044   2.625
 8736TIP3   OH226152   6.085   6.676   4.130
 8736TIP3    H126153   6.157   6.640   4.079
 8736TIP3    H226154   6.082   6.621   4.209
 8737TIP3   OH226155   6.208   6.331   2.312
 8737TIP3    H126156   6.198   6.286   2.228
 8737TIP3    H226157   6.182   6.422   2.293
 8738TIP3   OH226158   5.690   6.073   4.151
 8738TIP3    H126159   5.692   6.000   4.089
 8738TIP3    H226160   5.653   6.146   4.102
 8739TIP3   OH226161   5.699   5.871   3.950
 8739TIP3    H126162   5.724   5.905   3.865
 8739TIP3    H226163   5.608   5.843   3.939
 8740TIP3   OH226164   5.706   6.395   3.816
 8740TIP3    H126165   5.795   6.429   3.806
 8740TIP3    H226166   5.651   6.458   3.770
 8741TIP3   OH226167   6.298   6.351   4.200
 8741TIP3    H126168   6.333   6.264   4.214
 8741TIP3    H226169   6.374   6.405   4.181
 8742TIP3   OH226170   6.337   6.621   3.934
 8742TIP3    H126171   6.283   6.683   3.884
 8742TIP3    H226172   6.426   6.637   3.903
 8743TIP3   OH226173   5.574   6.160   4.394
 8743TIP3    H126174   5.508   6.095   4.416
 8743TIP3    H226175   5.604   6.134   4.306
 8744TIP3   OH226176   5.825   5.634   4.043
 8744TIP3    H126177   5.781   5.714   4.015
 8744TIP3    H226178   5.759   5.566   4.034
 8745TIP3   OH226179   5.946   6.113   4.251
 8745TIP3    H126180   5.937   6.099   4.346
 8745TIP3    H226181   5.860   6.092   4.216
 8746TIP3   OH226182   6.189   6.064   4.118
 8746TIP3    H126183   6.110   6.065   4.173
 8746TIP3    H226184   6.260   6.039   4.178
 8747TIP3   OH226185   6.427   6.035   4.267
 8747TIP3    H126186   6.441   5.940   4.274
 8747TIP3    H226187   6.423   6.065   4.357
 8748TIP3   OH226188   5.416   5.936   4.457
 8748TIP3    H126189   5.417   5.848   4.420
 8748TIP3    H226190   5.454   5.926   4.545
 8749TIP3   OH226191   5.899   5.621   4.310
 8749TIP3    H126192   5.965   5.552   4.308
 8749TIP3    H226193   5.866   5.625   4.220
 8750TIP3   OH226194   5.986   5.838   4.454
 8750TIP3    H126195   5.957   5.764   4.400
 8750TIP3    H226196   5.910   5.897   4.456
 8751TIP3   OH226197   5.248   7.083   2.563
 8751TIP3    H126198   5.330   7.056   2.523
 8751TIP3    H226199   5.202   7.132   2.494
 8752TIP3   OH226200   4.698   6.466   2.740
 8752TIP3    H126201   4.793   6.476   2.740
 8752TIP3    H226202   4.683   6.378   2.704
 8753TIP3   OH226203   4.605   7.050   3.203
 8753TIP3    H126204   4.540   6.996   3.158
 8753TIP3    H226205   4.649   6.990   3.263
 8754TIP3   OH226206   4.748   6.885   3.373
 8754TIP3    H126207   4.738   6.816   3.438
 8754TIP3    H226208   4.798   6.954   3.418
 8755TIP3   OH226209   6.473   7.317   3.177
 8755TIP3    H126210   6.506   7.333   3.265
 8755TIP3    H226211   6.546   7.342   3.120
 8756TIP3   OH226212   6.506   7.320   3.461
 8756TIP3    H126213   6.459   7.237   3.452
 8756TIP3    H226214   6.575   7.302   3.524
 8757TIP3   OH226215   6.545   7.013   4.034
 8757TIP3    H126216   6.477   7.023   4.101
 8757TIP3    H226217   6.593   7.096   4.035
 8758TIP3   OH226218   6.379   6.543   2.638
 8758TIP3    H126219   6.445   6.603   2.602
 8758TIP3    H226220   6.422   6.501   2.712
 8759TIP3   OH226221   6.503   6.395   2.841
 8759TIP3    H126222   6.436   6.357   2.899
 8759TIP3    H226223   6.568   6.433   2.901
 8760TIP3   OH226224   6.551   6.791   3.276
 8760TIP3    H126225   6.608   6.723   3.239
 8760TIP3    H226226   6.560   6.864   3.216
 8761TIP3   OH226227   6.362   7.080   3.467
 8761TIP3    H126228   6.296   7.125   3.519
 8761TIP3    H226229   6.313   7.040   3.395
 8762TIP3   OH226230   6.390   6.294   2.514
 8762TIP3    H126231   6.334   6.303   2.438
 8762TIP3    H226232   6.391   6.382   2.553
 8763TIP3   OH226233   6.268   5.948   2.444
 8763TIP3    H126234   6.238   5.995   2.366
 8763TIP3    H226235   6.255   5.856   2.423
 8764TIP3   OH226236   6.301   6.253   2.981
 8764TIP3    H126237   6.303   6.159   2.961
 8764TIP3    H226238   6.284   6.257   3.075
 8765TIP3   OH226239   4.923   6.321   3.750
 8765TIP3    H126240   4.913   6.284   3.663
 8765TIP3    H226241   5.017   6.315   3.768
 8766TIP3   OH226242   6.599   6.663   3.842
 8766TIP3    H126243   6.659   6.591   3.824
 8766TIP3    H226244   6.623   6.730   3.778
 8767TIP3   OH226245   6.761   6.437   3.821
 8767TIP3    H126246   6.694   6.402   3.881
 8767TIP3    H226247   6.836   6.380   3.833
 8768TIP3   OH226248   6.233   5.678   2.399
 8768TIP3    H126249   6.296   5.655   2.467
 8768TIP3    H226250   6.150   5.641   2.429
 8769TIP3   OH226251   6.298   5.977   2.872
 8769TIP3    H126252   6.338   5.891   2.884
 8769TIP3    H226253   6.341   6.014   2.795
 8770TIP3   OH226254   6.524   6.094   3.388
 8770TIP3    H126255   6.507   6.172   3.335
 8770TIP3    H226256   6.507   6.123   3.478
 8771TIP3   OH226257   6.499   6.263   3.616
 8771TIP3    H126258   6.432   6.305   3.670
 8771TIP3    H226259   6.545   6.336   3.574
 8772TIP3   OH226260   5.152   6.009   4.429
 8772TIP3    H126261   5.247   5.995   4.434
 8772TIP3    H226262   5.114   5.924   4.452
 8773TIP3   OH226263   6.981   5.893   4.152
 8773TIP3    H126264   7.046   5.834   4.115
 8773TIP3    H226265   6.945   5.939   4.076
 8774TIP3   OH226266   6.407   5.726   2.923
 8774TIP3    H126267   6.455   5.708   3.004
 8774TIP3    H226268   6.345   5.653   2.914
 8775TIP3   OH226269   5.117   5.709   3.740
 8775TIP3    H126270   5.170   5.630   3.751
 8775TIP3    H226271   5.181   5.779   3.726
 8776TIP3   OH226272   4.901   5.971   3.805
 8776TIP3    H126273   4.951   5.964   3.724
 8776TIP3    H226274   4.941   6.044   3.852
 8777TIP3   OH226275   6.834   6.007   3.952
 8777TIP3    H126276   6.760   6.052   3.993
 8777TIP3    H226277   6.793   5.939   3.899
 8778TIP3   OH226278   6.468   5.643   2.559
 8778TIP3    H126279   6.511   5.580   2.501
 8778TIP3    H226280   6.522   5.722   2.553
 8779TIP3   OH226281   4.888   5.476   3.308
 8779TIP3    H126282   4.802   5.466   3.349
 8779TIP3    H226283   4.872   5.533   3.232
 8780TIP3   OH226284   6.030   7.204   2.813
 8780TIP3    H126285   6.093   7.191   2.742
 8780TIP3    H226286   6.073   7.267   2.871
 8781TIP3   OH226287   5.111   5.567   4.144
 8781TIP3    H126288   5.056   5.536   4.216
 8781TIP3    H226289   5.048   5.598   4.079
 8782TIP3   OH226290   5.139   6.996   4.198
 8782TIP3    H126291   5.046   6.974   4.191
 8782TIP3    H226292   5.161   6.976   4.289
 8783TIP3   OH226293   5.349   7.039   3.752
 8783TIP3    H126294   5.298   7.114   3.721
 8783TIP3    H226295   5.434   7.049   3.710
 8784TIP3   OH226296   5.754   7.274   3.891
 8784TIP3    H126297   5.791   7.266   3.979
 8784TIP3    H226298   5.818   7.326   3.843
 8785TIP3   OH226299   5.947   7.426   3.763
 8785TIP3    H126300   6.012   7.371   3.719
 8785TIP3    H226301   5.999   7.484   3.819
 8786TIP3   OH226302   6.737   5.739   3.869
 8786TIP3    H126303   6.653   5.705   3.838
 8786TIP3    H226304   6.800   5.670   3.847
 8787TIP3   OH226305   5.012   7.288   3.799
 8787TIP3    H126306   4.920   7.306   3.778
 8787TIP3    H226307   5.034   7.352   3.866
 8788TIP3   OH226308   5.241   7.271   3.649
 8788TIP3    H126309   5.159   7.278   3.697
 8788TIP3    H226310   5.219   7.296   3.559
 8789TIP3   OH226311   5.658   7.289   3.440
 8789TIP3    H126312   5.586   7.302   3.379
 8789TIP3    H226313   5.669   7.374   3.483
 8790TIP3   OH226314   5.923   7.224   3.487
 8790TIP3    H126315   5.832   7.245   3.469
 8790TIP3    H226316   5.973   7.294   3.444
 8791TIP3   OH226317   6.124   7.401   3.393
 8791TIP3    H126318   6.122   7.488   3.354
 8791TIP3    H226319   6.156   7.344   3.323
 8792TIP3   OH226320   4.923   7.061   3.521
 8792TIP3    H126321   4.947   7.035   3.610
 8792TIP3    H226322   4.994   7.029   3.466
 8793TIP3   OH226323   5.125   6.947   3.379
 8793TIP3    H126324   5.136   6.863   3.424
 8793TIP3    H226325   5.212   6.988   3.383
 8794TIP3   OH226326   5.393   7.032   3.401
 8794TIP3    H126327   5.413   6.939   3.387
 8794TIP3    H226328   5.447   7.056   3.477
 8795TIP3   OH226329   5.946   5.673   3.484
 8795TIP3    H126330   5.907   5.603   3.537
 8795TIP3    H226331   6.015   5.629   3.435
 8796TIP3   OH226332   6.450   5.580   3.360
 8796TIP3    H126333   6.486   5.634   3.289
 8796TIP3    H226334   6.357   5.603   3.362
 8797TIP3   OH226335   6.578   5.681   3.136
 8797TIP3    H126336   6.640   5.613   3.110
 8797TIP3    H226337   6.626   5.763   3.127
 8798TIP3   OH226338   5.192   5.383   3.490
 8798TIP3    H126339   5.103   5.350   3.496
 8798TIP3    H226340   5.247   5.305   3.480
 8799TIP3   OH226341   4.997   5.280   3.133
 8799TIP3    H126342   5.029   5.331   3.060
 8799TIP3    H226343   4.966   5.344   3.197
 8800TIP3   OH226344   5.668   5.425   3.380
 8800TIP3    H126345   5.719   5.472   3.314
 8800TIP3    H226346   5.707   5.450   3.463
 8801TIP3   OH226347   6.164   5.561   3.349
 8801TIP3    H126348   6.161   5.523   3.261
 8801TIP3    H226349   6.171   5.485   3.407
 8802TIP3   OH226350   6.226   5.514   2.925
 8802TIP3    H126351   6.145   5.559   2.947
 8802TIP3    H226352   6.215   5.426   2.961
 8803TIP3   OH226353   4.694   6.858   2.898
 8803TIP3    H126354   4.609   6.823   2.871
 8803TIP3    H226355   4.694   6.948   2.868
 8804TIP3   OH226356   5.120   5.418   2.903
 8804TIP3    H126357   5.166   5.355   2.847
 8804TIP3    H226358   5.190   5.473   2.939
 8805TIP3   OH226359   5.610   5.614   2.998
 8805TIP3    H126360   5.666   5.560   3.053
 8805TIP3    H226361   5.625   5.704   3.028
 8806TIP3   OH226362   5.491   7.000   2.470
 8806TIP3    H126363   5.575   7.026   2.431
 8806TIP3    H226364   5.474   6.914   2.433
 8807TIP3   OH226365   6.188   7.143   2.592
 8807TIP3    H126366   6.177   7.049   2.583
 8807TIP3    H226367   6.150   7.180   2.513
 8808TIP3   OH226368   5.423   5.664   4.378
 8808TIP3    H126369   5.388   5.595   4.434
 8808TIP3    H226370   5.515   5.671   4.403
 8809TIP3   OH226371   5.673   5.671   4.497
 8809TIP3    H126372   5.751   5.646   4.448
 8809TIP3    H226373   5.662   5.604   4.564
 8810TIP3   OH226374   4.791   6.853   2.556
 8810TIP3    H126375   4.790   6.857   2.651
 8810TIP3    H226376   4.873   6.807   2.534
 8811TIP3   OH226377   6.490   5.765   4.280
 8811TIP3    H126378   6.504   5.733   4.369
 8811TIP3    H226379   6.576   5.758   4.239
 8812TIP3   OH226380   6.406   7.290   3.785
 8812TIP3    H126381   6.332   7.262   3.732
 8812TIP3    H226382   6.395   7.385   3.793
 8813TIP3   OH226383   7.668   6.678   2.533
 8813TIP3    H126384   7.640   6.765   2.505
 8813TIP3    H226385   7.596   6.620   2.507
 8814TIP3   OH226386   7.659   6.666   2.961
 8814TIP3    H126387   7.695   6.654   3.049
 8814TIP3    H226388   7.624   6.580   2.938
 8815TIP3   OH226389   6.979   6.544   3.322
 8815TIP3    H126390   7.002   6.470   3.378
 8815TIP3    H226391   7.041   6.613   3.346
 8816TIP3   OH226392   7.910   6.966   2.619
 8816TIP3    H126393   7.925   6.885   2.668
 8816TIP3    H226394   7.885   7.030   2.685
 8817TIP3   OH226395   6.960   6.953   2.990
 8817TIP3    H126396   6.947   6.858   2.998
 8817TIP3    H226397   7.054   6.964   2.980
 8818TIP3   OH226398   6.656   6.160   2.782
 8818TIP3    H126399   6.621   6.248   2.794
 8818TIP3    H226400   6.587   6.113   2.734
 8819TIP3   OH226401   6.736   6.476   2.983
 8819TIP3    H126402   6.788   6.397   3.001
 8819TIP3    H226403   6.801   6.542   2.958
 8820TIP3   OH226404   7.567   7.316   2.661
 8820TIP3    H126405   7.631   7.269   2.715
 8820TIP3    H226406   7.536   7.387   2.718
 8821TIP3   OH226407   7.481   6.890   2.966
 8821TIP3    H126408   7.522   6.807   2.945
 8821TIP3    H226409   7.554   6.950   2.982
 8822TIP3   OH226410   8.457   6.299   3.049
 8822TIP3    H126411   8.416   6.385   3.054
 8822TIP3    H226412   8.491   6.293   2.960
 8823TIP3   OH226413   7.884   6.373   3.004
 8823TIP3    H126414   7.930   6.291   3.023
 8823TIP3    H226415   7.854   6.364   2.914
 8824TIP3   OH226416   7.229   6.049   2.978
 8824TIP3    H126417   7.223   6.120   2.914
 8824TIP3    H226418   7.187   5.975   2.935
 8825TIP3   OH226419   7.946   6.138   2.597
 8825TIP3    H126420   8.021   6.134   2.656
 8825TIP3    H226421   7.982   6.174   2.516
 8826TIP3   OH226422   6.883   6.254   3.062
 8826TIP3    H126423   6.964   6.238   3.109
 8826TIP3    H226424   6.893   6.206   2.980
 8827TIP3   OH226425   7.311   6.455   2.868
 8827TIP3    H126426   7.404   6.437   2.885
 8827TIP3    H226427   7.276   6.370   2.840
 8828TIP3   OH226428   7.225   6.048   3.425
 8828TIP3    H126429   7.175   6.098   3.361
 8828TIP3    H226430   7.179   6.063   3.508
 8829TIP3   OH226431   7.571   6.901   2.394
 8829TIP3    H126432   7.532   6.889   2.308
 8829TIP3    H226433   7.534   6.984   2.425
 8830TIP3   OH226434   7.342   6.802   3.191
 8830TIP3    H126435   7.295   6.870   3.238
 8830TIP3    H226436   7.387   6.848   3.120
 8831TIP3   OH226437   8.148   6.165   2.783
 8831TIP3    H126438   8.104   6.147   2.866
 8831TIP3    H226439   8.185   6.253   2.794
 8832TIP3   OH226440   7.107   6.161   3.197
 8832TIP3    H126441   7.159   6.238   3.220
 8832TIP3    H226442   7.158   6.119   3.127
 8833TIP3   OH226443   7.198   7.019   3.312
 8833TIP3    H126444   7.182   7.102   3.267
 8833TIP3    H226445   7.114   6.997   3.352
 8834TIP3   OH226446   6.562   6.716   2.518
 8834TIP3    H126447   6.538   6.732   2.427
 8834TIP3    H226448   6.588   6.802   2.552
 8835TIP3   OH226449   8.305   6.080   3.112
 8835TIP3    H126450   8.212   6.098   3.099
 8835TIP3    H226451   8.349   6.161   3.084
 8836TIP3   OH226452   7.566   5.730   3.117
 8836TIP3    H126453   7.566   5.639   3.146
 8836TIP3    H226454   7.492   5.769   3.162
 8837TIP3   OH226455   7.841   6.966   2.346
 8837TIP3    H126456   7.748   6.951   2.362
 8837TIP3    H226457   7.880   6.975   2.433
 8838TIP3   OH226458   7.494   6.511   2.385
 8838TIP3    H126459   7.417   6.560   2.356
 8838TIP3    H226460   7.551   6.508   2.308
 8839TIP3   OH226461   7.486   6.319   2.080
 8839TIP3    H126462   7.548   6.372   2.130
 8839TIP3    H226463   7.540   6.253   2.037
 8840TIP3   OH226464   8.424   6.782   3.046
 8840TIP3    H126465   8.336   6.818   3.041
 8840TIP3    H226466   8.445   6.755   2.956
 8841TIP3   OH226467   7.861   6.596   2.353
 8841TIP3    H126468   7.811   6.632   2.426
 8841TIP3    H226469   7.944   6.568   2.393
 8842TIP3   OH226470   8.106   6.639   3.279
 8842TIP3    H126471   8.096   6.718   3.331
 8842TIP3    H226472   8.022   6.630   3.232
 8843TIP3   OH226473   7.110   6.610   2.757
 8843TIP3    H126474   7.062   6.547   2.703
 8843TIP3    H226475   7.185   6.560   2.791
 8844TIP3   OH226476   7.225   7.000   2.890
 8844TIP3    H126477   7.212   6.984   2.796
 8844TIP3    H226478   7.312   6.963   2.908
 8845TIP3   OH226479   7.207   6.584   3.092
 8845TIP3    H126480   7.254   6.555   3.014
 8845TIP3    H226481   7.256   6.661   3.122
 8846TIP3   OH226482   7.731   7.202   2.861
 8846TIP3    H126483   7.768   7.267   2.920
 8846TIP3    H226484   7.730   7.121   2.912
 8847TIP3   OH226485   7.346   7.199   3.473
 8847TIP3    H126486   7.275   7.262   3.459
 8847TIP3    H226487   7.311   7.115   3.443
 8848TIP3   OH226488   7.689   6.467   2.193
 8848TIP3    H126489   7.748   6.516   2.250
 8848TIP3    H226490   7.721   6.485   2.105
 8849TIP3   OH226491   7.114   6.709   3.522
 8849TIP3    H126492   7.124   6.793   3.566
 8849TIP3    H226493   7.031   6.674   3.555
 8850TIP3   OH226494   7.468   7.147   2.463
 8850TIP3    H126495   7.510   7.204   2.527
 8850TIP3    H226496   7.383   7.188   2.447
 8851TIP3   OH226497   8.203   5.688   2.226
 8851TIP3    H126498   8.129   5.732   2.269
 8851TIP3    H226499   8.255   5.760   2.190
 8852TIP3   OH226500   6.754   6.829   3.478
 8852TIP3    H126501   6.687   6.805   3.414
 8852TIP3    H226502   6.788   6.745   3.509
 8853TIP3   OH226503   6.642   7.008   3.113
 8853TIP3    H126504   6.732   6.992   3.083
 8853TIP3    H226505   6.650   7.083   3.173
 8854TIP3   OH226506   7.560   7.233   3.290
 8854TIP3    H126507   7.572   7.325   3.312
 8854TIP3    H226508   7.477   7.209   3.330
 8855TIP3   OH226509   7.270   7.451   2.212
 8855TIP3    H126510   7.291   7.387   2.144
 8855TIP3    H226511   7.345   7.448   2.272
 8856TIP3   OH226512   6.772   7.213   2.633
 8856TIP3    H126513   6.816   7.207   2.717
 8856TIP3    H226514   6.726   7.130   2.623
 8857TIP3   OH226515   8.348   6.601   3.467
 8857TIP3    H126516   8.278   6.627   3.407
 8857TIP3    H226517   8.375   6.515   3.436
 8858TIP3   OH226518   6.945   7.025   3.436
 8858TIP3    H126519   6.989   7.028   3.521
 8858TIP3    H226520   6.878   6.958   3.446
 8859TIP3   OH226521   7.338   5.821   3.251
 8859TIP3    H126522   7.244   5.819   3.238
 8859TIP3    H226523   7.355   5.908   3.288
 8860TIP3   OH226524   7.883   5.947   3.455
 8860TIP3    H126525   7.956   5.919   3.509
 8860TIP3    H226526   7.805   5.926   3.507
 8861TIP3   OH226527   8.097   6.370   3.358
 8861TIP3    H126528   8.059   6.375   3.445
 8861TIP3    H226529   8.091   6.459   3.324
 8862TIP3   OH226530   7.789   6.512   1.952
 8862TIP3    H126531   7.762   6.493   1.862
 8862TIP3    H226532   7.856   6.579   1.944
 8863TIP3   OH226533   7.485   5.876   2.236
 8863TIP3    H126534   7.449   5.883   2.325
 8863TIP3    H226535   7.451   5.793   2.203
 8864TIP3   OH226536   7.269   6.373   3.254
 8864TIP3    H126537   7.283   6.411   3.341
 8864TIP3    H226538   7.238   6.446   3.201
 8865TIP3   OH226539   7.180   6.227   2.774
 8865TIP3    H126540   7.089   6.198   2.770
 8865TIP3    H226541   7.219   6.195   2.693
 8866TIP3   OH226542   7.625   6.305   2.519
 8866TIP3    H126543   7.579   6.379   2.480
 8866TIP3    H226544   7.684   6.274   2.451
 8867TIP3   OH226545   7.799   6.326   2.743
 8867TIP3    H126546   7.730   6.346   2.681
 8867TIP3    H226547   7.847   6.253   2.703
 8868TIP3   OH226548   7.069   6.347   3.498
 8868TIP3    H126549   7.152   6.393   3.510
 8868TIP3    H226550   7.074   6.273   3.558
 8869TIP3   OH226551   7.162   5.861   2.198
 8869TIP3    H126552   7.147   5.853   2.292
 8869TIP3    H226553   7.080   5.895   2.164
 8870TIP3   OH226554   6.723   5.907   3.070
 8870TIP3    H126555   6.817   5.923   3.067
 8870TIP3    H226556   6.701   5.878   2.981
 8871TIP3   OH226557   6.626   5.879   2.559
 8871TIP3    H126558   6.673   5.920   2.486
 8871TIP3    H226559   6.560   5.943   2.584
 8872TIP3   OH226560   7.852   6.582   3.178
 8872TIP3    H126561   7.865   6.510   3.116
 8872TIP3    H226562   7.773   6.558   3.226
 8873TIP3   OH226563   7.493   6.067   2.859
 8873TIP3    H126564   7.427   6.056   2.928
 8873TIP3    H226565   7.570   6.021   2.891
 8874TIP3   OH226566   6.925   6.106   2.828
 8874TIP3    H126567   6.834   6.119   2.802
 8874TIP3    H226568   6.942   6.013   2.810
 8875TIP3   OH226569   8.010   6.110   3.013
 8875TIP3    H126570   7.986   6.119   3.106
 8875TIP3    H226571   7.961   6.033   2.983
 8876TIP3   OH226572   7.107   6.948   3.672
 8876TIP3    H126573   7.188   6.966   3.720
 8876TIP3    H226574   7.038   6.953   3.739
 8877TIP3   OH226575   7.571   6.395   2.945
 8877TIP3    H126576   7.637   6.345   2.896
 8877TIP3    H226577   7.571   6.356   3.032
 8878TIP3   OH226578   7.101   5.846   2.824
 8878TIP3    H126579   7.051   5.782   2.874
 8878TIP3    H226580   7.182   5.801   2.799
 8879TIP3   OH226581   7.533   6.312   3.217
 8879TIP3    H126582   7.438   6.324   3.222
 8879TIP3    H226583   7.569   6.389   3.261
 8880TIP3   OH226584   7.277   6.669   2.304
 8880TIP3    H126585   7.194   6.677   2.258
 8880TIP3    H226586   7.260   6.703   2.392
 8881TIP3   OH226587   8.165   6.843   2.969
 8881TIP3    H126588   8.212   6.809   2.893
 8881TIP3    H226589   8.073   6.825   2.951
 8882TIP3   OH226590   7.738   5.974   2.216
 8882TIP3    H126591   7.645   5.953   2.223
 8882TIP3    H226592   7.744   6.067   2.236
 8883TIP3   OH226593   7.684   6.962   3.310
 8883TIP3    H126594   7.731   6.953   3.393
 8883TIP3    H226595   7.640   7.047   3.317
 8884TIP3   OH226596   7.788   6.229   2.302
 8884TIP3    H126597   7.883   6.228   2.315
 8884TIP3    H226598   7.772   6.310   2.254
 8885TIP3   OH226599   6.960   6.664   2.986
 8885TIP3    H126600   7.005   6.659   2.902
 8885TIP3    H226601   7.024   6.633   3.050
 8886TIP3   OH226602   7.432   6.824   2.136
 8886TIP3    H126603   7.384   6.906   2.143
 8886TIP3    H226604   7.387   6.765   2.197
 8887TIP3   OH226605   6.870   6.628   3.641
 8887TIP3    H126606   6.926   6.641   3.717
 8887TIP3    H226607   6.826   6.544   3.658
 8888TIP3   OH226608   7.836   7.235   3.246
 8888TIP3    H126609   7.741   7.224   3.236
 8888TIP3    H226610   7.845   7.285   3.327
 8889TIP3   OH226611   7.905   6.772   2.874
 8889TIP3    H126612   7.816   6.740   2.889
 8889TIP3    H226613   7.949   6.701   2.828
 8890TIP3   OH226614   7.092   7.010   2.633
 8890TIP3    H126615   7.083   7.089   2.580
 8890TIP3    H226616   7.005   6.993   2.667
 8891TIP3   OH226617   7.186   6.769   2.539
 8891TIP3    H126618   7.169   6.859   2.566
 8891TIP3    H226619   7.164   6.716   2.616
 8892TIP3   OH226620   7.385   7.324   3.073
 8892TIP3    H126621   7.422   7.387   3.012
 8892TIP3    H226622   7.461   7.286   3.117
 8893TIP3   OH226623   7.008   7.234   2.489
 8893TIP3    H126624   6.920   7.239   2.526
 8893TIP3    H226625   7.042   7.323   2.493
 8894TIP3   OH226626   7.741   6.982   3.033
 8894TIP3    H126627   7.733   6.967   3.127
 8894TIP3    H226628   7.801   6.913   3.003
 8895TIP3   OH226629   7.655   6.861   1.967
 8895TIP3    H126630   7.735   6.830   2.010
 8895TIP3    H226631   7.587   6.848   2.033
 8896TIP3   OH226632   7.087   6.100   3.661
 8896TIP3    H126633   7.030   6.150   3.719
 8896TIP3    H226634   7.128   6.035   3.718
 8897TIP3   OH226635   7.867   6.770   2.130
 8897TIP3    H126636   7.870   6.703   2.198
 8897TIP3    H226637   7.886   6.852   2.177
 8898TIP3   OH226638   6.794   7.221   3.260
 8898TIP3    H126639   6.850   7.161   3.309
 8898TIP3    H226640   6.812   7.307   3.299
 8899TIP3   OH226641   7.077   6.852   1.965
 8899TIP3    H126642   7.101   6.764   1.936
 8899TIP3    H226643   7.055   6.841   2.058
 8900TIP3   OH226644   7.021   6.843   2.243
 8900TIP3    H126645   7.029   6.821   2.336
 8900TIP3    H226646   7.022   6.939   2.241
 8901TIP3   OH226647   6.831   6.584   2.473
 8901TIP3    H126648   6.741   6.612   2.488
 8901TIP3    H226649   6.824   6.510   2.414
 8902TIP3   OH226650   7.952   6.143   3.271
 8902TIP3    H126651   7.994   6.216   3.315
 8902TIP3    H226652   7.925   6.084   3.341
 8903TIP3   OH226653   7.796   5.927   2.489
 8903TIP3    H126654   7.782   5.948   2.397
 8903TIP3    H226655   7.840   6.004   2.525
 8904TIP3   OH226656   7.290   7.053   2.165
 8904TIP3    H126657   7.201   7.068   2.198
 8904TIP3    H226658   7.311   7.133   2.117
 8905TIP3   OH226659   7.419   6.137   2.606
 8905TIP3    H126660   7.486   6.197   2.573
 8905TIP3    H226661   7.447   6.118   2.696
 8906TIP3   OH226662   7.620   5.815   2.667
 8906TIP3    H126663   7.646   5.858   2.749
 8906TIP3    H226664   7.678   5.852   2.601
 8907TIP3   OH226665   7.030   7.117   2.241
 8907TIP3    H126666   7.007   7.185   2.178
 8907TIP3    H226667   7.021   7.159   2.326
 8908TIP3   OH226668   7.128   5.830   2.470
 8908TIP3    H126669   7.096   5.864   2.554
 8908TIP3    H226670   7.223   5.832   2.478
 8909TIP3   OH226671   8.374   6.353   3.346
 8909TIP3    H126672   8.279   6.340   3.344
 8909TIP3    H226673   8.402   6.333   3.256
 8910TIP3   OH226674   7.996   6.541   2.752
 8910TIP3    H126675   7.931   6.472   2.746
 8910TIP3    H226676   8.073   6.498   2.790
 8911TIP3   OH226677   6.744   6.772   2.189
 8911TIP3    H126678   6.822   6.818   2.221
 8911TIP3    H226679   6.779   6.701   2.135
 8912TIP3   OH226680   6.705   6.051   2.352
 8912TIP3    H126681   6.761   6.129   2.347
 8912TIP3    H226682   6.634   6.069   2.291
 8913TIP3   OH226683   7.054   5.753   3.233
 8913TIP3    H126684   7.037   5.719   3.145
 8913TIP3    H226685   7.060   5.676   3.289
 8914TIP3   OH226686   6.602   6.988   2.610
 8914TIP3    H126687   6.560   7.024   2.689
 8914TIP3    H226688   6.558   7.032   2.537
 8915TIP3   OH226689   6.792   7.527   3.663
 8915TIP3    H126690   6.873   7.531   3.713
 8915TIP3    H226691   6.773   7.433   3.654
 8916TIP3   OH226692   7.237   7.050   1.851
 8916TIP3    H126693   7.185   6.983   1.895
 8916TIP3    H226694   7.322   7.009   1.837
 8917TIP3   OH226695   7.905   7.377   3.478
 8917TIP3    H126696   7.941   7.309   3.534
 8917TIP3    H226697   7.976   7.399   3.418
 8918TIP3   OH226698   6.905   6.921   3.868
 8918TIP3    H126699   6.929   6.829   3.872
 8918TIP3    H226700   6.819   6.923   3.826
 8919TIP3   OH226701   6.857   6.562   2.058
 8919TIP3    H126702   6.864   6.494   2.125
 8919TIP3    H226703   6.943   6.562   2.015
 8920TIP3   OH226704   7.352   6.727   1.880
 8920TIP3    H126705   7.378   6.748   1.969
 8920TIP3    H226706   7.376   6.635   1.868
 8921TIP3   OH226707   8.011   7.020   3.240
 8921TIP3    H126708   8.036   7.008   3.148
 8921TIP3    H226709   7.950   7.093   3.239
 8922TIP3   OH226710   7.045   6.662   3.855
 8922TIP3    H126711   7.117   6.602   3.838
 8922TIP3    H226712   7.058   6.689   3.946
 8923TIP3   OH226713   7.302   6.497   3.496
 8923TIP3    H126714   7.262   6.583   3.511
 8923TIP3    H226715   7.378   6.495   3.555
 8924TIP3   OH226716   7.215   6.280   2.122
 8924TIP3    H126717   7.196   6.291   2.029
 8924TIP3    H226718   7.309   6.293   2.130
 8925TIP3   OH226719   7.864   6.930   3.605
 8925TIP3    H126720   7.943   6.903   3.559
 8925TIP3    H226721   7.860   6.873   3.682
 8926TIP3   OH226722   7.495   6.052   3.362
 8926TIP3    H126723   7.524   6.134   3.321
 8926TIP3    H226724   7.409   6.074   3.400
 8927TIP3   OH226725   7.566   6.623   3.254
 8927TIP3    H126726   7.607   6.688   3.311
 8927TIP3    H226727   7.479   6.659   3.235
 8928TIP3   OH226728   8.120   6.611   3.712
 8928TIP3    H126729   8.080   6.533   3.673
 8928TIP3    H226730   8.193   6.632   3.653
 8929TIP3   OH226731   8.111   6.878   3.448
 8929TIP3    H126732   8.062   6.932   3.385
 8929TIP3    H226733   8.202   6.883   3.418
 8930TIP3   OH226734   7.268   6.480   3.884
 8930TIP3    H126735   7.264   6.385   3.891
 8930TIP3    H226736   7.341   6.497   3.826
 8931TIP3   OH226737   7.620   5.869   3.529
 8931TIP3    H126738   7.584   5.938   3.474
 8931TIP3    H226739   7.557   5.798   3.523
 8932TIP3   OH226740   7.990   6.387   3.608
 8932TIP3    H126741   7.906   6.369   3.648
 8932TIP3    H226742   8.052   6.333   3.658
 8933TIP3   OH226743   8.196   6.276   3.746
 8933TIP3    H126744   8.200   6.181   3.759
 8933TIP3    H226745   8.189   6.311   3.835
 8934TIP3   OH226746   7.222   6.212   3.952
 8934TIP3    H126747   7.276   6.155   3.897
 8934TIP3    H226748   7.252   6.196   4.041
 8935TIP3   OH226749   7.691   5.872   3.798
 8935TIP3    H126750   7.763   5.809   3.798
 8935TIP3    H226751   7.661   5.875   3.707
 8936TIP3   OH226752   7.764   6.099   3.939
 8936TIP3    H126753   7.745   6.023   3.885
 8936TIP3    H226754   7.687   6.155   3.931
 8937TIP3   OH226755   7.019   7.328   2.067
 8937TIP3    H126756   7.115   7.323   2.062
 8937TIP3    H226757   6.993   7.378   1.990
 8938TIP3   OH226758   6.486   6.713   2.235
 8938TIP3    H126759   6.578   6.736   2.224
 8938TIP3    H226760   6.479   6.624   2.202
 8939TIP3   OH226761   6.396   7.299   2.691
 8939TIP3    H126762   6.335   7.243   2.644
 8939TIP3    H226763   6.442   7.240   2.751
 8940TIP3   OH226764   6.542   7.136   2.864
 8940TIP3    H126765   6.536   7.069   2.932
 8940TIP3    H226766   6.592   7.208   2.905
 8941TIP3   OH226767   8.031   6.234   1.921
 8941TIP3    H126768   8.001   6.235   1.830
 8941TIP3    H226769   8.041   6.141   1.942
 8942TIP3   OH226770   8.086   6.507   2.486
 8942TIP3    H126771   8.165   6.455   2.499
 8942TIP3    H226772   8.071   6.549   2.571
 8943TIP3   OH226773   6.725   6.581   3.235
 8943TIP3    H126774   6.721   6.551   3.145
 8943TIP3    H226775   6.818   6.579   3.258
 8944TIP3   OH226776   8.357   6.898   3.330
 8944TIP3    H126777   8.417   6.823   3.323
 8944TIP3    H226778   8.352   6.933   3.241
 8945TIP3   OH226779   8.017   5.960   1.931
 8945TIP3    H126780   8.080   5.892   1.957
 8945TIP3    H226781   7.932   5.916   1.936
 8946TIP3   OH226782   8.059   6.207   2.352
 8946TIP3    H126783   8.110   6.127   2.362
 8946TIP3    H226784   8.116   6.267   2.303
 8947TIP3   OH226785   8.237   6.419   2.839
 8947TIP3    H126786   8.277   6.490   2.789
 8947TIP3    H226787   8.248   6.444   2.930
 8948TIP3   OH226788   8.306   6.527   3.089
 8948TIP3    H126789   8.236   6.556   3.146
 8948TIP3    H226790   8.352   6.607   3.064
 8949TIP3   OH226791   6.957   6.240   3.864
 8949TIP3    H126792   7.042   6.245   3.907
 8949TIP3    H226793   6.915   6.163   3.902
 8950TIP3   OH226794   8.187   5.975   2.411
 8950TIP3    H126795   8.244   5.957   2.486
 8950TIP3    H226796   8.126   5.901   2.410
 8951TIP3   OH226797   6.904   5.987   3.285
 8951TIP3    H126798   6.950   5.903   3.282
 8951TIP3    H226799   6.972   6.052   3.265
 8952TIP3   OH226800   6.740   6.241   3.299
 8952TIP3    H126801   6.786   6.278   3.224
 8952TIP3    H226802   6.725   6.317   3.356
 8953TIP3   OH226803   6.667   5.786   2.818
 8953TIP3    H126804   6.579   5.752   2.836
 8953TIP3    H226805   6.661   5.821   2.729
 8954TIP3   OH226806   6.928   7.232   3.730
 8954TIP3    H126807   6.835   7.225   3.707
 8954TIP3    H226808   6.930   7.218   3.825
 8955TIP3   OH226809   7.161   7.278   3.223
 8955TIP3    H126810   7.104   7.352   3.205
 8955TIP3    H226811   7.240   7.295   3.172
 8956TIP3   OH226812   7.573   7.496   3.366
 8956TIP3    H126813   7.500   7.522   3.422
 8956TIP3    H226814   7.578   7.565   3.300
 8957TIP3   OH226815   8.440   6.009   3.423
 8957TIP3    H126816   8.406   6.099   3.415
 8957TIP3    H226817   8.499   5.999   3.349
 8958TIP3   OH226818   6.799   7.529   3.286
 8958TIP3    H126819   6.710   7.556   3.265
 8958TIP3    H226820   6.829   7.593   3.351
 8959TIP3   OH226821   7.031   7.512   3.139
 8959TIP3    H126822   6.949   7.516   3.188
 8959TIP3    H226823   7.008   7.540   3.051
 8960TIP3   OH226824   7.462   7.515   2.891
 8960TIP3    H126825   7.381   7.545   2.850
 8960TIP3    H226826   7.483   7.584   2.954
 8961TIP3   OH226827   6.713   7.317   3.010
 8961TIP3    H126828   6.741   7.294   3.099
 8961TIP3    H226829   6.784   7.284   2.954
 8962TIP3   OH226830   6.913   7.196   2.869
 8962TIP3    H126831   6.923   7.112   2.914
 8962TIP3    H226832   6.999   7.237   2.873
 8963TIP3   OH226833   7.178   7.275   2.891
 8963TIP3    H126834   7.197   7.182   2.878
 8963TIP3    H226835   7.240   7.303   2.959
 8964TIP3   OH226836   7.701   5.893   2.922
 8964TIP3    H126837   7.676   5.841   2.998
 8964TIP3    H226838   7.794   5.875   2.909
 8965TIP3   OH226839   8.246   5.858   2.874
 8965TIP3    H126840   8.262   5.912   2.797
 8965TIP3    H226841   8.153   5.869   2.892
 8966TIP3   OH226842   8.349   5.935   2.629
 8966TIP3    H126843   8.418   5.873   2.652
 8966TIP3    H226844   8.393   6.020   2.625
 8967TIP3   OH226845   6.989   5.645   2.982
 8967TIP3    H126846   6.900   5.609   2.988
 8967TIP3    H226847   7.045   5.567   2.975
 8968TIP3   OH226848   6.805   5.549   2.625
 8968TIP3    H126849   6.833   5.589   2.543
 8968TIP3    H226850   6.773   5.623   2.678
 8969TIP3   OH226851   7.439   5.697   2.859
 8969TIP3    H126852   7.495   5.737   2.792
 8969TIP3    H226853   7.484   5.715   2.942
 8970TIP3   OH226854   7.964   5.826   2.865
 8970TIP3    H126855   7.986   5.795   2.777
 8970TIP3    H226856   7.965   5.748   2.919
 8971TIP3   OH226857   8.010   5.765   2.415
 8971TIP3    H126858   7.928   5.808   2.439
 8971TIP3    H226859   8.005   5.678   2.455
 8972TIP3   OH226860   6.478   7.114   2.401
 8972TIP3    H126861   6.397   7.083   2.361
 8972TIP3    H226862   6.489   7.204   2.370
 8973TIP3   OH226863   6.915   5.665   2.385
 8973TIP3    H126864   6.955   5.601   2.326
 8973TIP3    H226865   6.988   5.719   2.414
 8974TIP3   OH226866   7.397   5.885   2.502
 8974TIP3    H126867   7.464   5.840   2.554
 8974TIP3    H226868   7.402   5.976   2.530
 8975TIP3   OH226869   7.289   7.281   1.991
 8975TIP3    H126870   7.315   7.348   1.928
 8975TIP3    H226871   7.265   7.205   1.938
 8976TIP3   OH226872   7.210   5.907   3.835
 8976TIP3    H126873   7.173   5.852   3.904
 8976TIP3    H226874   7.300   5.924   3.864
 8977TIP3   OH226875   7.454   5.925   3.964
 8977TIP3    H126876   7.537   5.910   3.919
 8977TIP3    H226877   7.453   5.858   4.033
 8978TIP3   OH226878   6.595   7.112   2.052
 8978TIP3    H126879   6.599   7.130   2.146
 8978TIP3    H226880   6.680   7.073   2.032
 8979TIP3   OH226881   8.245   6.012   3.789
 8979TIP3    H126882   8.254   5.995   3.883
 8979TIP3    H226883   8.334   6.001   3.754
 8980TIP3   OH226884   0.992   7.000   4.645
 8980TIP3    H126885   1.000   7.092   4.670
 8980TIP3    H226886   1.020   6.997   4.554
 8981TIP3   OH226887   0.373   6.893   4.255
 8981TIP3    H126888   0.425   6.919   4.331
 8981TIP3    H226889   0.418   6.934   4.181
 8982TIP3   OH226890   1.047   7.216   4.831
 8982TIP3    H126891   0.961   7.250   4.808
 8982TIP3    H226892   1.049   7.217   4.927
 8983TIP3   OH226893   0.539   6.963   4.466
 8983TIP3    H126894   0.549   6.875   4.502
 8983TIP3    H226895   0.616   7.010   4.496
 8984TIP3   OH226896   0.772   6.933   4.812
 8984TIP3    H126897   0.696   6.958   4.760
 8984TIP3    H226898   0.846   6.948   4.754
 8985TIP3   OH226899   0.735   7.971   4.712
 8985TIP3    H126900   0.706   7.880   4.705
 8985TIP3    H226901   0.684   8.008   4.784
 8986TIP3   OH226902   0.866   7.534   4.648
 8986TIP3    H126903   0.793   7.593   4.664
 8986TIP3    H226904   0.901   7.562   4.563
 8987TIP3   OH226905   0.706   6.480   3.913
 8987TIP3    H126906   0.619   6.442   3.910
 8987TIP3    H226907   0.696   6.565   3.870
 8988TIP3   OH226908   0.814   7.358   5.113
 8988TIP3    H126909   0.731   7.383   5.153
 8988TIP3    H226910   0.807   7.263   5.100
 8989TIP3   OH226911   0.639   7.699   4.646
 8989TIP3    H126912   0.681   7.740   4.570
 8989TIP3    H226913   0.563   7.654   4.609
 8990TIP3   OH226914   0.689   7.094   3.811
 8990TIP3    H126915   0.635   7.051   3.745
 8990TIP3    H226916   0.693   7.186   3.784
 8991TIP3   OH226917   0.922   7.860   4.898
 8991TIP3    H126918   0.873   7.940   4.882
 8991TIP3    H226919   0.951   7.832   4.810
 8992TIP3   OH226920   0.783   7.092   5.050
 8992TIP3    H126921   0.735   7.037   5.112
 8992TIP3    H226922   0.781   7.042   4.968
 8993TIP3   OH226923   0.489   7.259   4.445
 8993TIP3    H126924   0.430   7.184   4.447
 8993TIP3    H226925   0.569   7.228   4.488
 8994TIP3   OH226926   0.511   7.341   3.492
 8994TIP3    H126927   0.462   7.300   3.420
 8994TIP3    H226928   0.499   7.435   3.478
 8995TIP3   OH226929   0.702   7.064   5.461
 8995TIP3    H126930   0.706   6.969   5.455
 8995TIP3    H226931   0.643   7.082   5.534
 8996TIP3   OH226932   0.581   7.562   3.844
 8996TIP3    H126933   0.655   7.610   3.806
 8996TIP3    H226934   0.620   7.514   3.917
 8997TIP3   OH226935   0.739   7.421   4.019
 8997TIP3    H126936   0.683   7.373   4.081
 8997TIP3    H226937   0.806   7.461   4.075
 8998TIP3   OH226938   0.803   7.801   4.459
 8998TIP3    H126939   0.837   7.728   4.407
 8998TIP3    H226940   0.784   7.869   4.394
 8999TIP3   OH226941   0.690   7.340   3.692
 8999TIP3    H126942   0.622   7.333   3.625
 8999TIP3    H226943   0.662   7.413   3.747
 9000TIP3   OH226944   0.557   6.997   3.592
 9000TIP3    H126945   0.497   7.043   3.534
 9000TIP3    H226946   0.536   6.905   3.580
 9001TIP3   OH226947   0.584   7.273   4.184
 9001TIP3    H126948   0.569   7.184   4.154
 9001TIP3    H226949   0.543   7.276   4.270
 9002TIP3   OH226950   0.813   7.667   5.053
 9002TIP3    H126951   0.877   7.598   5.035
 9002TIP3    H226952   0.834   7.736   4.990
 9003TIP3   OH226953   1.032   7.491   5.032
 9003TIP3    H126954   0.958   7.439   5.064
 9003TIP3    H226955   1.109   7.437   5.050
 9004TIP3   OH226956   0.509   6.725   3.576
 9004TIP3    H126957   0.578   6.712   3.641
 9004TIP3    H226958   0.429   6.693   3.618
 9005TIP3   OH226959   0.566   7.017   4.066
 9005TIP3    H126960   0.606   6.931   4.077
 9005TIP3    H226961   0.597   7.047   3.980
 9006TIP3   OH226962   0.720   7.154   4.570
 9006TIP3    H126963   0.797   7.174   4.517
 9006TIP3    H226964   0.734   7.202   4.652
 9007TIP3   OH226965   0.793   7.313   4.786
 9007TIP3    H126966   0.745   7.347   4.861
 9007TIP3    H226967   0.818   7.391   4.736
 9008TIP3   OH226968   1.227   6.944   5.319
 9008TIP3    H126969   1.290   6.876   5.294
 9008TIP3    H226970   1.200   6.983   5.236
 9009TIP3   OH226971   0.670   6.760   4.091
 9009TIP3    H126972   0.708   6.742   4.177
 9009TIP3    H226973   0.594   6.702   4.086
 9010TIP3   OH226974   1.079   7.074   5.121
 9010TIP3    H126975   1.014   7.103   5.186
 9010TIP3    H226976   1.037   6.999   5.078
 9011TIP3   OH226977   0.731   6.689   3.732
 9011TIP3    H126978   0.778   6.625   3.678
 9011TIP3    H226979   0.792   6.763   3.738
 9012TIP3   OH226980   1.002   6.787   5.040
 9012TIP3    H126981   0.915   6.760   5.012
 9012TIP3    H226982   1.055   6.707   5.035
 9013TIP3   OH226983   0.736   6.601   4.534
 9013TIP3    H126984   0.774   6.652   4.463
 9013TIP3    H226985   0.646   6.633   4.542
 9014TIP3   OH226986   0.830   6.721   4.314
 9014TIP3    H126987   0.899   6.663   4.281
 9014TIP3    H226988   0.864   6.809   4.297
 9015TIP3   OH226989   0.476   6.679   4.540
 9015TIP3    H126990   0.414   6.671   4.468
 9015TIP3    H226991   0.459   6.603   4.595
 9016TIP3   OH226992   0.456   6.579   4.083
 9016TIP3    H126993   0.424   6.558   3.995
 9016TIP3    H226994   0.454   6.495   4.129
 9017TIP3   OH226995   0.736   6.792   5.453
 9017TIP3    H126996   0.749   6.766   5.544
 9017TIP3    H226997   0.823   6.787   5.414
 9018TIP3   OH226998   1.944   7.617   3.787
 9018TIP3    H126999   1.950   7.709   3.763
 9018TIP3    H227000   1.883   7.580   3.723
 9019TIP3   OH227001   1.925   7.708   4.119
 9019TIP3    H127002   1.971   7.686   4.200
 9019TIP3    H227003   1.888   7.625   4.089
 9020TIP3   OH227004   1.234   7.630   4.478
 9020TIP3    H127005   1.296   7.562   4.504
 9020TIP3    H227006   1.288   7.706   4.458
 9021TIP3   OH227007   2.204   7.994   3.825
 9021TIP3    H127008   2.180   7.934   3.895
 9021TIP3    H227009   2.232   8.074   3.871
 9022TIP3   OH227010   1.356   7.891   4.305
 9022TIP3    H127011   1.261   7.892   4.318
 9022TIP3    H227012   1.367   7.890   4.210
 9023TIP3   OH227013   0.913   7.211   3.943
 9023TIP3    H127014   0.868   7.292   3.965
 9023TIP3    H227015   0.844   7.151   3.914
 9024TIP3   OH227016   0.968   7.502   4.151
 9024TIP3    H127017   1.029   7.431   4.172
 9024TIP3    H227018   1.019   7.561   4.095
 9025TIP3   OH227019   1.751   7.929   4.195
 9025TIP3    H127020   1.775   7.856   4.138
 9025TIP3    H227021   1.834   7.963   4.227
 9026TIP3   OH227022   2.768   7.258   4.142
 9026TIP3    H127023   2.789   7.342   4.182
 9026TIP3    H227024   2.795   7.267   4.050
 9027TIP3   OH227025   2.158   7.425   4.174
 9027TIP3    H127026   2.192   7.339   4.199
 9027TIP3    H227027   2.122   7.412   4.086
 9028TIP3   OH227028   1.501   7.087   4.129
 9028TIP3    H127029   1.480   7.157   4.068
 9028TIP3    H227030   1.450   7.012   4.099
 9029TIP3   OH227031   2.193   7.189   3.758
 9029TIP3    H127032   2.252   7.183   3.833
 9029TIP3    H227033   2.248   7.219   3.686
 9030TIP3   OH227034   1.129   7.297   4.255
 9030TIP3    H127035   1.213   7.277   4.296
 9030TIP3    H227036   1.129   7.245   4.174
 9031TIP3   OH227037   1.567   7.481   4.059
 9031TIP3    H127038   1.661   7.464   4.067
 9031TIP3    H227039   1.530   7.399   4.028
 9032TIP3   OH227040   2.834   7.478   4.309
 9032TIP3    H127041   2.742   7.504   4.310
 9032TIP3    H227042   2.868   7.507   4.393
 9033TIP3   OH227043   1.475   7.076   4.582
 9033TIP3    H127044   1.425   7.117   4.512
 9033TIP3    H227045   1.411   7.058   4.650
 9034TIP3   OH227046   1.939   7.822   3.582
 9034TIP3    H127047   1.875   7.827   3.511
 9034TIP3    H227048   1.941   7.910   3.619
 9035TIP3   OH227049   1.603   7.835   4.400
 9035TIP3    H127050   1.513   7.861   4.382
 9035TIP3    H227051   1.653   7.876   4.329
 9036TIP3   OH227052   2.357   7.208   3.976
 9036TIP3    H127053   2.319   7.182   4.061
 9036TIP3    H227054   2.417   7.279   3.998
 9037TIP3   OH227055   1.373   7.194   4.352
 9037TIP3    H127056   1.429   7.265   4.383
 9037TIP3    H227057   1.422   7.156   4.279
 9038TIP3   OH227058   4.312   0.110   4.410
 9038TIP3    H127059   4.250   0.039   4.395
 9038TIP3    H227060   4.262   0.175   4.460
 9039TIP3   OH227061   0.823   7.635   3.723
 9039TIP3    H127062   0.774   7.638   3.641
 9039TIP3    H227063   0.858   7.723   3.733
 9040TIP3   OH227064   2.566   7.154   4.312
 9040TIP3    H127065   2.480   7.175   4.275
 9040TIP3    H227066   2.628   7.179   4.243
 9041TIP3   OH227067   1.829   6.778   4.302
 9041TIP3    H127068   1.823   6.686   4.328
 9041TIP3    H227069   1.753   6.819   4.342
 9042TIP3   OH227070   2.245   7.952   3.542
 9042TIP3    H127071   2.182   7.982   3.477
 9042TIP3    H227072   2.201   7.968   3.626
 9043TIP3   OH227073   5.375   0.146   4.213
 9043TIP3    H127074   5.335   0.067   4.177
 9043TIP3    H227075   5.411   0.192   4.138
 9044TIP3   OH227076   1.790   7.529   3.575
 9044TIP3    H127077   1.710   7.579   3.562
 9044TIP3    H227078   1.831   7.528   3.488
 9045TIP3   OH227079   1.724   7.346   3.257
 9045TIP3    H127080   1.790   7.396   3.305
 9045TIP3    H227081   1.774   7.274   3.217
 9046TIP3   OH227082   2.668   7.803   4.153
 9046TIP3    H127083   2.581   7.843   4.153
 9046TIP3    H227084   2.697   7.808   4.062
 9047TIP3   OH227085   2.118   7.610   3.520
 9047TIP3    H127086   2.070   7.673   3.573
 9047TIP3    H227087   2.199   7.594   3.569
 9048TIP3   OH227088   2.347   7.662   4.434
 9048TIP3    H127089   2.349   7.737   4.493
 9048TIP3    H227090   2.262   7.668   4.390
 9049TIP3   OH227091   1.355   7.595   3.915
 9049TIP3    H127092   1.311   7.538   3.852
 9049TIP3    H227093   1.424   7.540   3.953
 9050TIP3   OH227094   1.435   7.921   4.047
 9050TIP3    H127095   1.469   8.008   4.068
 9050TIP3    H227096   1.505   7.879   3.998
 9051TIP3   OH227097   1.481   7.597   4.290
 9051TIP3    H127098   1.516   7.567   4.207
 9051TIP3    H227099   1.529   7.678   4.308
 9052TIP3   OH227100   4.487   0.042   4.641
 9052TIP3    H127101   4.547   0.115   4.625
 9052TIP3    H227102   4.470   0.005   4.555
 9053TIP3   OH227103   1.945   7.488   3.351
 9053TIP3    H127104   2.010   7.539   3.399
 9053TIP3    H227105   1.978   7.487   3.261
 9054TIP3   OH227106   1.369   7.712   4.753
 9054TIP3    H127107   1.372   7.786   4.813
 9054TIP3    H227108   1.279   7.678   4.760
 9055TIP3   OH227109   2.462   6.740   3.401
 9055TIP3    H127110   2.385   6.758   3.454
 9055TIP3    H227111   2.472   6.817   3.345
 9056TIP3   OH227112   1.225   7.446   3.719
 9056TIP3    H127113   1.157   7.498   3.677
 9056TIP3    H227114   1.183   7.364   3.742
 9057TIP3   OH227115   1.000   7.793   4.650
 9057TIP3    H127116   0.933   7.809   4.584
 9057TIP3    H227117   1.077   7.767   4.600
 9058TIP3   OH227118   2.598   7.625   4.622
 9058TIP3    H127119   2.512   7.631   4.579
 9058TIP3    H227120   2.618   7.531   4.621
 9059TIP3   OH227121   1.197   7.952   4.538
 9059TIP3    H127122   1.256   7.994   4.601
 9059TIP3    H227123   1.110   7.966   4.573
 9060TIP3   OH227124   1.593   6.870   4.426
 9060TIP3    H127125   1.509   6.836   4.396
 9060TIP3    H227126   1.570   6.950   4.474
 9061TIP3   OH227127   2.131   6.991   4.630
 9061TIP3    H127128   2.202   6.964   4.689
 9061TIP3    H227129   2.051   6.969   4.678
 9062TIP3   OH227130   2.361   7.406   4.531
 9062TIP3    H127131   2.322   7.404   4.618
 9062TIP3    H227132   2.340   7.493   4.497
 9063TIP3   OH227133   2.021   7.462   3.091
 9063TIP3    H127134   1.992   7.429   3.006
 9063TIP3    H227135   2.042   7.554   3.076
 9064TIP3   OH227136   1.736   6.919   3.398
 9064TIP3    H127137   1.702   6.923   3.487
 9064TIP3    H227138   1.701   6.837   3.363
 9065TIP3   OH227139   1.527   7.394   4.462
 9065TIP3    H127140   1.541   7.436   4.547
 9065TIP3    H227141   1.508   7.466   4.403
 9066TIP3   OH227142   1.407   7.281   3.960
 9066TIP3    H127143   1.318   7.257   3.987
 9066TIP3    H227144   1.415   7.245   3.871
 9067TIP3   OH227145   1.903   7.310   3.687
 9067TIP3    H127146   1.861   7.388   3.650
 9067TIP3    H227147   1.969   7.285   3.623
 9068TIP3   OH227148   2.106   7.611   4.749
 9068TIP3    H127149   2.077   7.548   4.814
 9068TIP3    H227150   2.196   7.633   4.774
 9069TIP3   OH227151   2.061   7.391   3.922
 9069TIP3    H127152   2.009   7.451   3.869
 9069TIP3    H227153   2.076   7.315   3.865
 9070TIP3   OH227154   1.352   7.414   4.775
 9070TIP3    H127155   1.411   7.483   4.744
 9070TIP3    H227156   1.265   7.452   4.768
 9071TIP3   OH227157   1.401   6.900   3.374
 9071TIP3    H127158   1.391   6.898   3.469
 9071TIP3    H227159   1.321   6.942   3.342
 9072TIP3   OH227160   0.955   6.947   4.240
 9072TIP3    H127161   1.033   6.978   4.286
 9072TIP3    H227162   0.986   6.920   4.154
 9073TIP3   OH227163   0.891   6.915   3.752
 9073TIP3    H127164   0.931   6.950   3.671
 9073TIP3    H227165   0.824   6.978   3.775
 9074TIP3   OH227166   2.083   7.627   4.334
 9074TIP3    H127167   2.116   7.561   4.273
 9074TIP3    H227168   2.050   7.576   4.408
 9075TIP3   OH227169   1.770   7.074   4.018
 9075TIP3    H127170   1.693   7.072   4.076
 9075TIP3    H227171   1.844   7.062   4.078
 9076TIP3   OH227172   1.170   7.156   4.023
 9076TIP3    H127173   1.082   7.163   3.987
 9076TIP3    H227174   1.197   7.066   4.005
 9077TIP3   OH227175   1.416   7.155   3.718
 9077TIP3    H127176   1.511   7.165   3.706
 9077TIP3    H227177   1.379   7.175   3.632
 9078TIP3   OH227178   2.225   7.160   4.223
 9078TIP3    H127179   2.203   7.176   4.314
 9078TIP3    H227180   2.159   7.098   4.192
 9079TIP3   OH227181   1.292   7.186   3.475
 9079TIP3    H127182   1.229   7.136   3.424
 9079TIP3    H227183   1.349   7.227   3.410
 9080TIP3   OH227184   1.371   7.942   4.918
 9080TIP3    H127185   1.443   7.943   4.981
 9080TIP3    H227186   1.292   7.936   4.971
 9081TIP3   OH227187   1.832   7.431   4.121
 9081TIP3    H127188   1.898   7.383   4.072
 9081TIP3    H227189   1.830   7.389   4.207
 9082TIP3   OH227190   1.318   6.909   4.008
 9082TIP3    H127191   1.288   6.834   4.060
 9082TIP3    H227192   1.342   6.871   3.924
 9083TIP3   OH227193   1.794   7.340   4.388
 9083TIP3    H127194   1.707   7.367   4.419
 9083TIP3    H227195   1.855   7.388   4.445
 9084TIP3   OH227196   1.560   7.668   3.548
 9084TIP3    H127197   1.486   7.610   3.531
 9084TIP3    H227198   1.543   7.703   3.635
 9085TIP3   OH227199   2.421   7.920   4.111
 9085TIP3    H127200   2.444   7.962   4.028
 9085TIP3    H227201   2.337   7.878   4.093
 9086TIP3   OH227202   1.994   7.008   3.394
 9086TIP3    H127203   1.899   6.992   3.395
 9086TIP3    H227204   2.002   7.102   3.411
 9087TIP3   OH227205   1.966   7.961   4.521
 9087TIP3    H127206   1.998   7.953   4.611
 9087TIP3    H227207   1.894   8.023   4.527
 9088TIP3   OH227208   2.068   7.263   3.468
 9088TIP3    H127209   2.162   7.273   3.483
 9088TIP3    H227210   2.042   7.344   3.424
 9089TIP3   OH227211   1.231   7.637   4.157
 9089TIP3    H127212   1.264   7.634   4.067
 9089TIP3    H227213   1.306   7.614   4.211
 9090TIP3   OH227214   1.554   7.848   3.345
 9090TIP3    H127215   1.602   7.924   3.376
 9090TIP3    H227216   1.568   7.782   3.414
 9091TIP3   OH227217   1.124   7.562   4.783
 9091TIP3    H127218   1.093   7.550   4.873
 9091TIP3    H227219   1.044   7.571   4.731
 9092TIP3   OH227220   1.861   7.723   4.805
 9092TIP3    H127221   1.817   7.700   4.723
 9092TIP3    H227222   1.954   7.704   4.788
 9093TIP3   OH227223   2.479   7.352   3.298
 9093TIP3    H127224   2.419   7.310   3.237
 9093TIP3    H227225   2.489   7.442   3.265
 9094TIP3   OH227226   5.579   0.148   4.386
 9094TIP3    H127227   5.491   0.168   4.353
 9094TIP3    H227228   5.629   0.126   4.308
 9095TIP3   OH227229   2.180   7.801   4.027
 9095TIP3    H127230   2.089   7.778   4.046
 9095TIP3    H227231   2.218   7.721   3.989
 9096TIP3   OH227232   0.907   7.328   3.523
 9096TIP3    H127233   0.956   7.409   3.533
 9096TIP3    H227234   0.834   7.335   3.585
 9097TIP3   OH227235   1.492   7.787   3.785
 9097TIP3    H127236   1.425   7.850   3.759
 9097TIP3    H227237   1.445   7.722   3.837
 9098TIP3   OH227238   2.016   7.974   4.249
 9098TIP3    H127239   2.001   7.974   4.344
 9098TIP3    H227240   2.095   7.922   4.236
 9099TIP3   OH227241   1.881   7.826   3.219
 9099TIP3    H127242   1.967   7.783   3.215
 9099TIP3    H227243   1.826   7.775   3.160
 9100TIP3   OH227244   1.301   7.116   4.818
 9100TIP3    H127245   1.213   7.152   4.805
 9100TIP3    H227246   1.286   7.024   4.842
 9101TIP3   OH227247   2.140   7.752   3.289
 9101TIP3    H127248   2.127   7.707   3.373
 9101TIP3    H227249   2.234   7.769   3.285
 9102TIP3   OH227250   1.306   7.807   3.237
 9102TIP3    H127251   1.317   7.721   3.197
 9102TIP3    H227252   1.389   7.824   3.281
 9103TIP3   OH227253   1.033   7.569   3.567
 9103TIP3    H127254   0.970   7.588   3.637
 9103TIP3    H227255   1.012   7.632   3.498
 9104TIP3   OH227256   2.157   7.222   4.483
 9104TIP3    H127257   2.240   7.261   4.512
 9104TIP3    H227258   2.148   7.144   4.538
 9105TIP3   OH227259   2.050   6.967   3.667
 9105TIP3    H127260   2.031   6.983   3.575
 9105TIP3    H227261   2.091   7.048   3.699
 9106TIP3   OH227262   1.693   7.160   3.767
 9106TIP3    H127263   1.766   7.214   3.736
 9106TIP3    H227264   1.715   7.140   3.858
 9107TIP3   OH227265   2.005   7.456   4.534
 9107TIP3    H127266   2.040   7.496   4.613
 9107TIP3    H227267   2.053   7.373   4.526
 9108TIP3   OH227268   1.865   6.866   3.848
 9108TIP3    H127269   1.843   6.943   3.900
 9108TIP3    H227270   1.933   6.896   3.788
 9109TIP3   OH227271   1.378   6.885   3.651
 9109TIP3    H127272   1.367   6.974   3.684
 9109TIP3    H227273   1.472   6.868   3.657
 9110TIP3   OH227274   2.624   7.350   4.524
 9110TIP3    H127275   2.530   7.364   4.531
 9110TIP3    H227276   2.634   7.287   4.453
 9111TIP3   OH227277   2.284   7.562   3.927
 9111TIP3    H127278   2.210   7.502   3.931
 9111TIP3    H227279   2.353   7.519   3.977
 9112TIP3   OH227280   0.953   7.729   3.344
 9112TIP3    H127281   0.998   7.814   3.348
 9112TIP3    H227282   1.014   7.671   3.298
 9113TIP3   OH227283   0.928   7.054   3.518
 9113TIP3    H127284   0.938   7.148   3.530
 9113TIP3    H227285   0.840   7.042   3.483
 9114TIP3   OH227286   1.331   6.783   4.395
 9114TIP3    H127287   1.301   6.749   4.310
 9114TIP3    H227288   1.322   6.708   4.455
 9115TIP3   OH227289   1.132   7.890   5.065
 9115TIP3    H127290   1.178   7.806   5.057
 9115TIP3    H227291   1.061   7.884   5.001
 9116TIP3   OH227292   1.131   7.534   3.269
 9116TIP3    H127293   1.167   7.520   3.357
 9116TIP3    H227294   1.207   7.540   3.212
 9117TIP3   OH227295   1.763   7.965   4.873
 9117TIP3    H127296   1.729   7.999   4.790
 9117TIP3    H227297   1.800   7.880   4.850
 9118TIP3   OH227298   1.643   7.734   3.109
 9118TIP3    H127299   1.606   7.782   3.183
 9118TIP3    H227300   1.597   7.650   3.110
 9119TIP3   OH227301   5.072  -0.001   4.439
 9119TIP3    H127302   5.107   0.081   4.472
 9119TIP3    H227303   4.984  -0.007   4.476
 9120TIP3   OH227304   1.303   7.681   5.057
 9120TIP3    H127305   1.323   7.588   5.058
 9120TIP3    H227306   1.332   7.713   5.142
 9121TIP3   OH227307   1.342   7.521   3.476
 9121TIP3    H127308   1.306   7.475   3.552
 9121TIP3    H227309   1.377   7.451   3.420
 9122TIP3   OH227310   1.576   7.554   4.676
 9122TIP3    H127311   1.524   7.629   4.706
 9122TIP3    H227312   1.655   7.593   4.639
 9123TIP3   OH227313   1.453   7.329   3.306
 9123TIP3    H127314   1.427   7.319   3.215
 9123TIP3    H227315   1.549   7.330   3.304
 9124TIP3   OH227316   2.107   7.927   4.781
 9124TIP3    H127317   2.196   7.897   4.766
 9124TIP3    H227318   2.093   7.913   4.875
 9125TIP3   OH227319   2.320   7.621   2.967
 9125TIP3    H127320   2.260   7.581   2.905
 9125TIP3    H227321   2.390   7.658   2.912
 9126TIP3   OH227322   1.740   7.150   4.614
 9126TIP3    H127323   1.766   7.196   4.535
 9126TIP3    H227324   1.647   7.132   4.603
 9127TIP3   OH227325   1.777   7.685   4.546
 9127TIP3    H127326   1.861   7.691   4.501
 9127TIP3    H227327   1.718   7.741   4.494
 9128TIP3   OH227328   2.356   7.642   4.882
 9128TIP3    H127329   2.406   7.560   4.880
 9128TIP3    H227330   2.422   7.711   4.884
 9129TIP3   OH227331   2.385   7.867   4.612
 9129TIP3    H127332   2.327   7.920   4.558
 9129TIP3    H227333   2.473   7.896   4.589
 9130TIP3   OH227334   1.870   6.928   4.712
 9130TIP3    H127335   1.827   7.008   4.680
 9130TIP3    H227336   1.805   6.859   4.699
 9131TIP3   OH227337   2.035   7.421   4.929
 9131TIP3    H127338   2.074   7.422   5.017
 9131TIP3    H227339   1.959   7.364   4.937
 9132TIP3   OH227340   2.258   7.358   4.773
 9132TIP3    H127341   2.182   7.365   4.831
 9132TIP3    H227342   2.331   7.336   4.832
 9133TIP3   OH227343   2.478   7.327   4.938
 9133TIP3    H127344   2.493   7.232   4.943
 9133TIP3    H227345   2.467   7.354   5.029
 9134TIP3   OH227346   1.502   7.223   5.036
 9134TIP3    H127347   1.493   7.128   5.044
 9134TIP3    H227348   1.549   7.249   5.116
 9135TIP3   OH227349   1.950   6.921   4.973
 9135TIP3    H127350   2.017   6.853   4.970
 9135TIP3    H227351   1.915   6.925   4.884
 9136TIP3   OH227352   1.980   7.149   5.119
 9136TIP3    H127353   1.988   7.074   5.062
 9136TIP3    H227354   1.889   7.147   5.150
 9137TIP3   OH227355   0.729   7.634   3.466
 9137TIP3    H127356   0.795   7.687   3.421
 9137TIP3    H227357   0.704   7.568   3.401
 9138TIP3   OH227358   5.429   0.371   4.646
 9138TIP3    H127359   5.386   0.430   4.708
 9138TIP3    H227360   5.521   0.396   4.648
 9139TIP3   OH227361   2.400   7.797   3.316
 9139TIP3    H127362   2.430   7.886   3.298
 9139TIP3    H227363   2.451   7.768   3.391
 9140TIP3   OH227364   2.544   7.675   3.514
 9140TIP3    H127365   2.479   7.638   3.574
 9140TIP3    H227366   2.611   7.712   3.572
 9141TIP3   OH227367   5.435   0.051   3.952
 9141TIP3    H127368   5.475  -0.028   3.917
 9141TIP3    H227369   5.399   0.095   3.875
 9142TIP3   OH227370   2.497   7.590   3.168
 9142TIP3    H127371   2.426   7.592   3.104
 9142TIP3    H227372   2.482   7.666   3.224
 9143TIP3   OH227373   2.322   7.256   3.098
 9143TIP3    H127374   2.271   7.300   3.030
 9143TIP3    H227375   2.310   7.163   3.081
 9144TIP3   OH227376   2.349   7.541   3.659
 9144TIP3    H127377   2.358   7.447   3.647
 9144TIP3    H227378   2.333   7.552   3.753
 9145TIP3   OH227379   0.976   7.596   4.403
 9145TIP3    H127380   0.967   7.559   4.315
 9145TIP3    H227381   1.071   7.596   4.419
 9146TIP3   OH227382   2.631   7.954   4.531
 9146TIP3    H127383   2.695   7.885   4.516
 9146TIP3    H227384   2.655   8.024   4.470
 9147TIP3   OH227385   2.816   7.754   4.526
 9147TIP3    H127386   2.740   7.708   4.562
 9147TIP3    H227387   2.889   7.694   4.542
 9148TIP3   OH227388   2.276   6.988   3.059
 9148TIP3    H127389   2.342   6.961   3.123
 9148TIP3    H227390   2.195   6.946   3.090
 9149TIP3   OH227391   2.348   7.270   3.535
 9149TIP3    H127392   2.391   7.186   3.548
 9149TIP3    H227393   2.393   7.308   3.459
 9150TIP3   OH227394   2.498   7.436   4.052
 9150TIP3    H127395   2.579   7.456   4.005
 9150TIP3    H227396   2.514   7.471   4.140
 9151TIP3   OH227397   2.572   7.578   4.282
 9151TIP3    H127398   2.495   7.606   4.332
 9151TIP3    H227399   2.604   7.658   4.241
 9152TIP3   OH227400   1.229   7.302   5.074
 9152TIP3    H127401   1.304   7.307   5.132
 9152TIP3    H227402   1.184   7.221   5.099
 9153TIP3   OH227403   3.030   7.190   4.820
 9153TIP3    H127404   3.094   7.131   4.780
 9153TIP3    H227405   2.992   7.237   4.745
 9154TIP3   OH227406   2.458   7.020   3.581
 9154TIP3    H127407   2.502   7.006   3.665
 9154TIP3    H227408   2.395   6.949   3.575
 9155TIP3   OH227409   1.170   7.006   4.410
 9155TIP3    H127410   1.223   6.927   4.412
 9155TIP3    H227411   1.231   7.076   4.388
 9156TIP3   OH227412   0.959   7.268   4.481
 9156TIP3    H127413   1.006   7.263   4.397
 9156TIP3    H227414   0.952   7.362   4.499
 9157TIP3   OH227415   2.883   7.298   4.616
 9157TIP3    H127416   2.796   7.336   4.630
 9157TIP3    H227417   2.865   7.218   4.565
 9158TIP3   OH227418   2.506   6.941   3.214
 9158TIP3    H127419   2.552   6.876   3.161
 9158TIP3    H227420   2.566   7.015   3.218
 9159TIP3   OH227421   0.940   6.791   3.989
 9159TIP3    H127422   0.851   6.772   4.019
 9159TIP3    H227423   0.927   6.842   3.908
 9160TIP3   OH227424   1.161   6.876   4.826
 9160TIP3    H127425   1.103   6.846   4.896
 9160TIP3    H227426   1.102   6.907   4.757
 9161TIP3   OH227427   2.795   7.048   4.517
 9161TIP3    H127428   2.705   7.032   4.487
 9161TIP3    H227429   2.838   6.963   4.512
 9162TIP3   OH227430   2.000   6.981   4.151
 9162TIP3    H127431   1.961   6.908   4.200
 9162TIP3    H227432   2.068   6.939   4.098
 9163TIP3   OH227433   2.501   6.896   4.041
 9163TIP3    H127434   2.537   6.945   3.967
 9163TIP3    H227435   2.407   6.914   4.039
 9164TIP3   OH227436   2.614   6.976   3.804
 9164TIP3    H127437   2.684   6.915   3.778
 9164TIP3    H227438   2.652   7.063   3.791
 9165TIP3   OH227439   1.244   6.684   4.152
 9165TIP3    H127440   1.154   6.653   4.159
 9165TIP3    H227441   1.297   6.605   4.143
 9166TIP3   OH227442   1.064   6.597   3.812
 9166TIP3    H127443   1.084   6.647   3.733
 9166TIP3    H227444   1.026   6.661   3.872
 9167TIP3   OH227445   1.714   6.725   4.043
 9167TIP3    H127446   1.764   6.770   3.975
 9167TIP3    H227447   1.758   6.749   4.125
 9168TIP3   OH227448   2.215   6.866   4.019
 9168TIP3    H127449   2.229   6.829   3.931
 9168TIP3    H227450   2.219   6.790   4.077
 9169TIP3   OH227451   2.270   6.814   3.586
 9169TIP3    H127452   2.190   6.860   3.611
 9169TIP3    H227453   2.261   6.727   3.625
 9170TIP3   OH227454   1.165   6.722   3.567
 9170TIP3    H127455   1.210   6.657   3.512
 9170TIP3    H227456   1.236   6.775   3.603
 9171TIP3   OH227457   1.653   6.912   3.661
 9171TIP3    H127458   1.710   6.857   3.714
 9171TIP3    H227459   1.666   7.000   3.695
 9172TIP3   OH227460   1.482   6.950   5.047
 9172TIP3    H127461   1.442   6.886   5.106
 9172TIP3    H227462   1.574   6.953   5.074
 9173TIP3   OH227463   1.736   6.970   5.161
 9173TIP3    H127464   1.807   6.934   5.108
 9173TIP3    H227465   1.724   6.906   5.231
 9174TIP3   OH227466   2.537   7.057   4.944
 9174TIP3    H127467   2.552   7.025   5.033
 9174TIP3    H227468   2.623   7.050   4.901
 9175TIP3   OH227469   3.744   7.866   3.248
 9175TIP3    H127470   3.738   7.960   3.230
 9175TIP3    H227471   3.673   7.828   3.197
 9176TIP3   OH227472   3.719   7.965   3.612
 9176TIP3    H127473   3.766   7.949   3.694
 9176TIP3    H227474   3.681   7.880   3.589
 9177TIP3   OH227475   3.021   7.842   3.974
 9177TIP3    H127476   3.063   7.780   4.034
 9177TIP3    H227477   3.089   7.908   3.958
 9178TIP3   OH227478   6.838   0.232   3.313
 9178TIP3    H127479   6.812   0.175   3.386
 9178TIP3    H227480   6.865   0.314   3.355
 9179TIP3   OH227481   5.955   0.139   3.763
 9179TIP3    H127482   5.859   0.131   3.757
 9179TIP3    H227483   5.984   0.139   3.672
 9180TIP3   OH227484   2.711   7.464   3.425
 9180TIP3    H127485   2.670   7.546   3.451
 9180TIP3    H227486   2.639   7.408   3.396
 9181TIP3   OH227487   2.771   7.749   3.651
 9181TIP3    H127488   2.819   7.671   3.679
 9181TIP3    H227489   2.838   7.806   3.614
 9182TIP3   OH227490   6.385   0.182   3.680
 9182TIP3    H127491   6.410   0.108   3.624
 9182TIP3    H227492   6.468   0.213   3.716
 9183TIP3   OH227493   4.567   7.514   3.630
 9183TIP3    H127494   4.586   7.598   3.671
 9183TIP3    H227495   4.596   7.524   3.539
 9184TIP3   OH227496   3.951   7.682   3.659
 9184TIP3    H127497   3.987   7.596   3.684
 9184TIP3    H227498   3.917   7.668   3.571
 9185TIP3   OH227499   3.300   7.340   3.621
 9185TIP3    H127500   3.279   7.413   3.562
 9185TIP3    H227501   3.246   7.268   3.590
 9186TIP3   OH227502   3.992   7.447   3.240
 9186TIP3    H127503   4.050   7.441   3.316
 9186TIP3    H227504   4.048   7.477   3.169
 9187TIP3   OH227505   2.922   7.542   3.744
 9187TIP3    H127506   3.007   7.529   3.786
 9187TIP3    H227507   2.928   7.492   3.663
 9188TIP3   OH227508   3.368   7.742   3.542
 9188TIP3    H127509   3.462   7.725   3.555
 9188TIP3    H227510   3.331   7.658   3.517
 9189TIP3   OH227511   4.630   7.734   3.797
 9189TIP3    H127512   4.539   7.762   3.797
 9189TIP3    H227513   4.666   7.766   3.880
 9190TIP3   OH227514   3.282   7.340   4.065
 9190TIP3    H127515   3.229   7.375   3.993
 9190TIP3    H227516   3.228   7.354   4.143
 9191TIP3   OH227517   6.543   0.076   3.079
 9191TIP3    H127518   6.482   0.089   3.006
 9191TIP3    H227519   6.548   0.162   3.121
 9192TIP3   OH227520   6.230   0.060   3.862
 9192TIP3    H127521   6.165   0.124   3.889
 9192TIP3    H227522   6.283   0.105   3.796
 9193TIP3   OH227523   4.154   7.466   3.461
 9193TIP3    H127524   4.117   7.441   3.545
 9193TIP3    H227525   4.215   7.537   3.481
 9194TIP3   OH227526   3.167   7.448   3.838
 9194TIP3    H127527   3.223   7.521   3.863
 9194TIP3    H227528   3.216   7.405   3.767
 9195TIP3   OH227529   6.095   0.304   3.919
 9195TIP3    H127530   6.030   0.247   3.879
 9195TIP3    H227531   6.046   0.350   3.988
 9196TIP3   OH227532   2.654   7.879   3.221
 9196TIP3    H127533   2.588   7.903   3.156
 9196TIP3    H227534   2.676   7.961   3.264
 9197TIP3   OH227535   4.362   7.410   3.798
 9197TIP3    H127536   4.277   7.431   3.760
 9197TIP3    H227537   4.425   7.436   3.731
 9198TIP3   OH227538   3.621   7.034   3.787
 9198TIP3    H127539   3.615   6.943   3.814
 9198TIP3    H227540   3.545   7.076   3.828
 9199TIP3   OH227541   6.839   0.189   3.043
 9199TIP3    H127542   6.754   0.151   3.019
 9199TIP3    H227543   6.830   0.209   3.136
 9200TIP3   OH227544   7.180   0.381   3.710
 9200TIP3    H127545   7.130   0.306   3.680
 9200TIP3    H227546   7.200   0.431   3.630
 9201TIP3   OH227547   3.572   7.777   3.050
 9201TIP3    H127548   3.486   7.817   3.042
 9201TIP3    H227549   3.610   7.784   2.962
 9202TIP3   OH227550   3.535   7.563   2.750
 9202TIP3    H127551   3.586   7.629   2.797
 9202TIP3    H227552   3.600   7.519   2.694
 9203TIP3   OH227553   7.300   0.046   3.636
 9203TIP3    H127554   7.212   0.086   3.636
 9203TIP3    H227555   7.330   0.056   3.545
 9204TIP3   OH227556   3.911   7.853   3.018
 9204TIP3    H127557   3.859   7.869   3.097
 9204TIP3    H227558   4.001   7.843   3.051
 9205TIP3   OH227559   4.144   7.917   3.928
 9205TIP3    H127560   4.144   7.992   3.987
 9205TIP3    H227561   4.059   7.921   3.883
 9206TIP3   OH227562   3.157   7.857   3.410
 9206TIP3    H127563   3.119   7.796   3.347
 9206TIP3    H227564   3.229   7.808   3.450
 9207TIP3   OH227565   6.072   0.183   3.526
 9207TIP3    H127566   6.108   0.266   3.557
 9207TIP3    H227567   6.145   0.140   3.481
 9208TIP3   OH227568   3.258   7.856   3.767
 9208TIP3    H127569   3.303   7.827   3.688
 9208TIP3    H227570   3.304   7.936   3.793
 9209TIP3   OH227571   6.278   0.331   4.136
 9209TIP3    H127572   6.351   0.391   4.126
 9209TIP3    H227573   6.252   0.307   4.047
 9210TIP3   OH227574   3.737   7.752   2.826
 9210TIP3    H127575   3.800   7.803   2.878
 9210TIP3    H227576   3.769   7.759   2.736
 9211TIP3   OH227577   3.173   7.962   4.229
 9211TIP3    H127578   3.176   8.046   4.276
 9211TIP3    H227579   3.084   7.931   4.241
 9212TIP3   OH227580   4.258   6.995   2.889
 9212TIP3    H127581   4.181   7.015   2.943
 9212TIP3    H227582   4.270   7.072   2.834
 9213TIP3   OH227583   3.033   7.692   3.228
 9213TIP3    H127584   2.971   7.740   3.174
 9213TIP3    H227585   2.979   7.630   3.277
 9214TIP3   OH227586   5.657   0.051   4.144
 9214TIP3    H127587   5.575   0.035   4.097
 9214TIP3    H227588   5.686  -0.036   4.173
 9215TIP3   OH227589   4.390   7.881   4.109
 9215TIP3    H127590   4.306   7.884   4.063
 9215TIP3    H227591   4.412   7.788   4.111
 9216TIP3   OH227592   5.844   0.206   4.033
 9216TIP3    H127593   5.872   0.261   4.106
 9216TIP3    H227594   5.779   0.147   4.071
 9217TIP3   OH227595   3.385   7.127   3.916
 9217TIP3    H127596   3.300   7.093   3.886
 9217TIP3    H227597   3.364   7.206   3.965
 9218TIP3   OH227598   3.926   7.246   4.118
 9218TIP3    H127599   3.997   7.222   4.178
 9218TIP3    H227600   3.846   7.229   4.166
 9219TIP3   OH227601   4.153   7.662   4.034
 9219TIP3    H127602   4.109   7.660   4.119
 9219TIP3    H227603   4.133   7.748   3.998
 9220TIP3   OH227604   3.824   7.741   2.566
 9220TIP3    H127605   3.788   7.740   2.477
 9220TIP3    H227606   3.906   7.791   2.558
 9221TIP3   OH227607   3.326   7.651   3.933
 9221TIP3    H127608   3.278   7.662   4.015
 9221TIP3    H227609   3.300   7.727   3.880
 9222TIP3   OH227610   3.205   7.537   3.457
 9222TIP3    H127611   3.116   7.512   3.483
 9222TIP3    H227612   3.214   7.502   3.368
 9223TIP3   OH227613   3.703   7.562   3.158
 9223TIP3    H127614   3.657   7.637   3.120
 9223TIP3    H227615   3.774   7.545   3.097
 9224TIP3   OH227616   3.891   7.868   4.244
 9224TIP3    H127617   3.861   7.802   4.305
 9224TIP3    H227618   3.982   7.885   4.269
 9225TIP3   OH227619   3.857   7.650   3.404
 9225TIP3    H127620   3.807   7.711   3.349
 9225TIP3    H227621   3.872   7.574   3.347
 9226TIP3   OH227622   3.154   7.665   4.147
 9226TIP3    H127623   3.175   7.727   4.218
 9226TIP3    H227624   3.139   7.582   4.192
 9227TIP3   OH227625   2.746   7.198   3.724
 9227TIP3    H127626   2.820   7.229   3.776
 9227TIP3    H227627   2.786   7.167   3.643
 9228TIP3   OH227628   2.674   7.167   3.228
 9228TIP3    H127629   2.733   7.210   3.167
 9228TIP3    H227630   2.609   7.234   3.250
 9229TIP3   OH227631   3.882   7.883   3.825
 9229TIP3    H127632   3.911   7.816   3.764
 9229TIP3    H227633   3.842   7.834   3.897
 9230TIP3   OH227634   3.564   7.331   3.504
 9230TIP3    H127635   3.489   7.330   3.563
 9230TIP3    H227636   3.640   7.318   3.561
 9231TIP3   OH227637   2.968   7.409   3.508
 9231TIP3    H127638   2.879   7.413   3.472
 9231TIP3    H227639   2.996   7.319   3.493
 9232TIP3   OH227640   3.225   7.410   3.215
 9232TIP3    H127641   3.321   7.415   3.214
 9232TIP3    H227642   3.198   7.454   3.134
 9233TIP3   OH227643   4.026   7.417   3.706
 9233TIP3    H127644   4.004   7.432   3.798
 9233TIP3    H227645   3.961   7.353   3.677
 9234TIP3   OH227646   3.054   7.432   2.981
 9234TIP3    H127647   2.965   7.410   3.008
 9234TIP3    H227648   3.052   7.527   2.968
 9235TIP3   OH227649   6.006   0.181   4.395
 9235TIP3    H127650   6.082   0.185   4.453
 9235TIP3    H227651   5.930   0.183   4.453
 9236TIP3   OH227652   3.630   7.692   3.606
 9236TIP3    H127653   3.699   7.644   3.560
 9236TIP3    H227654   3.628   7.653   3.694
 9237TIP3   OH227655   3.118   7.162   3.503
 9237TIP3    H127656   3.081   7.088   3.552
 9237TIP3    H227657   3.172   7.120   3.435
 9238TIP3   OH227658   3.594   7.603   3.872
 9238TIP3    H127659   3.506   7.632   3.898
 9238TIP3    H227660   3.653   7.654   3.927
 9239TIP3   OH227661   3.336   7.918   3.060
 9239TIP3    H127662   3.242   7.929   3.047
 9239TIP3    H227663   3.353   7.957   3.146
 9240TIP3   OH227664   7.050   0.160   3.599
 9240TIP3    H127665   7.075   0.202   3.516
 9240TIP3    H227666   6.966   0.117   3.580
 9241TIP3   OH227667   3.769   7.285   2.888
 9241TIP3    H127668   3.676   7.306   2.880
 9241TIP3    H227669   3.812   7.370   2.896
 9242TIP3   OH227670   6.572   0.183   4.017
 9242TIP3    H127671   6.630   0.178   4.092
 9242TIP3    H227672   6.517   0.259   4.035
 9243TIP3   OH227673   3.878   7.529   2.944
 9243TIP3    H127674   3.972   7.538   2.962
 9243TIP3    H227675   3.855   7.609   2.897
 9244TIP3   OH227676   3.012   7.888   3.639
 9244TIP3    H127677   3.053   7.888   3.552
 9244TIP3    H227678   3.084   7.871   3.699
 9245TIP3   OH227679   6.243   0.068   2.851
 9245TIP3    H127680   6.270   0.153   2.885
 9245TIP3    H227681   6.227   0.015   2.929
 9246TIP3   OH227682   2.920   7.851   4.286
 9246TIP3    H127683   2.918   7.833   4.380
 9246TIP3    H227684   2.845   7.802   4.251
 9247TIP3   OH227685   3.645   7.982   4.301
 9247TIP3    H127686   3.583   7.926   4.255
 9247TIP3    H227687   3.731   7.956   4.266
 9248TIP3   OH227688   4.270   7.623   2.779
 9248TIP3    H127689   4.209   7.579   2.721
 9248TIP3    H227690   4.281   7.710   2.741
 9249TIP3   OH227691   7.396   0.399   3.865
 9249TIP3    H127692   7.308   0.414   3.829
 9249TIP3    H227693   7.449   0.377   3.788
 9250TIP3   OH227694   6.811   0.040   3.517
 9250TIP3    H127695   6.720   0.017   3.537
 9250TIP3    H227696   6.847  -0.039   3.478
 9251TIP3   OH227697   2.715   7.577   3.003
 9251TIP3    H127698   2.766   7.656   3.017
 9251TIP3    H227699   2.641   7.585   3.064
 9252TIP3   OH227700   6.132   0.039   3.291
 9252TIP3    H127701   6.065   0.103   3.268
 9252TIP3    H227702   6.085  -0.030   3.338
 9253TIP3   OH227703   6.649   0.216   3.751
 9253TIP3    H127704   6.629   0.209   3.844
 9253TIP3    H227705   6.733   0.171   3.741
 9254TIP3   OH227706   6.572   0.069   2.589
 9254TIP3    H127707   6.629   0.026   2.653
 9254TIP3    H227708   6.487   0.027   2.600
 9255TIP3   OH227709   3.109   7.416   4.272
 9255TIP3    H127710   3.014   7.423   4.277
 9255TIP3    H227711   3.132   7.358   4.344
 9256TIP3   OH227712   3.915   8.013   2.796
 9256TIP3    H127713   3.909   7.969   2.881
 9256TIP3    H227714   4.009   8.025   2.782
 9257TIP3   OH227715   5.957   0.034   2.784
 9257TIP3    H127716   5.893   0.006   2.719
 9257TIP3    H227717   6.025   0.079   2.734
 9258TIP3   OH227718   2.850   7.806   3.063
 9258TIP3    H127719   2.786   7.828   3.130
 9258TIP3    H227720   2.843   7.877   2.999
 9259TIP3   OH227721   3.960   7.474   3.967
 9259TIP3    H127722   4.039   7.517   4.001
 9259TIP3    H227723   3.949   7.397   4.024
 9260TIP3   OH227724   3.844   7.225   3.154
 9260TIP3    H127725   3.817   7.245   3.064
 9260TIP3    H227726   3.887   7.305   3.184
 9261TIP3   OH227727   3.498   7.413   3.250
 9261TIP3    H127728   3.570   7.466   3.219
 9261TIP3    H227729   3.520   7.394   3.342
 9262TIP3   OH227730   3.805   7.707   4.023
 9262TIP3    H127731   3.836   7.748   4.104
 9262TIP3    H227732   3.854   7.625   4.018
 9263TIP3   OH227733   3.657   7.121   3.331
 9263TIP3    H127734   3.635   7.198   3.384
 9263TIP3    H227735   3.727   7.152   3.273
 9264TIP3   OH227736   3.189   7.185   3.042
 9264TIP3    H127737   3.172   7.237   3.121
 9264TIP3    H227738   3.277   7.150   3.055
 9265TIP3   OH227739   4.416   7.606   4.014
 9265TIP3    H127740   4.322   7.618   4.027
 9265TIP3    H227741   4.423   7.546   3.940
 9266TIP3   OH227742   4.083   7.818   3.412
 9266TIP3    H127743   4.009   7.757   3.417
 9266TIP3    H227744   4.152   7.776   3.463
 9267TIP3   OH227745   2.772   7.991   2.870
 9267TIP3    H127746   2.811   8.077   2.853
 9267TIP3    H227747   2.822   7.931   2.815
 9268TIP3   OH227748   2.794   7.319   3.024
 9268TIP3    H127749   2.755   7.406   3.024
 9268TIP3    H227750   2.750   7.273   2.952
 9269TIP3   OH227751   3.122   7.040   3.882
 9269TIP3    H127752   3.093   7.005   3.798
 9269TIP3    H227753   3.114   6.967   3.942
 9270TIP3   OH227754   5.787   0.129   4.559
 9270TIP3    H127755   5.830   0.044   4.547
 9270TIP3    H227756   5.718   0.131   4.493
 9271TIP3   OH227757   2.938   7.795   2.763
 9271TIP3    H127758   2.982   7.760   2.841
 9271TIP3    H227759   3.004   7.791   2.695
 9272TIP3   OH227760   6.388   0.216   4.357
 9272TIP3    H127761   6.356   0.250   4.274
 9272TIP3    H227762   6.423   0.129   4.336
 9273TIP3   OH227763   3.475   7.995   2.600
 9273TIP3    H127764   3.450   8.034   2.684
 9273TIP3    H227765   3.430   7.911   2.599
 9274TIP3   OH227766   6.899   0.260   3.912
 9274TIP3    H127767   6.979   0.313   3.913
 9274TIP3    H227768   6.838   0.308   3.968
 9275TIP3   OH227769   3.112   7.918   4.537
 9275TIP3    H127770   3.192   7.884   4.497
 9275TIP3    H227771   3.139   7.951   4.623
 9276TIP3   OH227772   3.116   7.696   2.953
 9276TIP3    H127773   3.124   7.717   3.046
 9276TIP3    H227774   3.199   7.724   2.915
 9277TIP3   OH227775   3.418   7.838   4.189
 9277TIP3    H127776   3.338   7.890   4.192
 9277TIP3    H227777   3.463   7.867   4.110
 9278TIP3   OH227778   3.284   7.425   2.788
 9278TIP3    H127779   3.247   7.458   2.706
 9278TIP3    H227780   3.369   7.468   2.795
 9279TIP3   OH227781   6.748   0.173   4.262
 9279TIP3    H127782   6.830   0.127   4.246
 9279TIP3    H227783   6.728   0.156   4.354
 9280TIP3   OH227784   4.044   7.882   2.474
 9280TIP3    H127785   4.034   7.838   2.389
 9280TIP3    H227786   4.025   7.974   2.455
 9281TIP3   OH227787   3.531   7.621   4.307
 9281TIP3    H127788   3.538   7.548   4.245
 9281TIP3    H227789   3.492   7.691   4.256
 9282TIP3   OH227790   3.540   7.427   4.101
 9282TIP3    H127791   3.569   7.463   4.017
 9282TIP3    H227792   3.450   7.400   4.086
 9283TIP3   OH227793   3.585   7.935   3.998
 9283TIP3    H127794   3.665   7.986   3.992
 9283TIP3    H227795   3.522   7.983   3.944
 9284TIP3   OH227796   4.150   7.897   4.362
 9284TIP3    H127797   4.193   7.812   4.365
 9284TIP3    H227798   4.222   7.960   4.361
 9285TIP3   OH227799   7.012   0.111   4.106
 9285TIP3    H127800   6.953   0.162   4.050
 9285TIP3    H227801   7.100   0.137   4.079
 9286TIP3   OH227802   3.403   7.719   4.539
 9286TIP3    H127803   3.343   7.648   4.562
 9286TIP3    H227804   3.440   7.692   4.455
 9287TIP3   OH227805   3.662   7.194   4.199
 9287TIP3    H127806   3.621   7.274   4.166
 9287TIP3    H227807   3.596   7.126   4.186
 9288TIP3   OH227808   3.791   7.669   4.401
 9288TIP3    H127809   3.783   7.660   4.496
 9288TIP3    H227810   3.704   7.645   4.368
 9289TIP3   OH227811   4.034   7.612   4.270
 9289TIP3    H127812   3.957   7.613   4.327
 9289TIP3    H227813   4.106   7.590   4.330
 9290TIP3   OH227814   4.269   7.585   4.420
 9290TIP3    H127815   4.284   7.491   4.425
 9290TIP3    H227816   4.265   7.614   4.511
 9291TIP3   OH227817   3.252   7.493   4.606
 9291TIP3    H127818   3.258   7.405   4.569
 9291TIP3    H227819   3.289   7.485   4.694
 9292TIP3   OH227820   3.730   7.178   4.464
 9292TIP3    H127821   3.799   7.111   4.460
 9292TIP3    H227822   3.700   7.186   4.374
 9293TIP3   OH227823   3.820   7.394   4.609
 9293TIP3    H127824   3.792   7.321   4.554
 9293TIP3    H227825   3.746   7.455   4.607
 9294TIP3   OH227826   2.522   7.915   2.968
 9294TIP3    H127827   2.599   7.963   2.938
 9294TIP3    H227828   2.514   7.842   2.906
 9295TIP3   OH227829   7.218   0.617   4.111
 9295TIP3    H127830   7.184   0.681   4.174
 9295TIP3    H227831   7.301   0.655   4.082
 9296TIP3   OH227832   7.016   0.037   2.801
 9296TIP3    H127833   7.053   0.121   2.773
 9296TIP3    H227834   7.074   0.007   2.871
 9297TIP3   OH227835   4.340   7.938   2.996
 9297TIP3    H127836   4.278   7.900   3.059
 9297TIP3    H227837   4.409   7.976   3.051
 9298TIP3   OH227838   7.227   0.308   3.436
 9298TIP3    H127839   7.276   0.235   3.399
 9298TIP3    H227840   7.190   0.354   3.361
 9299TIP3   OH227841   4.271   7.855   2.630
 9299TIP3    H127842   4.194   7.857   2.572
 9299TIP3    H227843   4.258   7.929   2.688
 9300TIP3   OH227844   4.102   7.520   2.589
 9300TIP3    H127845   4.068   7.557   2.507
 9300TIP3    H227846   4.094   7.426   2.578
 9301TIP3   OH227847   4.150   7.799   3.145
 9301TIP3    H127848   4.165   7.705   3.134
 9301TIP3    H227849   4.135   7.810   3.239
 9302TIP3   OH227850   2.763   7.857   3.900
 9302TIP3    H127851   2.752   7.815   3.815
 9302TIP3    H227852   2.857   7.848   3.919
 9303TIP3   OH227853   7.254   0.201   4.010
 9303TIP3    H127854   7.317   0.129   4.003
 9303TIP3    H227855   7.286   0.267   3.949
 9304TIP3   OH227856   4.605   8.012   4.011
 9304TIP3    H127857   4.531   7.964   4.048
 9304TIP3    H227858   4.681   7.956   4.026
 9305TIP3   OH227859   4.066   7.251   2.562
 9305TIP3    H127860   4.137   7.221   2.619
 9305TIP3    H227861   3.989   7.201   2.590
 9306TIP3   OH227862   4.152   7.531   3.020
 9306TIP3    H127863   4.195   7.446   3.032
 9306TIP3    H227864   4.196   7.570   2.945
 9307TIP3   OH227865   4.296   7.693   3.540
 9307TIP3    H127866   4.377   7.712   3.492
 9307TIP3    H227867   4.311   7.728   3.628
 9308TIP3   OH227868   4.369   7.836   3.769
 9308TIP3    H127869   4.293   7.864   3.820
 9308TIP3    H227870   4.401   7.916   3.728
 9309TIP3   OH227871   2.988   7.544   4.550
 9309TIP3    H127872   3.082   7.541   4.564
 9309TIP3    H227873   2.955   7.462   4.586
 9310TIP3   OH227874   4.826   7.446   4.307
 9310TIP3    H127875   4.890   7.388   4.266
 9310TIP3    H227876   4.788   7.494   4.233
 9311TIP3   OH227877   4.255   7.278   3.068
 9311TIP3    H127878   4.300   7.263   3.152
 9311TIP3    H227879   4.191   7.207   3.062
 9312TIP3   OH227880   2.956   7.263   3.897
 9312TIP3    H127881   3.009   7.184   3.904
 9312TIP3    H227882   3.019   7.333   3.881
 9313TIP3   OH227883   2.742   7.527   3.959
 9313TIP3    H127884   2.790   7.517   3.877
 9313TIP3    H227885   2.794   7.588   4.010
 9314TIP3   OH227886   4.678   7.556   4.105
 9314TIP3    H127887   4.593   7.595   4.124
 9314TIP3    H227888   4.657   7.478   4.053
 9315TIP3   OH227889   4.299   7.197   2.707
 9315TIP3    H127890   4.344   7.137   2.648
 9315TIP3    H227891   4.357   7.274   2.711
 9316TIP3   OH227892   2.728   7.042   3.466
 9316TIP3    H127893   2.641   7.027   3.503
 9316TIP3    H227894   2.712   7.092   3.386
 9317TIP3   OH227895   2.954   7.116   4.291
 9317TIP3    H127896   2.899   7.093   4.366
 9317TIP3    H227897   2.893   7.154   4.228
 9318TIP3   OH227898   4.590   7.308   4.003
 9318TIP3    H127899   4.501   7.294   3.972
 9318TIP3    H227900   4.631   7.221   3.998
 9319TIP3   OH227901   3.791   7.233   3.634
 9319TIP3    H127902   3.752   7.161   3.683
 9319TIP3    H227903   3.861   7.193   3.583
 9320TIP3   OH227904   4.299   7.152   3.527
 9320TIP3    H127905   4.336   7.201   3.453
 9320TIP3    H227906   4.206   7.174   3.526
 9321TIP3   OH227907   4.413   7.230   3.290
 9321TIP3    H127908   4.482   7.169   3.262
 9321TIP3    H227909   4.451   7.317   3.277
 9322TIP3   OH227910   3.034   6.937   3.640
 9322TIP3    H127911   2.945   6.903   3.650
 9322TIP3    H227912   3.088   6.859   3.633
 9323TIP3   OH227913   2.846   6.847   3.291
 9323TIP3    H127914   2.877   6.901   3.217
 9323TIP3    H227915   2.814   6.911   3.355
 9324TIP3   OH227916   3.501   6.986   3.527
 9324TIP3    H127917   3.553   7.028   3.459
 9324TIP3    H227918   3.545   7.009   3.609
 9325TIP3   OH227919   4.012   7.123   3.508
 9325TIP3    H127920   4.028   7.086   3.421
 9325TIP3    H227921   4.016   7.047   3.567
 9326TIP3   OH227922   4.065   7.071   3.073
 9326TIP3    H127923   3.986   7.118   3.099
 9326TIP3    H227924   4.055   6.985   3.112
 9327TIP3   OH227925   2.971   6.984   3.048
 9327TIP3    H127926   3.009   6.908   3.003
 9327TIP3    H227927   3.044   7.046   3.056
 9328TIP3   OH227928   3.445   7.170   3.131
 9328TIP3    H127929   3.500   7.105   3.175
 9328TIP3    H227930   3.470   7.253   3.169
 9329TIP3   OH227931   3.262   7.223   4.521
 9329TIP3    H127932   3.226   7.156   4.579
 9329TIP3    H227933   3.354   7.230   4.545
 9330TIP3   OH227934   3.510   7.229   4.642
 9330TIP3    H127935   3.588   7.207   4.591
 9330TIP3    H227936   3.504   7.159   4.708
 9331TIP3   OH227937   4.333   7.315   4.429
 9331TIP3    H127938   4.349   7.285   4.519
 9331TIP3    H227939   4.419   7.309   4.386
 9332TIP3   OH227940   8.361   0.196   2.693
 9332TIP3    H127941   8.337   0.285   2.666
 9332TIP3    H227942   8.288   0.141   2.662
 9333TIP3   OH227943   8.361   0.205   3.092
 9333TIP3    H127944   8.408   0.192   3.174
 9333TIP3    H227945   8.317   0.121   3.075
 9334TIP3   OH227946   7.660   0.078   3.447
 9334TIP3    H127947   7.699   0.024   3.515
 9334TIP3    H227948   7.733   0.106   3.392
 9335TIP3   OH227949   0.121   0.479   2.759
 9335TIP3    H127950   0.111   0.412   2.826
 9335TIP3    H227951   0.083   0.558   2.797
 9336TIP3   OH227952   7.747   0.401   3.204
 9336TIP3    H127953   7.712   0.478   3.249
 9336TIP3    H227954   7.818   0.436   3.150
 9337TIP3   OH227955   4.503   7.718   2.919
 9337TIP3    H127956   4.465   7.803   2.943
 9337TIP3    H227957   4.432   7.671   2.877
 9338TIP3   OH227958   4.568   8.003   3.137
 9338TIP3    H127959   4.616   7.925   3.165
 9338TIP3    H227960   4.635   8.061   3.101
 9339TIP3   OH227961   8.194   0.435   3.105
 9339TIP3    H127962   8.233   0.354   3.072
 9339TIP3    H227963   8.267   0.485   3.140
 9340TIP3   OH227964   6.357   7.771   3.119
 9340TIP3    H127965   6.376   7.856   3.159
 9340TIP3    H227966   6.391   7.779   3.030
 9341TIP3   OH227967   5.743   7.940   3.141
 9341TIP3    H127968   5.777   7.855   3.169
 9341TIP3    H227969   5.705   7.924   3.055
 9342TIP3   OH227970   5.095   7.596   3.100
 9342TIP3    H127971   5.074   7.670   3.042
 9342TIP3    H227972   5.039   7.525   3.069
 9343TIP3   OH227973   5.796   7.700   2.737
 9343TIP3    H127974   5.860   7.692   2.808
 9343TIP3    H227975   5.846   7.733   2.663
 9344TIP3   OH227976   4.717   7.794   3.233
 9344TIP3    H127977   4.804   7.785   3.273
 9344TIP3    H227978   4.725   7.750   3.149
 9345TIP3   OH227979   5.147   8.007   3.036
 9345TIP3    H127980   5.241   7.990   3.044
 9345TIP3    H227981   5.110   7.926   3.003
 9346TIP3   OH227982   6.418   7.991   3.287
 9346TIP3    H127983   6.328   8.023   3.284
 9346TIP3    H227984   6.454   8.025   3.369
 9347TIP3   OH227985   5.077   7.598   3.552
 9347TIP3    H127986   5.026   7.633   3.479
 9347TIP3    H227987   5.023   7.613   3.629
 9348TIP3   OH227988   8.280   0.417   2.549
 9348TIP3    H127989   8.230   0.408   2.467
 9348TIP3    H227990   8.348   0.481   2.527
 9349TIP3   OH227991   8.045   0.331   3.312
 9349TIP3    H127992   7.999   0.403   3.356
 9349TIP3    H227993   8.093   0.373   3.241
 9350TIP3   OH227994   5.957   7.713   2.956
 9350TIP3    H127995   5.912   7.697   3.039
 9350TIP3    H227996   6.013   7.789   2.974
 9351TIP3   OH227997   4.966   7.704   3.322
 9351TIP3    H127998   5.022   7.778   3.345
 9351TIP3    H227999   5.013   7.661   3.250
 9352TIP3   OH228000   7.910   0.531   3.449
 9352TIP3    H128001   7.868   0.590   3.386
 9352TIP3    H228002   7.836   0.489   3.494
 9353TIP3   OH228003   7.277   0.119   2.703
 9353TIP3    H128004   7.225   0.184   2.656
 9353TIP3    H228005   7.311   0.166   2.779
 9354TIP3   OH228006   6.158   7.661   3.285
 9354TIP3    H128007   6.074   7.690   3.250
 9354TIP3    H228008   6.222   7.689   3.219
 9355TIP3   OH228009   5.416   7.292   3.278
 9355TIP3    H128010   5.410   7.201   3.305
 9355TIP3    H228011   5.340   7.335   3.318
 9356TIP3   OH228012   0.038   0.538   2.497
 9356TIP3    H128013   0.063   0.473   2.431
 9356TIP3    H228014   0.084   0.510   2.576
 9357TIP3   OH228015   0.364   0.674   3.239
 9357TIP3    H128016   0.361   0.586   3.201
 9357TIP3    H228017   0.401   0.729   3.169
 9358TIP3   OH228018   8.186   0.048   2.533
 9358TIP3    H128019   8.105   0.097   2.516
 9358TIP3    H228020   8.232   0.049   2.449
 9359TIP3   OH228021   5.324   7.877   2.221
 9359TIP3    H128022   5.390   7.925   2.272
 9359TIP3    H228023   5.375   7.817   2.166
 9360TIP3   OH228024   0.571   0.300   3.112
 9360TIP3    H128025   0.489   0.349   3.117
 9360TIP3    H228026   0.605   0.319   3.025
 9361TIP3   OH228027   0.044   0.129   2.501
 9361TIP3    H128028  -0.010   0.156   2.576
 9361TIP3    H228029   0.129   0.106   2.540
 9362TIP3   OH228030   0.273   0.172   3.427
 9362TIP3    H128031   0.274   0.254   3.475
 9362TIP3    H228032   0.190   0.173   3.379
 9363TIP3   OH228033   7.794   0.130   2.878
 9363TIP3    H128034   7.757   0.065   2.819
 9363TIP3    H228035   7.865   0.084   2.923
 9364TIP3   OH228036   7.940   0.541   3.061
 9364TIP3    H128037   7.936   0.543   2.965
 9364TIP3    H228038   8.030   0.514   3.081
 9365TIP3   OH228039   7.882   0.113   3.266
 9365TIP3    H128040   7.917   0.078   3.184
 9365TIP3    H228041   7.929   0.195   3.280
 9366TIP3   OH228042   8.135   0.622   3.580
 9366TIP3    H128043   8.095   0.701   3.616
 9366TIP3    H228044   8.065   0.581   3.529
 9367TIP3   OH228045   8.376  -0.001   2.330
 9367TIP3    H128046   8.435   0.054   2.381
 9367TIP3    H228047   8.405   0.012   2.239
 9368TIP3   OH228048   7.807   0.198   3.729
 9368TIP3    H128049   7.811   0.287   3.765
 9368TIP3    H228050   7.715   0.175   3.732
 9369TIP3   OH228051   6.044   7.247   2.377
 9369TIP3    H128052   5.974   7.280   2.433
 9369TIP3    H228053   6.066   7.320   2.319
 9370TIP3   OH228054   4.834   7.972   2.697
 9370TIP3    H128055   4.766   8.018   2.647
 9370TIP3    H228056   4.790   7.893   2.729
 9371TIP3   OH228057   7.467   0.312   3.613
 9371TIP3    H128058   7.382   0.297   3.572
 9371TIP3    H228059   7.494   0.226   3.645
 9372TIP3   OH228060   0.526   0.137   3.592
 9372TIP3    H128061   0.443   0.146   3.546
 9372TIP3    H228062   0.544   0.043   3.590
 9373TIP3   OH228063   7.670   0.485   3.577
 9373TIP3    H128064   7.628   0.550   3.633
 9373TIP3    H228065   7.610   0.410   3.578
 9374TIP3   OH228066   5.180   7.385   3.404
 9374TIP3    H128067   5.096   7.352   3.373
 9374TIP3    H228068   5.160   7.465   3.452
 9375TIP3   OH228069   5.725   7.502   3.605
 9375TIP3    H128070   5.796   7.479   3.665
 9375TIP3    H228071   5.645   7.486   3.654
 9376TIP3   OH228072   5.944   7.924   3.518
 9376TIP3    H128073   5.904   7.920   3.604
 9376TIP3    H228074   5.930   8.014   3.489
 9377TIP3   OH228075   8.462   0.019   2.076
 9377TIP3    H128076   8.418  -0.001   1.993
 9377TIP3    H228077   8.539   0.069   2.050
 9378TIP3   OH228078   5.353   7.416   2.385
 9378TIP3    H128079   5.314   7.426   2.472
 9378TIP3    H228080   5.305   7.343   2.346
 9379TIP3   OH228081   5.123   7.910   3.416
 9379TIP3    H128082   5.078   7.919   3.500
 9379TIP3    H228083   5.101   7.990   3.368
 9380TIP3   OH228084   5.003   7.794   2.935
 9380TIP3    H128085   4.914   7.773   2.960
 9380TIP3    H228086   5.011   7.760   2.845
 9381TIP3   OH228087   5.485   7.863   2.664
 9381TIP3    H128088   5.436   7.934   2.624
 9381TIP3    H228089   5.545   7.834   2.596
 9382TIP3   OH228090   0.011   0.117   3.728
 9382TIP3    H128091  -0.017   0.052   3.793
 9382TIP3    H228092   0.103   0.134   3.749
 9383TIP3   OH228093   5.650   7.885   2.890
 9383TIP3    H128094   5.582   7.910   2.827
 9383TIP3    H228095   5.696   7.812   2.849
 9384TIP3   OH228096   4.955   7.925   3.633
 9384TIP3    H128097   4.975   7.989   3.701
 9384TIP3    H228098   4.938   7.844   3.681
 9385TIP3   OH228099   5.002   7.411   2.347
 9385TIP3    H128100   4.991   7.414   2.442
 9385TIP3    H228101   4.924   7.454   2.312
 9386TIP3   OH228102   4.543   7.454   3.216
 9386TIP3    H128103   4.614   7.489   3.270
 9386TIP3    H228104   4.584   7.438   3.131
 9387TIP3   OH228105   4.458   7.427   2.720
 9387TIP3    H128106   4.502   7.460   2.642
 9387TIP3    H228107   4.396   7.496   2.744
 9388TIP3   OH228108   0.013   0.123   3.315
 9388TIP3    H128109   0.043   0.060   3.250
 9388TIP3    H228110  -0.022   0.070   3.386
 9389TIP3   OH228111   5.360   7.589   2.988
 9389TIP3    H128112   5.281   7.589   3.042
 9389TIP3    H228113   5.432   7.580   3.049
 9390TIP3   OH228114   4.764   7.670   2.994
 9390TIP3    H128115   4.675   7.675   2.958
 9390TIP3    H228116   4.792   7.580   2.977
 9391TIP3   OH228117   5.014   7.668   2.691
 9391TIP3    H128118   5.107   7.684   2.678
 9391TIP3    H228119   4.974   7.689   2.606
 9392TIP3   OH228120   5.812   7.675   3.192
 9392TIP3    H128121   5.794   7.691   3.285
 9392TIP3    H228122   5.743   7.615   3.164
 9393TIP3   OH228123   4.895   7.693   2.446
 9393TIP3    H128124   4.830   7.646   2.393
 9393TIP3    H228125   4.951   7.736   2.382
 9394TIP3   OH228126   7.810   0.438   3.876
 9394TIP3    H128127   7.885   0.462   3.929
 9394TIP3    H228128   7.735   0.443   3.936
 9395TIP3   OH228129   5.417   7.950   3.092
 9395TIP3    H128130   5.485   7.901   3.047
 9395TIP3    H228131   5.414   7.911   3.180
 9396TIP3   OH228132   4.907   7.422   2.983
 9396TIP3    H128133   4.877   7.346   3.034
 9396TIP3    H228134   4.931   7.385   2.898
 9397TIP3   OH228135   5.389   7.857   3.358
 9397TIP3    H128136   5.302   7.887   3.383
 9397TIP3    H228137   5.448   7.907   3.413
 9398TIP3   OH228138   7.958   0.196   2.480
 9398TIP3    H128139   7.884   0.142   2.454
 9398TIP3    H228140   7.927   0.244   2.557
 9399TIP3   OH228141   0.336   0.443   3.084
 9399TIP3    H128142   0.371   0.488   3.007
 9399TIP3    H228143   0.256   0.401   3.053
 9400TIP3   OH228144   5.559   7.574   2.292
 9400TIP3    H128145   5.481   7.536   2.331
 9400TIP3    H228146   5.582   7.647   2.351
 9401TIP3   OH228147   8.391   0.553   3.498
 9401TIP3    H128148   8.433   0.532   3.581
 9401TIP3    H228149   8.304   0.583   3.523
 9402TIP3   OH228150   5.650   7.783   2.451
 9402TIP3    H128151   5.745   7.790   2.461
 9402TIP3    H228152   5.625   7.861   2.400
 9403TIP3   OH228153   7.641   0.123   3.110
 9403TIP3    H128154   7.679   0.141   3.024
 9403TIP3    H228155   7.714   0.133   3.171
 9404TIP3   OH228156   8.098   0.376   2.330
 9404TIP3    H128157   8.041   0.452   2.334
 9404TIP3    H228158   8.052   0.309   2.380
 9405TIP3   OH228159   7.545   0.103   3.772
 9405TIP3    H128160   7.546   0.084   3.866
 9405TIP3    H228161   7.468   0.056   3.739
 9406TIP3   OH228162   8.274   0.258   3.780
 9406TIP3    H128163   8.208   0.205   3.735
 9406TIP3    H228164   8.358   0.224   3.748
 9407TIP3   OH228165   6.056   7.882   2.266
 9407TIP3    H128166   5.999   7.834   2.206
 9407TIP3    H228167   6.062   7.969   2.228
 9408TIP3   OH228168   0.648   0.686   3.367
 9408TIP3    H128169   0.574   0.746   3.381
 9408TIP3    H228170   0.658   0.683   3.272
 9409TIP3   OH228171   0.109   0.308   2.982
 9409TIP3    H128172   0.021   0.287   3.010
 9409TIP3    H228173   0.144   0.226   2.948
 9410TIP3   OH228174   4.507   7.843   2.485
 9410TIP3    H128175   4.559   7.922   2.497
 9410TIP3    H228176   4.430   7.856   2.540
 9411TIP3   OH228177   7.858   0.327   2.699
 9411TIP3    H128178   7.809   0.404   2.728
 9411TIP3    H228179   7.839   0.261   2.766
 9412TIP3   OH228180   8.423   0.520   3.226
 9412TIP3    H128181   8.408   0.532   3.320
 9412TIP3    H228182   8.513   0.487   3.220
 9413TIP3   OH228183   8.421   0.372   2.074
 9413TIP3    H128184   8.468   0.358   2.156
 9413TIP3    H228185   8.329   0.375   2.098
 9414TIP3   OH228186   4.906   7.674   3.758
 9414TIP3    H128187   4.811   7.683   3.764
 9414TIP3    H228188   4.930   7.620   3.834
 9415TIP3   OH228189   0.061   0.324   2.308
 9415TIP3    H128190   0.049   0.256   2.373
 9415TIP3    H228191   0.156   0.324   2.291
 9416TIP3   OH228192   7.735   0.325   2.170
 9416TIP3    H128193   7.729   0.236   2.135
 9416TIP3    H228194   7.822   0.354   2.142
 9417TIP3   OH228195   7.475   0.069   2.534
 9417TIP3    H128196   7.405   0.088   2.596
 9417TIP3    H228197   7.488   0.152   2.487
 9418TIP3   OH228198   5.755   7.732   3.454
 9418TIP3    H128199   5.832   7.779   3.487
 9418TIP3    H228200   5.746   7.656   3.511
 9419TIP3   OH228201   5.641   7.496   2.637
 9419TIP3    H128202   5.608   7.536   2.557
 9419TIP3    H228203   5.690   7.566   2.680
 9420TIP3   OH228204   5.294   7.678   2.732
 9420TIP3    H128205   5.357   7.746   2.707
 9420TIP3    H228206   5.313   7.660   2.825
 9421TIP3   OH228207   5.595   7.967   3.512
 9421TIP3    H128208   5.623   8.011   3.592
 9421TIP3    H228209   5.645   7.885   3.510
 9422TIP3   OH228210   5.461   7.385   2.823
 9422TIP3    H128211   5.437   7.461   2.876
 9422TIP3    H228212   5.528   7.417   2.763
 9423TIP3   OH228213   4.972   7.397   2.626
 9423TIP3    H128214   4.959   7.488   2.655
 9423TIP3    H228215   5.066   7.383   2.633
 9424TIP3   OH228216   6.210   7.875   3.502
 9424TIP3    H128217   6.115   7.883   3.512
 9424TIP3    H228218   6.222   7.818   3.426
 9425TIP3   OH228219   0.205   0.059   2.892
 9425TIP3    H128220   0.128   0.003   2.904
 9425TIP3    H228221   0.272   0.019   2.947
 9426TIP3   OH228222   7.475   0.305   2.342
 9426TIP3    H128223   7.559   0.350   2.330
 9426TIP3    H228224   7.485   0.223   2.293
 9427TIP3   OH228225   4.522   7.567   2.494
 9427TIP3    H128226   4.536   7.661   2.502
 9427TIP3    H228227   4.466   7.558   2.417
 9428TIP3   OH228228   4.918   7.299   3.367
 9428TIP3    H128229   4.889   7.265   3.282
 9428TIP3    H228230   4.909   7.224   3.426
 9429TIP3   OH228231   7.592   0.391   4.049
 9429TIP3    H128232   7.635   0.305   4.046
 9429TIP3    H228233   7.525   0.386   3.981
 9430TIP3   OH228234   7.558   0.065   2.239
 9430TIP3    H128235   7.609   0.041   2.317
 9430TIP3    H228236   7.622   0.065   2.168
 9431TIP3   OH228237   8.202   0.525   3.827
 9431TIP3    H128238   8.185   0.554   3.738
 9431TIP3    H228239   8.238   0.437   3.817
 9432TIP3   OH228240   8.003   0.295   2.077
 9432TIP3    H128241   8.055   0.312   2.155
 9432TIP3    H228242   8.033   0.209   2.047
 9433TIP3   OH228243   0.170   0.568   3.406
 9433TIP3    H128244   0.229   0.624   3.355
 9433TIP3    H228245   0.090   0.620   3.416
 9434TIP3   OH228246   7.736   0.157   4.026
 9434TIP3    H128247   7.813   0.143   3.970
 9434TIP3    H228248   7.773   0.190   4.108
 9435TIP3   OH228249   4.927   8.024   2.428
 9435TIP3    H128250   4.906   7.986   2.513
 9435TIP3    H228251   4.972   7.954   2.381
 9436TIP3   OH228252   8.053   0.083   3.676
 9436TIP3    H128253   7.972   0.133   3.684
 9436TIP3    H228254   8.094   0.115   3.596
 9437TIP3   OH228255   5.055   7.833   2.274
 9437TIP3    H128256   5.026   7.831   2.183
 9437TIP3    H228257   5.150   7.846   2.268
 9438TIP3   OH228258   0.052   0.466   3.770
 9438TIP3    H128259   0.131   0.440   3.724
 9438TIP3    H228260   0.045   0.405   3.843
 9439TIP3   OH228261   0.179   0.140   1.950
 9439TIP3    H128262   0.157   0.090   1.871
 9439TIP3    H228263   0.163   0.231   1.925
 9440TIP3   OH228264   5.329   7.878   3.793
 9440TIP3    H128265   5.334   7.806   3.730
 9440TIP3    H228266   5.293   7.951   3.743
 9441TIP3   OH228267   5.337   7.682   3.587
 9441TIP3    H128268   5.364   7.720   3.503
 9441TIP3    H228269   5.246   7.657   3.573
 9442TIP3   OH228270   8.203   0.184   3.476
 9442TIP3    H128271   8.294   0.199   3.451
 9442TIP3    H228272   8.151   0.237   3.415
 9443TIP3   OH228273   0.276   0.149   3.836
 9443TIP3    H128274   0.325   0.067   3.846
 9443TIP3    H228275   0.343   0.216   3.827
 9444TIP3   OH228276   0.304   0.407   3.572
 9444TIP3    H128277   0.248   0.464   3.520
 9444TIP3    H228278   0.392   0.419   3.535
 9445TIP3   OH228279   5.204   7.973   4.027
 9445TIP3    H128280   5.140   7.906   4.048
 9445TIP3    H228281   5.238   7.948   3.942
 9446TIP3   OH228282   5.459   7.450   3.685
 9446TIP3    H128283   5.418   7.530   3.653
 9446TIP3    H228284   5.392   7.383   3.672
 9447TIP3   OH228285   5.587   7.928   3.888
 9447TIP3    H128286   5.580   7.918   3.983
 9447TIP3    H228287   5.500   7.905   3.855
 9448TIP3   OH228288   5.827   7.870   3.754
 9448TIP3    H128289   5.750   7.875   3.811
 9448TIP3    H228290   5.899   7.851   3.814
 9449TIP3   OH228291   6.059   7.841   3.907
 9449TIP3    H128292   6.076   7.747   3.915
 9449TIP3    H228293   6.056   7.873   3.998
 9450TIP3   OH228294   5.045   7.751   4.093
 9450TIP3    H128295   5.052   7.662   4.057
 9450TIP3    H228296   5.083   7.744   4.181
 9451TIP3   OH228297   5.527   7.433   3.950
 9451TIP3    H128298   5.596   7.368   3.945
 9451TIP3    H228299   5.496   7.443   3.860
 9452TIP3   OH228300   5.616   7.649   4.097
 9452TIP3    H128301   5.588   7.577   4.041
 9452TIP3    H228302   5.543   7.711   4.095
 9453TIP3   OH228303   7.175   0.220   2.384
 9453TIP3    H128304   7.269   0.240   2.384
 9453TIP3    H228305   7.169   0.133   2.346
 9454TIP3   OH228306   0.531   0.838   3.627
 9454TIP3    H128307   0.449   0.841   3.676
 9454TIP3    H228308   0.572   0.923   3.645
 9455TIP3   OH228309   0.334   0.316   2.294
 9455TIP3    H128310   0.396   0.377   2.255
 9455TIP3    H228311   0.381   0.278   2.369
 9456TIP3   OH228312   0.468   0.185   2.493
 9456TIP3    H128313   0.401   0.143   2.548
 9456TIP3    H228314   0.532   0.218   2.556
 9457TIP3   OH228315   0.498   0.572   2.899
 9457TIP3    H128316   0.560   0.505   2.871
 9457TIP3    H228317   0.489   0.630   2.824
 9458TIP3   OH228318   0.384   0.105   2.127
 9458TIP3    H128319   0.315   0.106   2.061
 9458TIP3    H228320   0.363   0.178   2.185
 9459TIP3   OH228321   5.897   7.770   2.077
 9459TIP3    H128322   5.850   7.801   2.000
 9459TIP3    H228323   5.887   7.675   2.074
 9460TIP3   OH228324   0.275   0.043   2.627
 9460TIP3    H128325   0.282  -0.052   2.614
 9460TIP3    H228326   0.257   0.053   2.720
 9461TIP3   OH228327   7.399   0.106   3.382
 9461TIP3    H128328   7.386   0.060   3.299
 9461TIP3    H228329   7.492   0.095   3.401
 9462TIP3   OH228330   0.549   0.451   3.462
 9462TIP3    H128331   0.621   0.389   3.453
 9462TIP3    H228332   0.579   0.529   3.415
 9463TIP3   OH228333   0.741   0.259   3.474
 9463TIP3    H128334   0.667   0.218   3.520
 9463TIP3    H228335   0.816   0.203   3.494
 9464TIP3   OH228336   5.861   7.500   2.066
 9464TIP3    H128337   5.938   7.471   2.115
 9464TIP3    H228338   5.795   7.433   2.083
 9465TIP3   OH228339   5.936   7.788   2.506
 9465TIP3    H128340   5.982   7.705   2.517
 9465TIP3    H228341   5.976   7.828   2.429
 9466TIP3   OH228342   6.085   7.950   3.026
 9466TIP3    H128343   6.165   7.970   2.979
 9466TIP3    H228344   6.099   7.987   3.114
 9467TIP3   OH228345   0.489   0.080   3.256
 9467TIP3    H128346   0.417   0.111   3.311
 9467TIP3    H228347   0.519   0.158   3.209
 9468TIP3   OH228348   4.781   7.802   4.034
 9468TIP3    H128349   4.875   7.801   4.050
 9468TIP3    H228350   4.748   7.720   4.071
 9469TIP3   OH228351   6.620   7.698   3.790
 9469TIP3    H128352   6.685   7.640   3.751
 9469TIP3    H228353   6.586   7.749   3.716
 9470TIP3   OH228354   6.047   7.538   2.556
 9470TIP3    H128355   6.095   7.523   2.637
 9470TIP3    H228356   5.983   7.467   2.551
 9471TIP3   OH228357   4.752   7.521   3.390
 9471TIP3    H128358   4.807   7.443   3.394
 9471TIP3    H228359   4.813   7.592   3.370
 9472TIP3   OH228360   4.538   7.785   3.446
 9472TIP3    H128361   4.587   7.774   3.365
 9472TIP3    H228362   4.586   7.850   3.495
 9473TIP3   OH228363   6.472   7.816   3.594
 9473TIP3    H128364   6.389   7.856   3.620
 9473TIP3    H228365   6.446   7.739   3.543
 9474TIP3   OH228366   6.102   7.449   2.200
 9474TIP3    H128367   6.150   7.391   2.141
 9474TIP3    H228368   6.155   7.529   2.203
 9475TIP3   OH228369   4.525   7.292   2.947
 9475TIP3    H128370   4.438   7.281   2.987
 9475TIP3    H228371   4.509   7.347   2.871
 9476TIP3   OH228372   4.749   7.361   3.773
 9476TIP3    H128373   4.696   7.348   3.852
 9476TIP3    H228374   4.690   7.406   3.712
 9477TIP3   OH228375   6.384   7.568   3.490
 9477TIP3    H128376   6.296   7.557   3.453
 9477TIP3    H228377   6.424   7.482   3.484
 9478TIP3   OH228378   5.587   7.496   3.124
 9478TIP3    H128379   5.548   7.425   3.176
 9478TIP3    H228380   5.654   7.454   3.072
 9479TIP3   OH228381   6.092   7.400   3.004
 9479TIP3    H128382   6.136   7.449   2.935
 9479TIP3    H228383   6.008   7.445   3.015
 9480TIP3   OH228384   6.209   7.485   2.772
 9480TIP3    H128385   6.278   7.424   2.747
 9480TIP3    H228386   6.247   7.572   2.760
 9481TIP3   OH228387   4.832   7.195   3.125
 9481TIP3    H128388   4.742   7.162   3.133
 9481TIP3    H228389   4.885   7.116   3.118
 9482TIP3   OH228390   4.640   7.098   2.773
 9482TIP3    H128391   4.669   7.150   2.698
 9482TIP3    H228392   4.607   7.163   2.836
 9483TIP3   OH228393   5.311   7.236   3.016
 9483TIP3    H128394   5.357   7.290   2.952
 9483TIP3    H228395   5.347   7.263   3.101
 9484TIP3   OH228396   5.796   7.376   2.992
 9484TIP3    H128397   5.834   7.344   2.910
 9484TIP3    H228398   5.804   7.303   3.052
 9485TIP3   OH228399   5.853   7.331   2.556
 9485TIP3    H128400   5.777   7.384   2.582
 9485TIP3    H228401   5.841   7.248   2.602
 9486TIP3   OH228402   4.754   7.235   2.543
 9486TIP3    H128403   4.799   7.174   2.485
 9486TIP3    H228404   4.824   7.292   2.576
 9487TIP3   OH228405   5.247   7.425   2.641
 9487TIP3    H128406   5.307   7.378   2.699
 9487TIP3    H228407   5.257   7.517   2.666
 9488TIP3   OH228408   5.057   7.480   4.007
 9488TIP3    H128409   5.022   7.413   4.066
 9488TIP3    H228410   5.149   7.487   4.031
 9489TIP3   OH228411   5.306   7.485   4.127
 9489TIP3    H128412   5.384   7.463   4.077
 9489TIP3    H228413   5.300   7.416   4.193
 9490TIP3   OH228414   6.129   7.572   3.919
 9490TIP3    H128415   6.146   7.543   4.008
 9490TIP3    H228416   6.215   7.568   3.875
 9491TIP3   OH228417   0.956   0.338   2.929
 9491TIP3    H128418   0.985   0.264   2.983
 9491TIP3    H228419   0.995   0.415   2.969
 9492TIP3   OH228420   6.286   7.984   2.396
 9492TIP3    H128421   6.242   8.063   2.428
 9492TIP3    H228422   6.216   7.933   2.356
 9493TIP3   OH228423   0.699   0.258   2.626
 9493TIP3    H128424   0.743   0.180   2.658
 9493TIP3    H228425   0.756   0.292   2.557
 9494TIP3   OH228426   6.845   7.872   2.588
 9494TIP3    H128427   6.832   7.943   2.525
 9494TIP3    H228428   6.795   7.798   2.552
 9495TIP3   OH228429   0.836   0.039   2.712
 9495TIP3    H128430   0.920   0.025   2.756
 9495TIP3    H228431   0.841  -0.014   2.633
 9496TIP3   OH228432   6.845   7.841   3.050
 9496TIP3    H128433   6.795   7.878   2.978
 9496TIP3    H228434   6.793   7.861   3.128
 9497TIP3   OH228435   6.741   7.963   2.824
 9497TIP3    H128436   6.803   8.031   2.851
 9497TIP3    H228437   6.780   7.925   2.745
 9498TIP3   OH228438   0.522   0.467   2.165
 9498TIP3    H128439   0.512   0.455   2.071
 9498TIP3    H228440   0.545   0.559   2.176
 9499TIP3   OH228441   7.194   7.537   2.789
 9499TIP3    H128442   7.184   7.445   2.814
 9499TIP3    H228443   7.117   7.580   2.825
 9500TIP3   OH228444   1.051   0.481   3.146
 9500TIP3    H128445   1.095   0.516   3.223
 9500TIP3    H228446   0.964   0.456   3.177
 9501TIP3   OH228447   0.919   0.162   2.153
 9501TIP3    H128448   0.920   0.257   2.164
 9501TIP3    H228449   0.831   0.136   2.181
 9502TIP3   OH228450   0.690   0.626   3.107
 9502TIP3    H128451   0.638   0.598   3.032
 9502TIP3    H228452   0.741   0.549   3.131
 9503TIP3   OH228453   6.958   7.636   2.903
 9503TIP3    H128454   6.875   7.605   2.865
 9503TIP3    H228455   6.933   7.713   2.954
 9504TIP3   OH228456   7.500   7.689   3.121
 9504TIP3    H128457   7.527   7.780   3.125
 9504TIP3    H228458   7.405   7.691   3.136
 9505TIP3   OH228459   1.256   0.135   2.922
 9505TIP3    H128460   1.200   0.154   2.998
 9505TIP3    H228461   1.271   0.220   2.881
 9506TIP3   OH228462   1.091   0.038   2.399
 9506TIP3    H128463   1.007  -0.002   2.420
 9506TIP3    H228464   1.084   0.062   2.306
 9507TIP3   OH228465   1.080   0.174   3.129
 9507TIP3    H128466   1.079   0.249   3.187
 9507TIP3    H228467   1.065   0.098   3.186
 9508TIP3   OH228468   6.757   7.569   1.856
 9508TIP3    H128469   6.743   7.624   1.933
 9508TIP3    H228470   6.749   7.629   1.782
 9509TIP3   OH228471   6.337   7.710   2.699
 9509TIP3    H128472   6.405   7.745   2.757
 9509TIP3    H228473   6.382   7.689   2.618
 9510TIP3   OH228474   6.249   7.686   2.213
 9510TIP3    H128475   6.290   7.716   2.133
 9510TIP3    H228476   6.185   7.753   2.235
 9511TIP3   OH228477   7.098   7.774   2.524
 9511TIP3    H128478   7.013   7.811   2.548
 9511TIP3    H228479   7.158   7.808   2.590
 9512TIP3   OH228480   6.537   7.910   2.481
 9512TIP3    H128481   6.451   7.916   2.441
 9512TIP3    H228482   6.567   7.822   2.459
 9513TIP3   OH228483   6.641   7.917   2.009
 9513TIP3    H128484   6.598   7.901   1.925
 9513TIP3    H228485   6.627   8.010   2.025
 9514TIP3   OH228486   6.693   7.674   2.463
 9514TIP3    H128487   6.670   7.594   2.510
 9514TIP3    H228488   6.729   7.643   2.380
 9515TIP3   OH228489   0.802   0.395   3.229
 9515TIP3    H128490   0.820   0.366   3.318
 9515TIP3    H228491   0.724   0.347   3.203
 9516TIP3   OH228492   0.625   0.099   1.997
 9516TIP3    H128493   0.645   0.192   1.985
 9516TIP3    H228494   0.544   0.098   2.047
 9517TIP3   OH228495   6.695   7.929   3.262
 9517TIP3    H128496   6.600   7.941   3.266
 9517TIP3    H228497   6.714   7.862   3.328
 9518TIP3   OH228498   6.717   7.675   2.114
 9518TIP3    H128499   6.698   7.767   2.092
 9518TIP3    H228500   6.811   7.674   2.134
 9519TIP3   OH228501   6.300   7.829   1.989
 9519TIP3    H128502   6.325   7.921   2.003
 9519TIP3    H228503   6.262   7.828   1.901
 9520TIP3   OH228504   6.697   7.554   2.854
 9520TIP3    H128505   6.673   7.520   2.768
 9520TIP3    H228506   6.692   7.478   2.912
 9521TIP3   OH228507   0.909   0.688   3.451
 9521TIP3    H128508   0.943   0.601   3.431
 9521TIP3    H228509   0.818   0.687   3.420
 9522TIP3   OH228510   1.026   0.422   3.427
 9522TIP3    H128511   1.107   0.372   3.435
 9522TIP3    H228512   1.000   0.442   3.517
 9523TIP3   OH228513   1.404   0.149   3.278
 9523TIP3    H128514   1.468   0.092   3.320
 9523TIP3    H228515   1.386   0.105   3.194
 9524TIP3   OH228516   7.090   7.954   3.075
 9524TIP3    H128517   7.086   8.011   2.998
 9524TIP3    H228518   7.005   7.909   3.075
 9525TIP3   OH228519   1.247   0.266   3.468
 9525TIP3    H128520   1.223   0.186   3.514
 9525TIP3    H228521   1.307   0.237   3.399
 9526TIP3   OH228522   7.233   7.718   3.158
 9526TIP3    H128523   7.182   7.795   3.131
 9526TIP3    H228524   7.169   7.647   3.163
 9527TIP3   OH228525   6.840   8.018   3.556
 9527TIP3    H128526   6.850   7.941   3.499
 9527TIP3    H228527   6.872   7.988   3.641
 9528TIP3   OH228528   7.342   7.857   3.525
 9528TIP3    H128529   7.342   7.829   3.434
 9528TIP3    H228530   7.305   7.945   3.524
 9529TIP3   OH228531   0.497   0.448   1.893
 9529TIP3    H128532   0.481   0.519   1.831
 9529TIP3    H228533   0.479   0.368   1.844
 9530TIP3   OH228534   0.689   0.377   2.872
 9530TIP3    H128535   0.681   0.337   2.785
 9530TIP3    H228536   0.783   0.372   2.891
 9531TIP3   OH228537   0.905   0.047   3.520
 9531TIP3    H128538   1.000   0.047   3.530
 9531TIP3    H228539   0.876  -0.035   3.560
 9532TIP3   OH228540   6.534   7.777   2.886
 9532TIP3    H128541   6.588   7.697   2.886
 9532TIP3    H228542   6.596   7.848   2.869
 9533TIP3   OH228543   0.659   0.029   2.930
 9533TIP3    H128544   0.710   0.020   2.850
 9533TIP3    H228545   0.704   0.097   2.980
 9534TIP3   OH228546   6.321   7.552   2.438
 9534TIP3    H128547   6.233   7.542   2.476
 9534TIP3    H228548   6.307   7.605   2.360
 9535TIP3   OH228549   6.546   7.630   3.265
 9535TIP3    H128550   6.493   7.614   3.343
 9535TIP3    H228551   6.485   7.669   3.203
 9536TIP3   OH228552   6.624   7.446   2.610
 9536TIP3    H128553   6.535   7.412   2.617
 9536TIP3    H228554   6.679   7.369   2.603
 9537TIP3   OH228555   6.446   7.354   2.276
 9537TIP3    H128556   6.467   7.398   2.193
 9537TIP3    H228557   6.411   7.423   2.332
 9538TIP3   OH228558   7.088   7.492   2.528
 9538TIP3    H128559   7.085   7.577   2.485
 9538TIP3    H228560   7.134   7.509   2.611
 9539TIP3   OH228561   6.531   7.484   2.041
 9539TIP3    H128562   6.583   7.433   1.978
 9539TIP3    H228563   6.592   7.549   2.075
 9540TIP3   OH228564   6.986   7.643   2.167
 9540TIP3    H128565   7.022   7.555   2.162
 9540TIP3    H228566   7.062   7.700   2.182
 9541TIP3   OH228567   6.849   7.734   3.479
 9541TIP3    H128568   6.810   7.673   3.541
 9541TIP3    H228569   6.942   7.737   3.504
 9542TIP3   OH228570   7.104   7.724   3.591
 9542TIP3    H128571   7.188   7.766   3.571
 9542TIP3    H228572   7.128   7.634   3.616
 9543TIP3   OH228573   5.104   4.894   0.609
 9543TIP3    H128574   5.084   4.877   0.701
 9543TIP3    H228575   5.171   4.963   0.612
 9544TIP3   OH228576   4.743   5.392   0.647
 9544TIP3    H128577   4.787   5.318   0.605
 9544TIP3    H228578   4.711   5.357   0.730
 9545TIP3   OH228579   4.773   4.813   0.262
 9545TIP3    H128580   4.734   4.834   0.347
 9545TIP3    H228581   4.812   4.896   0.232
 9546TIP3   OH228582   4.886   5.241   0.464
 9546TIP3    H128583   4.922   5.164   0.421
 9546TIP3    H228584   4.898   5.312   0.400
 9547TIP3   OH228585   4.988   4.992   0.374
 9547TIP3    H128586   5.026   4.967   0.290
 9547TIP3    H228587   5.058   4.974   0.438
 9548TIP3   OH228588   5.010   4.549   0.395
 9548TIP3    H128589   4.961   4.593   0.464
 9548TIP3    H228590   5.100   4.545   0.429
 9549TIP3   OH228591   4.617   5.115   0.473
 9549TIP3    H128592   4.641   5.203   0.445
 9549TIP3    H228593   4.522   5.109   0.456
 9550TIP3   OH228594   2.386   1.047   6.676
 9550TIP3    H128595   2.386   1.139   6.652
 9550TIP3    H228596   2.477   1.019   6.665
 9551TIP3   OH228597   4.596   5.413   0.109
 9551TIP3    H128598   4.533   5.404   0.038
 9551TIP3    H228599   4.547   5.457   0.179
 9552TIP3   OH228600   1.884   1.248   6.767
 9552TIP3    H128601   1.933   1.176   6.727
 9552TIP3    H228602   1.935   1.272   6.844
 9553TIP3   OH228603   4.855   5.321   0.055
 9553TIP3    H128604   4.774   5.340   0.103
 9553TIP3    H228605   4.922   5.314   0.123
 9554TIP3   OH228606   2.169   0.375   6.839
 9554TIP3    H128607   2.116   0.368   6.760
 9554TIP3    H228608   2.222   0.454   6.825
 9555TIP3   OH228609   4.672   4.834  -0.027
 9555TIP3    H128610   4.702   4.906   0.029
 9555TIP3    H228611   4.670   4.758   0.030
 9556TIP3   OH228612   2.670   0.288   6.894
 9556TIP3    H128613   2.588   0.241   6.882
 9556TIP3    H228614   2.646   0.380   6.892
 9557TIP3   OH228615   2.300   1.078   6.937
 9557TIP3    H128616   2.273   0.994   6.972
 9557TIP3    H228617   2.324   1.059   6.846
 9558TIP3   OH228618   2.097   0.846   6.820
 9558TIP3    H128619   2.142   0.852   6.904
 9558TIP3    H228620   2.006   0.827   6.842
 9559TIP3   OH228621   2.400   1.316   6.633
 9559TIP3    H128622   2.458   1.384   6.598
 9559TIP3    H228623   2.322   1.363   6.663
 9560TIP3   OH228624   5.074   4.837   0.113
 9560TIP3    H128625   5.019   4.760   0.125
 9560TIP3    H228626   5.159   4.801   0.089
 9561TIP3   OH228627   4.346   5.101   0.071
 9561TIP3    H128628   4.330   5.143   0.155
 9561TIP3    H228629   4.351   5.173   0.008
 9562TIP3   OH228630   5.152   5.514   0.710
 9562TIP3    H128631   5.164   5.552   0.624
 9562TIP3    H228632   5.214   5.440   0.712
 9563TIP3   OH228633   1.592   1.019   6.741
 9563TIP3    H128634   1.588   1.018   6.836
 9563TIP3    H228635   1.670   0.970   6.719
 9564TIP3   OH228636   2.032   1.053   6.652
 9564TIP3    H128637   2.080   0.994   6.710
 9564TIP3    H228638   2.087   1.058   6.573
 9565TIP3   OH228639   2.348   0.555   6.712
 9565TIP3    H128640   2.337   0.510   6.628
 9565TIP3    H228641   2.329   0.646   6.693
 9566TIP3   OH228642   1.326   1.278   6.872
 9566TIP3    H128643   1.400   1.337   6.886
 9566TIP3    H228644   1.250   1.335   6.871
 9567TIP3   OH228645   5.449   5.601   0.674
 9567TIP3    H128646   5.518   5.640   0.726
 9567TIP3    H228647   5.460   5.640   0.587
 9568TIP3   OH228648   5.339   4.814   0.042
 9568TIP3    H128649   5.404   4.873   0.004
 9568TIP3    H228650   5.381   4.779   0.120
 9569TIP3   OH228651   5.453   4.738   0.267
 9569TIP3    H128652   5.371   4.731   0.317
 9569TIP3    H228653   5.516   4.773   0.329
 9570TIP3   OH228654   5.443   4.981   0.783
 9570TIP3    H128655   5.474   4.894   0.759
 9570TIP3    H228656   5.378   5.003   0.716
 9571TIP3   OH228657   2.568   0.551   6.880
 9571TIP3    H128658   2.494   0.533   6.821
 9571TIP3    H228659   2.545   0.634   6.922
 9572TIP3   OH228660   2.407   0.219   6.817
 9572TIP3    H128661   2.338   0.279   6.845
 9572TIP3    H228662   2.364   0.160   6.754
 9573TIP3   OH228663   5.258   4.463   0.473
 9573TIP3    H128664   5.336   4.407   0.471
 9573TIP3    H228665   5.246   4.483   0.566
 9574TIP3   OH228666   5.093   5.521   0.197
 9574TIP3    H128667   5.131   5.455   0.139
 9574TIP3    H228668   5.148   5.519   0.275
 9575TIP3   OH228669   1.620   1.298   6.832
 9575TIP3    H128670   1.710   1.280   6.806
 9575TIP3    H228671   1.567   1.261   6.762
 9576TIP3   OH228672   2.363   1.351   6.936
 9576TIP3    H128673   2.338   1.260   6.947
 9576TIP3    H228674   2.303   1.385   6.869
 9577TIP3   OH228675   3.817   0.903   6.949
 9577TIP3    H128676   3.796   0.991   6.920
 9577TIP3    H228677   3.751   0.847   6.908
 9578TIP3   OH228678   6.668   4.896   0.341
 9578TIP3    H128679   6.613   4.868   0.414
 9578TIP3    H228680   6.641   4.840   0.268
 9579TIP3   OH228681   5.886   4.821   0.794
 9579TIP3    H128682   5.840   4.844   0.874
 9579TIP3    H228683   5.966   4.777   0.823
 9580TIP3   OH228684   6.935   5.227   0.048
 9580TIP3    H128685   6.933   5.155   0.111
 9580TIP3    H228686   6.955   5.305   0.100
 9581TIP3   OH228687   6.041   5.242   0.467
 9581TIP3    H128688   6.025   5.161   0.419
 9581TIP3    H228689   6.121   5.277   0.428
 9582TIP3   OH228690   5.645   4.300   0.246
 9582TIP3    H128691   5.570   4.358   0.235
 9582TIP3    H228692   5.607   4.212   0.245
 9583TIP3   OH228693   5.666   4.778   0.427
 9583TIP3    H128694   5.655   4.683   0.420
 9583TIP3    H228695   5.718   4.801   0.351
 9584TIP3   OH228696   6.590   5.670   0.079
 9584TIP3    H128697   6.613   5.585   0.043
 9584TIP3    H228698   6.557   5.651   0.167
 9585TIP3   OH228699   6.449   5.102   0.334
 9585TIP3    H128700   6.489   5.028   0.288
 9585TIP3    H228701   6.523   5.150   0.371
 9586TIP3   OH228702   6.930   4.554   0.439
 9586TIP3    H128703   6.950   4.461   0.425
 9586TIP3    H228704   6.886   4.582   0.359
 9587TIP3   OH228705   6.208   4.261   0.314
 9587TIP3    H128706   6.179   4.325   0.249
 9587TIP3    H228707   6.194   4.177   0.272
 9588TIP3   OH228708   6.919   4.383   0.106
 9588TIP3    H128709   7.014   4.380   0.116
 9588TIP3    H228710   6.904   4.374   0.012
 9589TIP3   OH228711   5.873   4.341   0.498
 9589TIP3    H128712   5.879   4.387   0.582
 9589TIP3    H228713   5.877   4.411   0.433
 9590TIP3   OH228714   6.311   4.656   0.134
 9590TIP3    H128715   6.391   4.648   0.186
 9590TIP3    H228716   6.258   4.580   0.160
 9591TIP3   OH228717   7.549   4.683   0.533
 9591TIP3    H128718   7.467   4.732   0.535
 9591TIP3    H228719   7.596   4.711   0.612
 9592TIP3   OH228720   3.735   1.123   6.795
 9592TIP3    H128721   3.696   1.098   6.711
 9592TIP3    H228722   3.681   1.196   6.826
 9593TIP3   OH228723   6.351   5.040   0.585
 9593TIP3    H128724   6.346   5.119   0.639
 9593TIP3    H228725   6.368   5.072   0.497
 9594TIP3   OH228726   6.049   4.406   0.725
 9594TIP3    H128727   6.115   4.472   0.747
 9594TIP3    H228728   6.099   4.333   0.690
 9595TIP3   OH228729   6.233   5.185   0.802
 9595TIP3    H128730   6.220   5.268   0.756
 9595TIP3    H228731   6.194   5.199   0.888
 9596TIP3   OH228732   2.709   0.972   6.913
 9596TIP3    H128733   2.681   0.990   6.824
 9596TIP3    H228734   2.740   1.056   6.946
 9597TIP3   OH228735   6.976   5.460   0.196
 9597TIP3    H128736   6.893   5.450   0.243
 9597TIP3    H228737   6.969   5.546   0.154
 9598TIP3   OH228738   3.840   1.479   6.816
 9598TIP3    H128739   3.894   1.402   6.798
 9598TIP3    H228740   3.896   1.554   6.795
 9599TIP3   OH228741   3.980   1.254   6.747
 9599TIP3    H128742   3.905   1.194   6.757
 9599TIP3    H228743   4.034   1.238   6.824
 9600TIP3   OH228744   7.188   5.372   0.530
 9600TIP3    H128745   7.180   5.291   0.480
 9600TIP3    H228746   7.177   5.442   0.465
 9601TIP3   OH228747   3.663   0.751   6.777
 9601TIP3    H128748   3.579   0.792   6.757
 9601TIP3    H228749   3.709   0.749   6.693
 9602TIP3   OH228750   3.621   0.556   6.480
 9602TIP3    H128751   3.688   0.603   6.530
 9602TIP3    H228752   3.671   0.489   6.433
 9603TIP3   OH228753   7.407   5.044   0.387
 9603TIP3    H128754   7.317   5.076   0.388
 9603TIP3    H228755   7.434   5.052   0.295
 9604TIP3   OH228756   4.001   0.844   6.749
 9604TIP3    H128757   3.948   0.869   6.825
 9604TIP3    H228758   4.087   0.824   6.786
 9605TIP3   OH228759   7.087   4.964   0.691
 9605TIP3    H128760   7.085   4.993   0.782
 9605TIP3    H228761   6.995   4.944   0.671
 9606TIP3   OH228762   6.100   4.826   0.133
 9606TIP3    H128763   6.050   4.770   0.075
 9606TIP3    H228764   6.182   4.780   0.147
 9607TIP3   OH228765   6.241   5.273   0.284
 9607TIP3    H128766   6.190   5.238   0.212
 9607TIP3    H228767   6.315   5.213   0.293
 9608TIP3   OH228768   6.171   4.864   0.663
 9608TIP3    H128769   6.147   4.827   0.578
 9608TIP3    H228770   6.241   4.927   0.643
 9609TIP3   OH228771   6.734   5.451   0.320
 9609TIP3    H128772   6.708   5.526   0.374
 9609TIP3    H228773   6.675   5.380   0.347
 9610TIP3   OH228774   6.415   5.383   0.928
 9610TIP3    H128775   6.320   5.394   0.941
 9610TIP3    H228776   6.421   5.323   0.854
 9611TIP3   OH228777   3.849   0.696   6.573
 9611TIP3    H128778   3.903   0.760   6.620
 9611TIP3    H228779   3.878   0.702   6.482
 9612TIP3   OH228780   3.594   1.360   6.842
 9612TIP3    H128781   3.676   1.409   6.840
 9612TIP3    H228782   3.532   1.414   6.792
 9613TIP3   OH228783   6.163   5.482   0.982
 9613TIP3    H128784   6.127   5.569   0.997
 9613TIP3    H228785   6.087   5.424   0.980
 9614TIP3   OH228786   3.102   0.664   6.918
 9614TIP3    H128787   3.033   0.717   6.877
 9614TIP3    H228788   3.054   0.600   6.971
 9615TIP3   OH228789   4.182   1.303   6.196
 9615TIP3    H128790   4.174   1.396   6.174
 9615TIP3    H228791   4.271   1.280   6.171
 9616TIP3   OH228792   5.536   5.195   0.550
 9616TIP3    H128793   5.575   5.108   0.564
 9616TIP3    H228794   5.597   5.255   0.592
 9617TIP3   OH228795   7.439   5.733   0.542
 9617TIP3    H128796   7.443   5.637   0.546
 9617TIP3    H228797   7.353   5.755   0.578
 9618TIP3   OH228798   6.520   5.545   0.734
 9618TIP3    H128799   6.463   5.622   0.732
 9618TIP3    H228800   6.498   5.500   0.815
 9619TIP3   OH228801   3.484   1.598   6.658
 9619TIP3    H128802   3.432   1.581   6.579
 9619TIP3    H228803   3.452   1.682   6.691
 9620TIP3   OH228804   5.740   5.465   0.089
 9620TIP3    H128805   5.794   5.452   0.167
 9620TIP3    H228806   5.696   5.382   0.076
 9621TIP3   OH228807   3.688   1.527   6.285
 9621TIP3    H128808   3.738   1.453   6.249
 9621TIP3    H228809   3.720   1.538   6.374
 9622TIP3   OH228810   3.737   1.567   6.556
 9622TIP3    H128811   3.649   1.572   6.595
 9622TIP3    H228812   3.792   1.529   6.624
 9623TIP3   OH228813   7.354   4.872   0.908
 9623TIP3    H128814   7.346   4.881   0.813
 9623TIP3    H228815   7.295   4.799   0.930
 9624TIP3   OH228816   7.194   4.671   0.981
 9624TIP3    H128817   7.111   4.701   1.019
 9624TIP3    H228818   7.174   4.652   0.890
 9625TIP3   OH228819   3.930   0.682   6.312
 9625TIP3    H128820   3.881   0.687   6.230
 9625TIP3    H228821   4.008   0.735   6.296
 9626TIP3   OH228822   6.239   4.603   0.730
 9626TIP3    H128823   6.333   4.599   0.744
 9626TIP3    H228824   6.223   4.691   0.697
 9627TIP3   OH228825   6.095   4.468   0.166
 9627TIP3    H128826   6.020   4.410   0.183
 9627TIP3    H228827   6.132   4.435   0.084
 9628TIP3   OH228828   3.793   0.556   6.920
 9628TIP3    H128829   3.736   0.623   6.881
 9628TIP3    H228830   3.853   0.532   6.848
 9629TIP3   OH228831   6.791   4.600   0.202
 9629TIP3    H128832   6.731   4.626   0.132
 9629TIP3    H228833   6.827   4.516   0.173
 9630TIP3   OH228834   2.910   0.131   6.963
 9630TIP3    H128835   2.901   0.117   6.868
 9630TIP3    H228836   2.837   0.187   6.986
 9631TIP3   OH228837   6.835   4.872   0.687
 9631TIP3    H128838   6.812   4.809   0.618
 9631TIP3    H228839   6.751   4.911   0.712
 9632TIP3   OH228840   5.912   4.275   0.208
 9632TIP3    H128841   5.823   4.281   0.241
 9632TIP3    H228842   5.906   4.217   0.132
 9633TIP3   OH228843   3.363   0.303   6.917
 9633TIP3    H128844   3.457   0.307   6.900
 9633TIP3    H228845   3.324   0.300   6.830
 9634TIP3   OH228846   3.210   0.337   6.686
 9634TIP3    H128847   3.128   0.383   6.705
 9634TIP3    H228848   3.258   0.396   6.629
 9635TIP3   OH228849   7.162   6.066   0.686
 9635TIP3    H128850   7.157   6.087   0.593
 9635TIP3    H228851   7.237   6.116   0.718
 9636TIP3   OH228852   6.528   4.620   0.298
 9636TIP3    H128853   6.605   4.573   0.267
 9636TIP3    H228854   6.495   4.567   0.371
 9637TIP3   OH228855   6.507   4.580   0.763
 9637TIP3    H128856   6.578   4.517   0.754
 9637TIP3    H228857   6.541   4.647   0.822
 9638TIP3   OH228858   3.432   0.883   6.705
 9638TIP3    H128859   3.355   0.831   6.685
 9638TIP3    H228860   3.407   0.937   6.780
 9639TIP3   OH228861   7.153   5.157   0.356
 9639TIP3    H128862   7.195   5.213   0.291
 9639TIP3    H228863   7.077   5.119   0.311
 9640TIP3   OH228864   3.844   0.302   6.559
 9640TIP3    H128865   3.804   0.239   6.619
 9640TIP3    H228866   3.895   0.360   6.615
 9641TIP3   OH228867   6.688   5.202   0.850
 9641TIP3    H128868   6.691   5.106   0.847
 9641TIP3    H228869   6.609   5.225   0.801
 9642TIP3   OH228870   3.977   0.488   6.718
 9642TIP3    H128871   4.072   0.498   6.725
 9642TIP3    H228872   3.949   0.562   6.664
 9643TIP3   OH228873   6.067   5.000   0.347
 9643TIP3    H128874   6.103   4.950   0.274
 9643TIP3    H228875   6.045   4.934   0.413
 9644TIP3   OH228876   3.585   1.059   6.564
 9644TIP3    H128877   3.536   1.141   6.565
 9644TIP3    H228878   3.529   0.997   6.611
 9645TIP3   OH228879   6.941   5.545   0.536
 9645TIP3    H128880   6.863   5.491   0.540
 9645TIP3    H228881   6.975   5.547   0.625
 9646TIP3   OH228882   4.387   0.553   6.515
 9646TIP3    H128883   4.341   0.496   6.454
 9646TIP3    H228884   4.382   0.640   6.474
 9647TIP3   OH228885   7.437   5.467   0.595
 9647TIP3    H128886   7.345   5.438   0.602
 9647TIP3    H228887   7.471   5.421   0.519
 9648TIP3   OH228888   4.105   1.375   6.465
 9648TIP3    H128889   4.071   1.309   6.525
 9648TIP3    H228890   4.122   1.327   6.384
 9649TIP3   OH228891   6.940   5.019   0.233
 9649TIP3    H128892   6.856   5.005   0.276
 9649TIP3    H228893   6.972   4.931   0.212
 9650TIP3   OH228894   6.047   5.249   0.084
 9650TIP3    H128895   6.039   5.329   0.033
 9650TIP3    H228896   5.958   5.229   0.112
 9651TIP3   OH228897   2.804   0.551   6.728
 9651TIP3    H128898   2.849   0.631   6.754
 9651TIP3    H228899   2.731   0.543   6.790
 9652TIP3   OH228900   6.167   5.035  -0.034
 9652TIP3    H128901   6.140   5.118   0.005
 9652TIP3    H228902   6.150   4.970   0.034
 9653TIP3   OH228903   6.478   5.486   0.469
 9653TIP3    H128904   6.453   5.552   0.403
 9653TIP3    H228905   6.477   5.535   0.551
 9654TIP3   OH228906   3.141   1.470   6.885
 9654TIP3    H128907   3.052   1.480   6.919
 9654TIP3    H228908   3.175   1.559   6.878
 9655TIP3   OH228909   6.659   5.208   0.468
 9655TIP3    H128910   6.690   5.282   0.522
 9655TIP3    H228911   6.733   5.149   0.463
 9656TIP3   OH228912   3.859   1.108   6.335
 9656TIP3    H128913   3.909   1.078   6.410
 9656TIP3    H228914   3.772   1.069   6.346
 9657TIP3   OH228915   6.962   5.817   0.536
 9657TIP3    H128916   6.936   5.725   0.525
 9657TIP3    H228917   6.943   5.858   0.452
 9658TIP3   OH228918   4.157   1.570   6.136
 9658TIP3    H128919   4.167   1.625   6.059
 9658TIP3    H228920   4.101   1.620   6.195
 9659TIP3   OH228921   4.024   1.007   6.526
 9659TIP3    H128922   4.010   0.965   6.611
 9659TIP3    H228923   4.119   1.020   6.521
 9660TIP3   OH228924   5.647   5.452   0.830
 9660TIP3    H128925   5.702   5.390   0.781
 9660TIP3    H228926   5.676   5.538   0.799
 9661TIP3   OH228927   3.219   1.079   6.354
 9661TIP3    H128928   3.231   0.987   6.328
 9661TIP3    H228929   3.206   1.075   6.449
 9662TIP3   OH228930   3.167   1.091   6.627
 9662TIP3    H128931   3.227   1.066   6.698
 9662TIP3    H228932   3.165   1.186   6.630
 9663TIP3   OH228933   2.896   0.801   6.814
 9663TIP3    H128934   2.825   0.843   6.863
 9663TIP3    H228935   2.911   0.858   6.739
 9664TIP3   OH228936   3.435   1.285   6.564
 9664TIP3    H128937   3.349   1.304   6.600
 9664TIP3    H228938   3.455   1.359   6.507
 9665TIP3   OH228939   6.472   4.331  -0.005
 9665TIP3    H128940   6.520   4.414  -0.009
 9665TIP3    H228941   6.483   4.301   0.085
 9666TIP3   OH228942   6.678   4.711   0.935
 9666TIP3    H128943   6.705   4.749   1.019
 9666TIP3    H228944   6.748   4.649   0.914
 9667TIP3   OH228945   3.181   1.362   6.637
 9667TIP3    H128946   3.159   1.431   6.574
 9667TIP3    H228947   3.165   1.401   6.723
 9668TIP3   OH228948   7.020   4.756   0.197
 9668TIP3    H128949   6.937   4.710   0.210
 9668TIP3    H228950   7.086   4.698   0.235
 9669TIP3   OH228951   2.911   0.978   6.604
 9669TIP3    H128952   2.981   1.042   6.615
 9669TIP3    H228953   2.946   0.915   6.541
 9670TIP3   OH228954   6.994   5.724   0.111
 9670TIP3    H128955   6.947   5.777   0.047
 9670TIP3    H228956   7.086   5.741   0.094
 9671TIP3   OH228957   5.603   5.229   0.065
 9671TIP3    H128958   5.546   5.226   0.142
 9671TIP3    H228959   5.551   5.273  -0.002
 9672TIP3   OH228960   3.376   1.275   6.240
 9672TIP3    H128961   3.327   1.207   6.286
 9672TIP3    H228962   3.451   1.229   6.203
 9673TIP3   OH228963   6.842   5.654   1.022
 9673TIP3    H128964   6.838   5.578   0.964
 9673TIP3    H228965   6.927   5.695   1.003
 9674TIP3   OH228966   3.814   1.316   6.164
 9674TIP3    H128967   3.845   1.251   6.227
 9674TIP3    H228968   3.876   1.310   6.091
 9675TIP3   OH228969   3.042   0.780   6.469
 9675TIP3    H128970   3.093   0.757   6.547
 9675TIP3    H228971   3.107   0.793   6.401
 9676TIP3   OH228972   3.598   0.996   6.298
 9676TIP3    H128973   3.581   1.010   6.391
 9676TIP3    H228974   3.583   0.902   6.285
 9677TIP3   OH228975   7.001   5.257   0.701
 9677TIP3    H128976   7.060   5.311   0.648
 9677TIP3    H228977   6.926   5.314   0.718
 9678TIP3   OH228978   3.218   0.712   6.673
 9678TIP3    H128979   3.194   0.683   6.761
 9678TIP3    H228980   3.268   0.638   6.637
 9679TIP3   OH228981   3.351   0.515   6.532
 9679TIP3    H128982   3.323   0.527   6.441
 9679TIP3    H228983   3.446   0.527   6.530
 9680TIP3   OH228984   4.147   0.815   6.201
 9680TIP3    H128985   4.129   0.778   6.114
 9680TIP3    H228986   4.126   0.907   6.193
 9681TIP3   OH228987   6.595   4.930   0.790
 9681TIP3    H128988   6.611   4.852   0.842
 9681TIP3    H228989   6.527   4.977   0.837
 9682TIP3   OH228990   7.094   5.087   0.931
 9682TIP3    H128991   7.054   5.165   0.893
 9682TIP3    H228992   7.182   5.115   0.957
 9683TIP3   OH228993   3.173   1.566   6.450
 9683TIP3    H128994   3.263   1.551   6.421
 9683TIP3    H228995   3.131   1.611   6.377
 9684TIP3   OH228996   2.641   0.950   6.647
 9684TIP3    H128997   2.730   0.975   6.621
 9684TIP3    H228998   2.625   0.868   6.601
 9685TIP3   OH228999   5.351   5.586   0.050
 9685TIP3    H129000   5.299   5.518   0.009
 9685TIP3    H229001   5.384   5.547   0.131
 9686TIP3   OH229002   5.424   5.475   0.281
 9686TIP3    H129003   5.417   5.379   0.276
 9686TIP3    H229004   5.503   5.490   0.333
 9687TIP3   OH229005   7.260   5.794   0.088
 9687TIP3    H129006   7.262   5.822   0.179
 9687TIP3    H229007   7.321   5.853   0.043
 9688TIP3   OH229008   7.261   5.839   0.356
 9688TIP3    H129009   7.214   5.755   0.362
 9688TIP3    H229010   7.344   5.823   0.401
 9689TIP3   OH229011   7.326   5.533   0.898
 9689TIP3    H129012   7.347   5.547   0.991
 9689TIP3    H229013   7.388   5.588   0.851
 9690TIP3   OH229014   4.300   1.020   6.528
 9690TIP3    H129015   4.359   1.086   6.492
 9690TIP3    H229016   4.341   0.993   6.610
 9691TIP3   OH229017   4.425   0.914   6.744
 9691TIP3    H129018   4.363   0.873   6.804
 9691TIP3    H229019   4.498   0.940   6.800
 9692TIP3   OH229020   7.329   5.306   0.210
 9692TIP3    H129021   7.385   5.240   0.168
 9692TIP3    H229022   7.329   5.380   0.150
 9693TIP3   OH229023   7.147   5.591   0.368
 9693TIP3    H129024   7.071   5.586   0.426
 9693TIP3    H229025   7.119   5.547   0.288
 9694TIP3   OH229026   4.349   0.792   6.384
 9694TIP3    H129027   4.280   0.795   6.318
 9694TIP3    H229028   4.333   0.869   6.439
 9695TIP3   OH229029   4.224   0.458   6.312
 9695TIP3    H129030   4.198   0.538   6.266
 9695TIP3    H229031   4.178   0.388   6.265
 9696TIP3   OH229032   4.235   0.757   6.869
 9696TIP3    H129033   4.245   0.664   6.847
 9696TIP3    H229034   4.224   0.759   6.964
 9697TIP3   OH229035   5.699   4.986   0.591
 9697TIP3    H129036   5.669   4.901   0.558
 9697TIP3    H229037   5.728   4.968   0.681
 9698TIP3   OH229038   7.535   5.208   0.699
 9698TIP3    H129039   7.475   5.178   0.767
 9698TIP3    H229040   7.481   5.260   0.640
 9699TIP3   OH229041   7.608   4.967   0.853
 9699TIP3    H129042   7.532   4.924   0.892
 9699TIP3    H229043   7.659   4.895   0.816
 9700TIP3   OH229044   4.257   0.497   6.755
 9700TIP3    H129045   4.320   0.436   6.792
 9700TIP3    H229046   4.295   0.523   6.671
 9701TIP3   OH229047   7.226   4.579   0.257
 9701TIP3    H129048   7.301   4.632   0.228
 9701TIP3    H229049   7.257   4.536   0.337
 9702TIP3   OH229050   7.295   4.786   0.466
 9702TIP3    H129051   7.308   4.796   0.372
 9702TIP3    H229052   7.329   4.867   0.504
 9703TIP3   OH229053   3.985   1.683   6.719
 9703TIP3    H129054   4.042   1.675   6.642
 9703TIP3    H229055   4.022   1.757   6.768
 9704TIP3   OH229056   6.135   5.519   0.468
 9704TIP3    H129057   6.080   5.592   0.497
 9704TIP3    H229058   6.139   5.460   0.542
 9705TIP3   OH229059   6.513   5.800   0.847
 9705TIP3    H129060   6.533   5.771   0.936
 9705TIP3    H229061   6.587   5.770   0.794
 9706TIP3   OH229062   6.743   6.009   0.583
 9706TIP3    H129063   6.804   5.938   0.564
 9706TIP3    H229064   6.780   6.053   0.659
 9707TIP3   OH229065   5.680   5.721   0.770
 9707TIP3    H129066   5.678   5.787   0.702
 9707TIP3    H229067   5.720   5.764   0.845
 9708TIP3   OH229068   6.020   5.751   0.521
 9708TIP3    H129069   5.986   5.799   0.597
 9708TIP3    H229070   5.980   5.794   0.445
 9709TIP3   OH229071   6.457   5.730   0.331
 9709TIP3    H129072   6.384   5.744   0.270
 9709TIP3    H229073   6.454   5.805   0.390
 9710TIP3   OH229074   6.706   5.717   0.440
 9710TIP3    H129075   6.617   5.722   0.407
 9710TIP3    H229076   6.755   5.777   0.384
 9711TIP3   OH229077   6.885   5.902   0.297
 9711TIP3    H129078   6.885   5.990   0.259
 9711TIP3    H229079   6.915   5.845   0.226
 9712TIP3   OH229080   5.773   5.648   0.416
 9712TIP3    H129081   5.699   5.589   0.432
 9712TIP3    H229082   5.836   5.595   0.368
 9713TIP3   OH229083   5.913   5.430   0.302
 9713TIP3    H129084   5.940   5.357   0.359
 9713TIP3    H229085   5.995   5.468   0.272
 9714TIP3   OH229086   6.206   5.539   0.212
 9714TIP3    H129087   6.241   5.452   0.193
 9714TIP3    H229088   6.190   5.538   0.306
 9715TIP3   OH229089   2.633   1.343   6.806
 9715TIP3    H129090   2.541   1.319   6.798
 9715TIP3    H229091   2.645   1.414   6.743
 9716TIP3   OH229092   3.431   1.501   6.382
 9716TIP3    H129093   3.515   1.529   6.346
 9716TIP3    H229094   3.403   1.429   6.326
 9717TIP3   OH229095   4.141   1.643   6.490
 9717TIP3    H129096   4.132   1.548   6.484
 9717TIP3    H229097   4.094   1.676   6.413
 9718TIP3   OH229098   2.704   1.290   6.426
 9718TIP3    H129099   2.700   1.372   6.475
 9718TIP3    H229100   2.797   1.280   6.405
 9719TIP3   OH229101   7.203   5.793   0.650
 9719TIP3    H129102   7.121   5.807   0.602
 9719TIP3    H229103   7.209   5.868   0.710
 9720TIP3   OH229104   5.587   1.170   6.402
 9720TIP3    H129105   5.566   1.256   6.366
 9720TIP3    H229106   5.555   1.172   6.492
 9721TIP3   OH229107   5.620   1.166   6.835
 9721TIP3    H129108   5.666   1.155   6.918
 9721TIP3    H229109   5.570   1.085   6.823
 9722TIP3   OH229110   7.758   5.042   0.220
 9722TIP3    H129111   7.776   4.987   0.296
 9722TIP3    H229112   7.844   5.057   0.180
 9723TIP3   OH229113   5.882   1.466   6.516
 9723TIP3    H129114   5.877   1.402   6.587
 9723TIP3    H229115   5.909   1.547   6.558
 9724TIP3   OH229116   4.917   1.456   6.880
 9724TIP3    H129117   4.899   1.362   6.884
 9724TIP3    H229118   5.012   1.462   6.872
 9725TIP3   OH229119   4.574   0.693   6.675
 9725TIP3    H129120   4.527   0.774   6.693
 9725TIP3    H229121   4.512   0.640   6.624
 9726TIP3   OH229122   4.675   0.959   6.855
 9726TIP3    H129123   4.718   0.879   6.885
 9726TIP3    H229124   4.746   1.011   6.816
 9727TIP3   OH229125   5.548   1.899   6.521
 9727TIP3    H129126   5.579   1.834   6.459
 9727TIP3    H229127   5.548   1.855   6.606
 9728TIP3   OH229128   5.434   1.388   6.844
 9728TIP3    H129129   5.477   1.305   6.822
 9728TIP3    H229130   5.505   1.444   6.875
 9729TIP3   OH229131   5.842   0.878   6.912
 9729TIP3    H129132   5.900   0.802   6.920
 9729TIP3    H229133   5.802   0.869   6.826
 9730TIP3   OH229134   5.154   0.509   6.867
 9730TIP3    H129135   5.142   0.580   6.803
 9730TIP3    H229136   5.141   0.429   6.816
 9731TIP3   OH229137   5.799   0.637   6.536
 9731TIP3    H129138   5.889   0.603   6.540
 9731TIP3    H229139   5.786   0.661   6.444
 9732TIP3   OH229140   7.638   4.742   0.011
 9732TIP3    H129141   7.722   4.735   0.055
 9732TIP3    H229142   7.645   4.684  -0.065
 9733TIP3   OH229143   5.229   0.943   6.783
 9733TIP3    H129144   5.323   0.926   6.790
 9733TIP3    H229145   5.190   0.858   6.767
 9734TIP3   OH229146   0.803   4.898   0.146
 9734TIP3    H129147   0.720   4.935   0.117
 9734TIP3    H229148   0.865   4.971   0.142
 9735TIP3   OH229149   5.518   1.395   6.268
 9735TIP3    H129150   5.476   1.369   6.187
 9735TIP3    H229151   5.468   1.471   6.298
 9736TIP3   OH229152   8.111   5.317   0.121
 9736TIP3    H129153   8.052   5.384   0.157
 9736TIP3    H229154   8.154   5.361   0.047
 9737TIP3   OH229155   7.887   4.695   0.113
 9737TIP3    H129156   7.961   4.737   0.156
 9737TIP3    H229157   7.927   4.625   0.061
 9738TIP3   OH229158   7.944   5.515   0.226
 9738TIP3    H129159   7.929   5.604   0.194
 9738TIP3    H229160   7.866   5.494   0.276
 9739TIP3   OH229161   4.479   1.188   6.404
 9739TIP3    H129162   4.447   1.204   6.315
 9739TIP3    H229163   4.500   1.274   6.438
 9740TIP3   OH229164   5.930   1.711   6.652
 9740TIP3    H129165   5.843   1.704   6.691
 9740TIP3    H229166   5.929   1.796   6.606
 9741TIP3   OH229167   5.642   1.741   6.313
 9741TIP3    H129168   5.693   1.661   6.300
 9741TIP3    H229169   5.698   1.812   6.283
 9742TIP3   OH229170   5.777   1.506   6.262
 9742TIP3    H129171   5.698   1.452   6.265
 9742TIP3    H229172   5.823   1.485   6.343
 9743TIP3   OH229173   0.502   5.611   0.059
 9743TIP3    H129174   0.484   5.537   0.001
 9743TIP3    H229175   0.486   5.689   0.005
 9744TIP3   OH229176   5.455   1.013   6.213
 9744TIP3    H129177   5.370   1.057   6.213
 9744TIP3    H229178   5.514   1.074   6.257
 9745TIP3   OH229179   5.386   0.858   5.999
 9745TIP3    H129180   5.416   0.908   6.075
 9745TIP3    H229181   5.440   0.779   6.000
 9746TIP3   OH229182   6.348   1.264   6.865
 9746TIP3    H129183   6.263   1.308   6.861
 9746TIP3    H229184   6.386   1.279   6.778
 9747TIP3   OH229185   5.798   1.100   6.240
 9747TIP3    H129186   5.731   1.126   6.304
 9747TIP3    H229187   5.880   1.100   6.289
 9748TIP3   OH229188   0.364   5.140   0.220
 9748TIP3    H129189   0.363   5.219   0.275
 9748TIP3    H229190   0.277   5.138   0.180
 9749TIP3   OH229191   5.038   1.078   6.637
 9749TIP3    H129192   5.001   1.019   6.572
 9749TIP3    H229193   5.107   1.027   6.679
 9750TIP3   OH229194   5.179   1.503   6.777
 9750TIP3    H129195   5.154   1.483   6.687
 9750TIP3    H229196   5.266   1.463   6.787
 9751TIP3   OH229197   7.992   5.072   0.082
 9751TIP3    H129198   8.023   5.038  -0.002
 9751TIP3    H229199   8.039   5.154   0.093
 9752TIP3   OH229200   5.692   1.704   6.784
 9752TIP3    H129201   5.679   1.785   6.834
 9752TIP3    H229202   5.679   1.634   6.847
 9753TIP3   OH229203   8.153   5.608   0.385
 9753TIP3    H129204   8.094   5.671   0.428
 9753TIP3    H229205   8.095   5.554   0.332
 9754TIP3   OH229206   7.919   5.187   0.468
 9754TIP3    H129207   7.921   5.269   0.517
 9754TIP3    H229208   7.830   5.155   0.477
 9755TIP3   OH229209   5.388   1.632   6.318
 9755TIP3    H129210   5.470   1.680   6.325
 9755TIP3    H229211   5.330   1.691   6.270
 9756TIP3   OH229212   7.961   5.793   0.453
 9756TIP3    H129213   7.939   5.798   0.360
 9756TIP3    H229214   7.876   5.788   0.498
 9757TIP3   OH229215   4.912   0.923   6.437
 9757TIP3    H129216   4.831   0.962   6.404
 9757TIP3    H229217   4.886   0.836   6.467
 9758TIP3   OH229218   5.976   1.556   5.671
 9758TIP3    H129219   5.970   1.650   5.653
 9758TIP3    H229220   6.066   1.534   5.649
 9759TIP3   OH229221   7.542   5.316   0.398
 9759TIP3    H129222   7.472   5.307   0.334
 9759TIP3    H229223   7.578   5.228   0.406
 9760TIP3   OH229224   7.385   5.528   0.058
 9760TIP3    H129225   7.480   5.535   0.067
 9760TIP3    H229226   7.352   5.611   0.094
 9761TIP3   OH229227   0.726   5.981   0.117
 9761TIP3    H129228   0.735   5.887   0.130
 9761TIP3    H229229   0.647   6.005   0.165
 9762TIP3   OH229230   8.336   5.759   0.247
 9762TIP3    H129231   8.328   5.849   0.280
 9762TIP3    H229232   8.270   5.710   0.297
 9763TIP3   OH229233   5.281   1.850   6.150
 9763TIP3    H129234   5.241   1.830   6.065
 9763TIP3    H229235   5.244   1.934   6.175
 9764TIP3   OH229236   4.691   1.711   6.555
 9764TIP3    H129237   4.769   1.708   6.609
 9764TIP3    H229238   4.622   1.672   6.609
 9765TIP3   OH229239   5.482   1.783   5.772
 9765TIP3    H129240   5.534   1.710   5.737
 9765TIP3    H229241   5.516   1.796   5.861
 9766TIP3   OH229242   5.535   1.827   6.042
 9766TIP3    H129243   5.449   1.828   6.085
 9766TIP3    H229244   5.595   1.798   6.110
 9767TIP3   OH229245   0.628   5.058   0.358
 9767TIP3    H129246   0.550   5.112   0.350
 9767TIP3    H229247   0.595   4.968   0.357
 9768TIP3   OH229248   7.724   5.525   0.413
 9768TIP3    H129249   7.792   5.496   0.474
 9768TIP3    H229250   7.666   5.450   0.404
 9769TIP3   OH229251   0.386   4.904   0.375
 9769TIP3    H129252   0.380   4.958   0.453
 9769TIP3    H229253   0.365   4.964   0.303
 9770TIP3   OH229254   8.073   4.859   0.249
 9770TIP3    H129255   8.011   4.864   0.322
 9770TIP3    H229256   8.053   4.936   0.195
 9771TIP3   OH229257   5.084   0.720   6.701
 9771TIP3    H129258   4.993   0.691   6.709
 9771TIP3    H229259   5.105   0.707   6.608
 9772TIP3   OH229260   5.585   0.858   6.417
 9772TIP3    H129261   5.521   0.913   6.373
 9772TIP3    H229262   5.650   0.838   6.349
 9773TIP3   OH229263   0.110   5.105   0.525
 9773TIP3    H129264   0.083   5.035   0.584
 9773TIP3    H229265   0.204   5.115   0.543
 9774TIP3   OH229266   5.733   0.869   6.659
 9774TIP3    H129267   5.676   0.905   6.591
 9774TIP3    H229268   5.755   0.781   6.627
 9775TIP3   OH229269   7.869   4.875   0.438
 9775TIP3    H129270   7.840   4.949   0.491
 9775TIP3    H229271   7.821   4.800   0.471
 9776TIP3   OH229272   4.676   0.434   6.526
 9776TIP3    H129273   4.697   0.468   6.439
 9776TIP3    H229274   4.582   0.450   6.536
 9777TIP3   OH229275   0.098   5.094   0.123
 9777TIP3    H129276   0.131   5.025   0.066
 9777TIP3    H229277   0.060   5.047   0.198
 9778TIP3   OH229278   4.830   0.608   6.699
 9778TIP3    H129279   4.742   0.646   6.692
 9778TIP3    H229280   4.824   0.524   6.654
 9779TIP3   OH229281   5.137   0.673   6.441
 9779TIP3    H129282   5.231   0.669   6.422
 9779TIP3    H229283   5.094   0.645   6.360
 9780TIP3   OH229284   5.035   0.584   6.203
 9780TIP3    H129285   4.942   0.580   6.181
 9780TIP3    H229286   5.072   0.644   6.139
 9781TIP3   OH229287   0.440   6.319   0.215
 9781TIP3    H129288   0.434   6.339   0.122
 9781TIP3    H229289   0.518   6.366   0.244
 9782TIP3   OH229290   7.912   5.432   0.605
 9782TIP3    H129291   7.989   5.438   0.662
 9782TIP3    H229292   7.838   5.423   0.666
 9783TIP3   OH229293   5.502   0.911   6.827
 9783TIP3    H129294   5.577   0.869   6.785
 9783TIP3    H229295   5.503   0.877   6.917
 9784TIP3   OH229296   8.335   4.835   0.146
 9784TIP3    H129297   8.249   4.834   0.189
 9784TIP3    H229298   8.394   4.869   0.213
 9785TIP3   OH229299   5.214   1.147   6.214
 9785TIP3    H129300   5.139   1.091   6.195
 9785TIP3    H229301   5.196   1.185   6.300
 9786TIP3   OH229302   6.113   1.404   6.821
 9786TIP3    H129303   6.148   1.452   6.746
 9786TIP3    H229304   6.030   1.367   6.789
 9787TIP3   OH229305   5.523   0.624   5.968
 9787TIP3    H129306   5.484   0.554   6.019
 9787TIP3    H229307   5.615   0.626   5.996
 9788TIP3   OH229308   8.461   5.487   0.288
 9788TIP3    H129309   8.507   5.471   0.370
 9788TIP3    H229310   8.419   5.572   0.300
 9789TIP3   OH229311   5.764   0.826   6.215
 9789TIP3    H129312   5.857   0.806   6.222
 9789TIP3    H229313   5.760   0.920   6.199
 9790TIP3   OH229314   4.918   1.176   6.867
 9790TIP3    H129315   4.959   1.149   6.785
 9790TIP3    H229316   4.969   1.130   6.935
 9791TIP3   OH229317   5.357   1.315   6.052
 9791TIP3    H129318   5.307   1.396   6.051
 9791TIP3    H229319   5.305   1.255   6.106
 9792TIP3   OH229320   7.666   5.067   0.510
 9792TIP3    H129321   7.643   5.107   0.594
 9792TIP3    H229322   7.584   5.030   0.477
 9793TIP3   OH229323   8.369   5.242   0.580
 9793TIP3    H129324   8.300   5.185   0.549
 9793TIP3    H229325   8.450   5.205   0.544
 9794TIP3   OH229326   0.106   5.774   0.173
 9794TIP3    H129327   0.012   5.762   0.178
 9794TIP3    H229328   0.129   5.814   0.257
 9795TIP3   OH229329   6.151   0.820   6.004
 9795TIP3    H129330   6.142   0.767   5.925
 9795TIP3    H229331   6.163   0.909   5.972
 9796TIP3   OH229332   0.746   5.705   0.145
 9796TIP3    H129333   0.653   5.682   0.148
 9796TIP3    H229334   0.776   5.673   0.060
 9797TIP3   OH229335   5.899   1.634   5.936
 9797TIP3    H129336   5.876   1.566   6.000
 9797TIP3    H229337   5.918   1.585   5.856
 9798TIP3   OH229338   5.875   1.278   6.730
 9798TIP3    H129339   5.786   1.254   6.757
 9798TIP3    H229340   5.916   1.195   6.708
 9799TIP3   OH229341   5.035   1.495   6.532
 9799TIP3    H129342   5.028   1.573   6.477
 9799TIP3    H229343   4.946   1.478   6.561
 9800TIP3   OH229344   4.583   0.790   6.237
 9800TIP3    H129345   4.626   0.873   6.257
 9800TIP3    H229346   4.503   0.791   6.290
 9801TIP3   OH229347   5.145   1.254   6.452
 9801TIP3    H129348   5.118   1.343   6.475
 9801TIP3    H229349   5.109   1.199   6.521
 9802TIP3   OH229350   8.153   5.833   0.043
 9802TIP3    H129351   8.189   5.907  -0.006
 9802TIP3    H229352   8.226   5.800   0.095
 9803TIP3   OH229353   4.938   1.720   6.388
 9803TIP3    H129354   4.846   1.734   6.409
 9803TIP3    H229355   4.977   1.807   6.391
 9804TIP3   OH229356   0.006   5.490   0.016
 9804TIP3    H129357  -0.010   5.487   0.111
 9804TIP3    H229358   0.091   5.447   0.005
 9805TIP3   OH229359   5.658   1.364   5.827
 9805TIP3    H129360   5.701   1.328   5.905
 9805TIP3    H229361   5.568   1.333   5.833
 9806TIP3   OH229362   0.257   5.991   0.058
 9806TIP3    H129363   0.185   5.929   0.073
 9806TIP3    H229364   0.227   6.045  -0.015
 9807TIP3   OH229365   5.974   1.830   5.635
 9807TIP3    H129366   5.995   1.891   5.564
 9807TIP3    H229367   5.903   1.872   5.683
 9808TIP3   OH229368   5.822   1.218   5.993
 9808TIP3    H129369   5.806   1.182   6.080
 9808TIP3    H229370   5.910   1.256   5.998
 9809TIP3   OH229371   7.572   5.730   0.205
 9809TIP3    H129372   7.622   5.670   0.260
 9809TIP3    H229373   7.587   5.817   0.243
 9810TIP3   OH229374   5.029   1.332   5.837
 9810TIP3    H129375   5.035   1.240   5.812
 9810TIP3    H229376   5.006   1.331   5.930
 9811TIP3   OH229377   4.955   1.351   6.104
 9811TIP3    H129378   5.022   1.328   6.169
 9811TIP3    H229379   4.947   1.446   6.110
 9812TIP3   OH229380   4.690   1.035   6.316
 9812TIP3    H129381   4.621   1.078   6.366
 9812TIP3    H229382   4.710   1.096   6.245
 9813TIP3   OH229383   5.208   1.541   6.054
 9813TIP3    H129384   5.122   1.568   6.086
 9813TIP3    H229385   5.236   1.613   5.998
 9814TIP3   OH229386   5.409   0.647   6.415
 9814TIP3    H129387   5.472   0.713   6.445
 9814TIP3    H229388   5.418   0.575   6.477
 9815TIP3   OH229389   0.024   4.927   0.332
 9815TIP3    H129390   0.038   4.996   0.397
 9815TIP3    H229391   0.065   4.849   0.372
 9816TIP3   OH229392   4.952   1.624   6.129
 9816TIP3    H129393   4.885   1.675   6.083
 9816TIP3    H229394   4.952   1.660   6.218
 9817TIP3   OH229395   5.975   1.025   6.668
 9817TIP3    H129396   5.896   0.970   6.671
 9817TIP3    H229397   6.043   0.972   6.708
 9818TIP3   OH229398   4.705   1.219   6.103
 9818TIP3    H129399   4.770   1.289   6.107
 9818TIP3    H229400   4.741   1.157   6.041
 9819TIP3   OH229401   4.695   0.539   6.275
 9819TIP3    H129402   4.667   0.630   6.266
 9819TIP3    H229403   4.649   0.493   6.204
 9820TIP3   OH229404   5.951   1.975   6.566
 9820TIP3    H129405   5.909   2.027   6.498
 9820TIP3    H229406   6.045   1.989   6.553
 9821TIP3   OH229407   4.532   1.445   6.482
 9821TIP3    H129408   4.473   1.485   6.545
 9821TIP3    H229409   4.580   1.518   6.443
 9822TIP3   OH229410   7.566   6.015   0.590
 9822TIP3    H129411   7.617   6.005   0.670
 9822TIP3    H229412   7.569   5.929   0.549
 9823TIP3   OH229413   8.080   5.926   0.661
 9823TIP3    H129414   8.165   5.883   0.670
 9823TIP3    H229415   8.040   5.883   0.586
 9824TIP3   OH229416   5.171   1.542   5.729
 9824TIP3    H129417   5.125   1.471   5.774
 9824TIP3    H229418   5.246   1.500   5.688
 9825TIP3   OH229419   0.161   5.881   0.420
 9825TIP3    H129420   0.174   5.810   0.483
 9825TIP3    H229421   0.236   5.939   0.434
 9826TIP3   OH229422   5.612   1.573   5.652
 9826TIP3    H129423   5.649   1.511   5.714
 9826TIP3    H229424   5.670   1.570   5.576
 9827TIP3   OH229425   7.672   5.434   0.737
 9827TIP3    H129426   7.661   5.340   0.751
 9827TIP3    H229427   7.590   5.463   0.697
 9828TIP3   OH229428   4.838   1.031   5.958
 9828TIP3    H129429   4.887   1.006   6.037
 9828TIP3    H229430   4.905   1.046   5.892
 9829TIP3   OH229431   8.306   5.511   0.593
 9829TIP3    H129432   8.259   5.528   0.511
 9829TIP3    H229433   8.339   5.422   0.583
 9830TIP3   OH229434   5.411   1.245   5.792
 9830TIP3    H129435   5.378   1.262   5.880
 9830TIP3    H229436   5.389   1.153   5.775
 9831TIP3   OH229437   0.273   5.548   0.202
 9831TIP3    H129438   0.351   5.579   0.157
 9831TIP3    H229439   0.209   5.618   0.189
 9832TIP3   OH229440   7.890   5.139   0.781
 9832TIP3    H129441   7.964   5.099   0.735
 9832TIP3    H229442   7.907   5.124   0.873
 9833TIP3   OH229443   5.006   0.968   6.175
 9833TIP3    H129444   4.984   0.944   6.265
 9833TIP3    H229445   5.044   0.889   6.137
 9834TIP3   OH229446   8.172   5.080   0.470
 9834TIP3    H129447   8.083   5.114   0.465
 9834TIP3    H229448   8.210   5.100   0.384
 9835TIP3   OH229449   5.126   0.769   6.023
 9835TIP3    H129450   5.093   0.773   5.933
 9835TIP3    H229451   5.217   0.800   6.016
 9836TIP3   OH229452   0.154   5.427   0.568
 9836TIP3    H129453   0.223   5.390   0.513
 9836TIP3    H229454   0.147   5.366   0.641
 9837TIP3   OH229455   5.923   1.059   5.699
 9837TIP3    H129456   5.948   1.018   5.616
 9837TIP3    H229457   5.925   1.153   5.681
 9838TIP3   OH229458   8.235   4.838   0.575
 9838TIP3    H129459   8.200   4.777   0.510
 9838TIP3    H229460   8.213   4.925   0.540
 9839TIP3   OH229461   8.303   5.167   0.247
 9839TIP3    H129462   8.387   5.205   0.223
 9839TIP3    H229463   8.238   5.222   0.205
 9840TIP3   OH229464   0.396   5.091   0.582
 9840TIP3    H129465   0.381   5.054   0.669
 9840TIP3    H229466   0.481   5.134   0.589
 9841TIP3   OH229467   0.397   5.375   0.371
 9841TIP3    H129468   0.343   5.436   0.319
 9841TIP3    H229469   0.486   5.389   0.338
 9842TIP3   OH229470   8.130   4.980   0.795
 9842TIP3    H129471   8.076   4.930   0.856
 9842TIP3    H229472   8.162   4.916   0.732
 9843TIP3   OH229473   8.498   4.890   0.652
 9843TIP3    H129474   8.502   4.863   0.744
 9843TIP3    H229475   8.409   4.869   0.624
 9844TIP3   OH229476   4.432   1.205   6.126
 9844TIP3    H129477   4.526   1.221   6.118
 9844TIP3    H229478   4.418   1.121   6.082
 9845TIP3   OH229479   4.345   1.793   6.581
 9845TIP3    H129480   4.275   1.740   6.543
 9845TIP3    H229481   4.387   1.736   6.645
 9846TIP3   OH229482   4.501   1.640   6.745
 9846TIP3    H129483   4.486   1.564   6.801
 9846TIP3    H229484   4.540   1.705   6.804
 9847TIP3   OH229485   6.221   2.029   6.559
 9847TIP3    H129486   6.237   2.060   6.648
 9847TIP3    H229487   6.271   2.090   6.503
 9848TIP3   OH229488   6.232   2.066   6.838
 9848TIP3    H129489   6.186   1.982   6.834
 9848TIP3    H229490   6.303   2.052   6.900
 9849TIP3   OH229491   0.621   5.773   0.465
 9849TIP3    H129492   0.548   5.778   0.526
 9849TIP3    H229493   0.663   5.859   0.471
 9850TIP3   OH229494   6.091   1.297   6.013
 9850TIP3    H129495   6.151   1.365   5.982
 9850TIP3    H229496   6.129   1.268   6.096
 9851TIP3   OH229497   6.211   1.193   6.237
 9851TIP3    H129498   6.148   1.168   6.304
 9851TIP3    H229499   6.283   1.235   6.285
 9852TIP3   OH229500   6.287   1.540   6.653
 9852TIP3    H129501   6.343   1.473   6.613
 9852TIP3    H229502   6.290   1.613   6.592
 9853TIP3   OH229503   6.096   1.823   6.848
 9853TIP3    H129504   6.028   1.867   6.898
 9853TIP3    H229505   6.049   1.781   6.775
 9854TIP3   OH229506   6.146   1.067   5.876
 9854TIP3    H129507   6.071   1.057   5.817
 9854TIP3    H229508   6.126   1.147   5.925
 9855TIP3   OH229509   6.022   1.076   6.401
 9855TIP3    H129510   6.038   0.986   6.372
 9855TIP3    H229511   6.015   1.070   6.496
 9856TIP3   OH229512   7.507   5.112   0.144
 9856TIP3    H129513   7.495   5.065   0.061
 9856TIP3    H229514   7.598   5.097   0.167
 9857TIP3   OH229515   0.653   5.412   0.268
 9857TIP3    H129516   0.718   5.343   0.255
 9857TIP3    H229517   0.657   5.463   0.187
 9858TIP3   OH229518   0.832   5.203   0.254
 9858TIP3    H129519   0.764   5.148   0.292
 9858TIP3    H229520   0.914   5.167   0.288
 9859TIP3   OH229521   6.033   0.831   6.257
 9859TIP3    H129522   6.102   0.818   6.322
 9859TIP3    H229523   6.077   0.823   6.172
 9860TIP3   OH229524   6.173   0.864   6.792
 9860TIP3    H129525   6.250   0.887   6.740
 9860TIP3    H229526   6.186   0.909   6.876
 9861TIP3   OH229527   0.577   5.045   0.056
 9861TIP3    H129528   0.508   5.081   0.110
 9861TIP3    H229529   0.616   5.120   0.012
 9862TIP3   OH229530   7.728   4.739   0.754
 9862TIP3    H129531   7.755   4.746   0.846
 9862TIP3    H229532   7.750   4.649   0.730
 9863TIP3   OH229533   7.451   4.740   0.221
 9863TIP3    H129534   7.506   4.744   0.143
 9863TIP3    H229535   7.513   4.731   0.294
 9864TIP3   OH229536   5.781   1.939   6.200
 9864TIP3    H129537   5.839   1.934   6.124
 9864TIP3    H229538   5.818   2.010   6.253
 9865TIP3   OH229539   7.725   5.768   0.583
 9865TIP3    H129540   7.685   5.693   0.540
 9865TIP3    H229541   7.745   5.737   0.672
 9866TIP3   OH229542   7.921   5.789   0.181
 9866TIP3    H129543   7.870   5.864   0.150
 9866TIP3    H229544   8.005   5.798   0.138
 9867TIP3   OH229545   8.323   6.023   0.332
 9867TIP3    H129546   8.360   6.017   0.420
 9867TIP3    H229547   8.387   6.076   0.283
 9868TIP3   OH229548   0.013   6.177   0.204
 9868TIP3    H129549   0.076   6.125   0.154
 9868TIP3    H229550   0.067   6.235   0.258
 9869TIP3   OH229551   7.580   6.025   0.237
 9869TIP3    H129552   7.492   6.047   0.208
 9869TIP3    H229553   7.603   6.095   0.299
 9870TIP3   OH229554   7.811   6.022   0.086
 9870TIP3    H129555   7.728   6.025   0.134
 9870TIP3    H229556   7.789   6.050  -0.003
 9871TIP3   OH229557   5.396   2.035   6.819
 9871TIP3    H129558   5.326   2.047   6.755
 9871TIP3    H229559   5.408   2.121   6.858
 9872TIP3   OH229560   5.657   1.965   6.872
 9872TIP3    H129561   5.566   1.987   6.851
 9872TIP3    H229562   5.709   2.030   6.827
 9873TIP3   OH229563   5.856   2.132   6.771
 9873TIP3    H129564   5.859   2.221   6.735
 9873TIP3    H229565   5.887   2.076   6.700
 9874TIP3   OH229566   4.674   1.816   6.891
 9874TIP3    H129567   4.692   1.791   6.982
 9874TIP3    H229568   4.747   1.780   6.841
 9875TIP3   OH229569   4.875   1.695   6.755
 9875TIP3    H129570   4.884   1.611   6.800
 9875TIP3    H229571   4.963   1.734   6.759
 9876TIP3   OH229572   5.139   1.779   6.778
 9876TIP3    H129573   5.158   1.686   6.764
 9876TIP3    H229574   5.193   1.803   6.853
 9877TIP3   OH229575   5.231   1.764   5.887
 9877TIP3    H129576   5.313   1.785   5.842
 9877TIP3    H229577   5.186   1.703   5.827
 9878TIP3   OH229578   5.934   1.902   5.972
 9878TIP3    H129579   5.927   1.807   5.963
 9878TIP3    H229580   5.890   1.937   5.895
 9879TIP3   OH229581   4.534   1.613   5.924
 9879TIP3    H129582   4.558   1.681   5.987
 9879TIP3    H229583   4.617   1.569   5.904
 9880TIP3   OH229584   0.478   6.046   0.219
 9880TIP3    H129585   0.404   6.014   0.168
 9880TIP3    H229586   0.465   6.141   0.225
 9881TIP3   OH229587   7.416   1.425   5.930
 9881TIP3    H129588   7.397   1.514   5.902
 9881TIP3    H229589   7.347   1.372   5.890
 9882TIP3   OH229590   7.420   1.430   6.289
 9882TIP3    H129591   7.427   1.444   6.384
 9882TIP3    H229592   7.372   1.347   6.281
 9883TIP3   OH229593   6.723   1.256   6.663
 9883TIP3    H129594   6.750   1.209   6.741
 9883TIP3    H229595   6.802   1.301   6.633
 9884TIP3   OH229596   7.683   1.728   5.998
 9884TIP3    H129597   7.658   1.675   6.073
 9884TIP3    H229598   7.713   1.811   6.036
 9885TIP3   OH229599   6.712   1.712   6.368
 9885TIP3    H129600   6.695   1.619   6.373
 9885TIP3    H229601   6.807   1.718   6.355
 9886TIP3   OH229602   6.385   0.979   6.205
 9886TIP3    H129603   6.319   1.048   6.211
 9886TIP3    H229604   6.367   0.935   6.123
 9887TIP3   OH229605   6.452   1.284   6.345
 9887TIP3    H129606   6.514   1.211   6.355
 9887TIP3    H229607   6.507   1.359   6.322
 9888TIP3   OH229608   7.344   2.158   6.007
 9888TIP3    H129609   7.374   2.092   5.945
 9888TIP3    H229610   7.333   2.111   6.089
 9889TIP3   OH229611   7.223   1.644   6.329
 9889TIP3    H129612   7.258   1.571   6.277
 9889TIP3    H229613   7.301   1.690   6.361
 9890TIP3   OH229614   7.597   1.154   6.424
 9890TIP3    H129615   7.599   1.059   6.423
 9890TIP3    H229616   7.571   1.178   6.335
 9891TIP3   OH229617   7.052   0.700   6.286
 9891TIP3    H129618   7.032   0.757   6.360
 9891TIP3    H229619   6.968   0.685   6.244
 9892TIP3   OH229620   7.585   0.860   6.029
 9892TIP3    H129621   7.677   0.834   6.028
 9892TIP3    H229622   7.559   0.861   5.937
 9893TIP3   OH229623   6.648   1.111   6.419
 9893TIP3    H129624   6.675   1.127   6.510
 9893TIP3    H229625   6.713   1.049   6.386
 9894TIP3   OH229626   7.051   1.247   6.257
 9894TIP3    H129627   7.145   1.228   6.268
 9894TIP3    H229628   7.017   1.169   6.214
 9895TIP3   OH229629   7.329   1.638   5.771
 9895TIP3    H129630   7.289   1.607   5.690
 9895TIP3    H229631   7.275   1.712   5.797
 9896TIP3   OH229632   7.080   1.565   6.558
 9896TIP3    H129633   7.020   1.633   6.589
 9896TIP3    H229634   7.122   1.603   6.481
 9897TIP3   OH229635   6.777   0.938   6.620
 9897TIP3    H129636   6.854   0.992   6.642
 9897TIP3    H229637   6.794   0.907   6.531
 9898TIP3   OH229638   6.911   1.763   6.654
 9898TIP3    H129639   6.895   1.851   6.621
 9898TIP3    H229640   6.831   1.740   6.701
 9899TIP3   OH229641   6.279   1.473   5.901
 9899TIP3    H129642   6.249   1.493   5.812
 9899TIP3    H229643   6.304   1.558   5.938
 9900TIP3   OH229644   7.729   1.971   6.135
 9900TIP3    H129645   7.642   1.962   6.174
 9900TIP3    H229646   7.726   2.056   6.091
 9901TIP3   OH229647   7.438   1.999   5.798
 9901TIP3    H129648   7.489   1.920   5.784
 9901TIP3    H229649   7.495   2.070   5.769
 9902TIP3   OH229650   7.575   1.768   5.745
 9902TIP3    H129651   7.500   1.709   5.746
 9902TIP3    H229652   7.624   1.747   5.824
 9903TIP3   OH229653   7.953   1.859   6.499
 9903TIP3    H129654   7.949   1.785   6.439
 9903TIP3    H229655   7.948   1.936   6.443
 9904TIP3   OH229656   7.247   1.281   5.761
 9904TIP3    H129657   7.164   1.321   5.737
 9904TIP3    H229658   7.293   1.269   5.678
 9905TIP3   OH229659   7.205   1.098   5.453
 9905TIP3    H129660   7.274   1.154   5.488
 9905TIP3    H229661   7.240   1.009   5.461
 9906TIP3   OH229662   8.130   1.477   6.307
 9906TIP3    H129663   8.059   1.541   6.314
 9906TIP3    H229664   8.180   1.505   6.231
 9907TIP3   OH229665   7.597   1.359   5.730
 9907TIP3    H129666   7.541   1.383   5.804
 9907TIP3    H229667   7.686   1.359   5.766
 9908TIP3   OH229668   7.871   1.407   6.485
 9908TIP3    H129669   7.949   1.463   6.495
 9908TIP3    H229670   7.818   1.452   6.418
 9909TIP3   OH229671   6.823   1.347   6.121
 9909TIP3    H129672   6.789   1.282   6.059
 9909TIP3    H229673   6.902   1.307   6.156
 9910TIP3   OH229674   6.970   1.758   6.264
 9910TIP3    H129675   6.948   1.742   6.172
 9910TIP3    H229676   7.057   1.719   6.275
 9911TIP3   OH229677   6.950   1.328   6.503
 9911TIP3    H129678   6.982   1.304   6.416
 9911TIP3    H229679   6.994   1.410   6.523
 9912TIP3   OH229680   7.491   1.953   6.265
 9912TIP3    H129681   7.476   2.033   6.315
 9912TIP3    H229682   7.477   1.882   6.329
 9913TIP3   OH229683   7.101   1.869   6.825
 9913TIP3    H129684   7.038   1.927   6.867
 9913TIP3    H229685   7.049   1.815   6.766
 9914TIP3   OH229686   7.433   1.221   5.556
 9914TIP3    H129687   7.494   1.275   5.606
 9914TIP3    H229688   7.466   1.224   5.466
 9915TIP3   OH229689   6.850   1.454   6.913
 9915TIP3    H129690   6.847   1.540   6.954
 9915TIP3    H229691   6.761   1.420   6.924
 9916TIP3   OH229692   7.191   1.875   5.811
 9916TIP3    H129693   7.271   1.928   5.813
 9916TIP3    H229694   7.128   1.928   5.763
 9917TIP3   OH229695   6.892   2.027   6.908
 9917TIP3    H129696   6.867   2.034   6.815
 9917TIP3    H229697   6.810   2.010   6.953
 9918TIP3   OH229698   6.692   1.175   5.926
 9918TIP3    H129699   6.622   1.227   5.888
 9918TIP3    H229700   6.648   1.104   5.972
 9919TIP3   OH229701   7.760   1.822   5.161
 9919TIP3    H129702   7.760   1.916   5.143
 9919TIP3    H229703   7.847   1.792   5.134
 9920TIP3   OH229704   6.485   1.587   6.847
 9920TIP3    H129705   6.416   1.566   6.785
 9920TIP3    H229706   6.520   1.502   6.875
 9921TIP3   OH229707   6.335   1.775   6.503
 9921TIP3    H129708   6.427   1.798   6.520
 9921TIP3    H229709   6.286   1.852   6.531
 9922TIP3   OH229710   8.177   2.263   6.523
 9922TIP3    H129711   8.207   2.172   6.518
 9922TIP3    H229712   8.097   2.259   6.575
 9923TIP3   OH229713   7.290   2.002   6.673
 9923TIP3    H129714   7.292   2.093   6.700
 9923TIP3    H229715   7.220   1.963   6.725
 9924TIP3   OH229716   7.079   2.111   5.632
 9924TIP3    H129717   7.032   2.091   5.551
 9924TIP3    H229718   7.042   2.194   5.662
 9925TIP3   OH229719   6.510   1.962   6.009
 9925TIP3    H129720   6.554   1.955   6.094
 9925TIP3    H229721   6.461   1.881   6.001
 9926TIP3   OH229722   7.278   2.041   5.260
 9926TIP3    H129723   7.328   1.969   5.223
 9926TIP3    H229724   7.313   2.052   5.348
 9927TIP3   OH229725   7.332   2.082   5.530
 9927TIP3    H129726   7.246   2.086   5.570
 9927TIP3    H229727   7.390   2.050   5.600
 9928TIP3   OH229728   6.681   1.777   6.813
 9928TIP3    H129729   6.730   1.766   6.895
 9928TIP3    H229730   6.610   1.713   6.818
 9929TIP3   OH229731   7.517   1.218   5.298
 9929TIP3    H129732   7.467   1.217   5.216
 9929TIP3    H229733   7.600   1.261   5.275
 9930TIP3   OH229734   7.009   1.104   6.655
 9930TIP3    H129735   6.974   1.124   6.742
 9930TIP3    H229736   6.991   1.181   6.603
 9931TIP3   OH229737   6.913   1.056   6.122
 9931TIP3    H129738   6.819   1.039   6.128
 9931TIP3    H229739   6.939   1.020   6.038
 9932TIP3   OH229740   7.381   1.106   5.920
 9932TIP3    H129741   7.324   1.169   5.876
 9932TIP3    H229742   7.436   1.071   5.850
 9933TIP3   OH229743   7.525   1.208   6.128
 9933TIP3    H129744   7.495   1.299   6.115
 9933TIP3    H229745   7.474   1.157   6.065
 9934TIP3   OH229746   6.829   1.098   6.872
 9934TIP3    H129747   6.848   1.126   6.961
 9934TIP3    H229748   6.830   1.003   6.876
 9935TIP3   OH229749   6.459   0.858   5.966
 9935TIP3    H129750   6.494   0.826   5.883
 9935TIP3    H229751   6.466   0.783   6.025
 9936TIP3   OH229752   7.473   1.373   6.556
 9936TIP3    H129753   7.501   1.292   6.513
 9936TIP3    H229754   7.551   1.407   6.598
 9937TIP3   OH229755   6.657   0.953   6.141
 9937TIP3    H129756   6.568   0.972   6.171
 9937TIP3    H229757   6.645   0.889   6.071
 9938TIP3   OH229758   6.960   0.936   5.883
 9938TIP3    H129759   7.053   0.919   5.874
 9938TIP3    H229760   6.925   0.931   5.793
 9939TIP3   OH229761   6.812   0.878   5.661
 9939TIP3    H129762   6.727   0.861   5.619
 9939TIP3    H229763   6.859   0.932   5.598
 9940TIP3   OH229764   7.906   2.558   6.637
 9940TIP3    H129765   7.900   2.586   6.546
 9940TIP3    H229766   7.975   2.613   6.675
 9941TIP3   OH229767   1.160   5.707   0.105
 9941TIP3    H129768   1.241   5.728   0.151
 9941TIP3    H229769   1.094   5.699   0.174
 9942TIP3   OH229770   7.310   1.175   6.327
 9942TIP3    H129771   7.364   1.108   6.286
 9942TIP3    H229772   7.311   1.153   6.420
 9943TIP3   OH229773   7.282   1.092   6.585
 9943TIP3    H129774   7.199   1.084   6.632
 9943TIP3    H229775   7.348   1.104   6.653
 9944TIP3   OH229776   7.006   1.405   5.699
 9944TIP3    H129777   6.931   1.349   5.680
 9944TIP3    H229778   6.985   1.446   5.783
 9945TIP3   OH229779   7.920   1.658   6.311
 9945TIP3    H129780   7.954   1.711   6.239
 9945TIP3    H229781   7.836   1.625   6.280
 9946TIP3   OH229782   7.351   0.869   5.484
 9946TIP3    H129783   7.327   0.791   5.534
 9946TIP3    H229784   7.445   0.879   5.498
 9947TIP3   OH229785   7.394   1.736   6.696
 9947TIP3    H129786   7.434   1.719   6.781
 9947TIP3    H229787   7.360   1.825   6.703
 9948TIP3   OH229788   7.539   1.000   5.728
 9948TIP3    H129789   7.620   1.038   5.762
 9948TIP3    H229790   7.523   1.048   5.647
 9949TIP3   OH229791   6.701   1.433   6.353
 9949TIP3    H129792   6.738   1.410   6.268
 9949TIP3    H229793   6.751   1.382   6.416
 9950TIP3   OH229794   7.168   1.565   5.550
 9950TIP3    H129795   7.123   1.649   5.547
 9950TIP3    H229796   7.109   1.508   5.599
 9951TIP3   OH229797   0.924   5.376   0.040
 9951TIP3    H129798   0.953   5.365   0.131
 9951TIP3    H229799   0.855   5.311   0.029
 9952TIP3   OH229800   1.664   5.514   0.040
 9952TIP3    H129801   1.643   5.486  -0.049
 9952TIP3    H229802   1.660   5.434   0.092
 9953TIP3   OH229803   7.560   1.998   6.575
 9953TIP3    H129804   7.466   1.983   6.574
 9953TIP3    H229805   7.576   2.051   6.653
 9954TIP3   OH229806   7.930   1.108   5.475
 9954TIP3    H129807   7.870   1.070   5.411
 9954TIP3    H229808   7.949   1.195   5.441
 9955TIP3   OH229809   7.709   1.880   5.433
 9955TIP3    H129810   7.651   1.822   5.482
 9955TIP3    H229811   7.712   1.843   5.345
 9956TIP3   OH229812   7.691   1.512   6.248
 9956TIP3    H129813   7.597   1.497   6.254
 9956TIP3    H229814   7.722   1.444   6.188
 9957TIP3   OH229815   6.829   1.761   6.018
 9957TIP3    H129816   6.824   1.836   5.959
 9957TIP3    H229817   6.739   1.749   6.050
 9958TIP3   OH229818   6.374   1.063   5.725
 9958TIP3    H129819   6.429   1.139   5.742
 9958TIP3    H229820   6.302   1.070   5.788
 9959TIP3   OH229821   6.924   1.519   5.929
 9959TIP3    H129822   6.904   1.609   5.954
 9959TIP3    H229823   6.889   1.465   6.000
 9960TIP3   OH229824   7.108   2.081   6.469
 9960TIP3    H129825   7.144   2.155   6.419
 9960TIP3    H229826   7.182   2.048   6.520
 9961TIP3   OH229827   6.745   1.981   5.865
 9961TIP3    H129828   6.658   1.987   5.904
 9961TIP3    H229829   6.780   2.070   5.870
 9962TIP3   OH229830   7.472   1.723   6.436
 9962TIP3    H129831   7.443   1.721   6.527
 9962TIP3    H229832   7.565   1.703   6.439
 9963TIP3   OH229833   7.450   1.626   5.309
 9963TIP3    H129834   7.495   1.590   5.385
 9963TIP3    H229835   7.363   1.585   5.311
 9964TIP3   OH229836   7.714   2.239   6.482
 9964TIP3    H129837   7.638   2.180   6.483
 9964TIP3    H229838   7.697   2.299   6.409
 9965TIP3   OH229839   7.782   2.094   5.131
 9965TIP3    H129840   7.817   2.161   5.072
 9965TIP3    H229841   7.706   2.135   5.172
 9966TIP3   OH229842   7.607   1.520   5.504
 9966TIP3    H129843   7.596   1.474   5.587
 9966TIP3    H229844   7.702   1.533   5.496
 9967TIP3   OH229845   6.540   1.969   6.630
 9967TIP3    H129846   6.592   1.909   6.684
 9967TIP3    H229847   6.553   2.054   6.671
 9968TIP3   OH229848   6.811   1.595   5.327
 9968TIP3    H129849   6.820   1.504   5.300
 9968TIP3    H229850   6.794   1.591   5.421
 9969TIP3   OH229851   6.751   1.605   5.597
 9969TIP3    H129852   6.819   1.577   5.660
 9969TIP3    H229853   6.750   1.700   5.604
 9970TIP3   OH229854   6.483   1.308   5.807
 9970TIP3    H129855   6.417   1.354   5.858
 9970TIP3    H229856   6.502   1.367   5.734
 9971TIP3   OH229857   7.024   1.795   5.542
 9971TIP3    H129858   6.938   1.817   5.576
 9971TIP3    H229859   7.046   1.867   5.483
 9972TIP3   OH229860   7.229   0.886   5.894
 9972TIP3    H129861   7.276   0.968   5.908
 9972TIP3    H229862   7.222   0.848   5.982
 9973TIP3   OH229863   7.464   1.146   6.787
 9973TIP3    H129864   7.510   1.225   6.759
 9973TIP3    H229865   7.525   1.104   6.848
 9974TIP3   OH229866   6.771   1.876   5.613
 9974TIP3    H129867   6.750   1.946   5.552
 9974TIP3    H229868   6.759   1.915   5.700
 9975TIP3   OH229869   7.788   1.276   6.117
 9975TIP3    H129870   7.703   1.239   6.142
 9975TIP3    H229871   7.850   1.240   6.180
 9976TIP3   OH229872   6.501   1.482   5.588
 9976TIP3    H129873   6.572   1.546   5.597
 9976TIP3    H229874   6.535   1.417   5.526
 9977TIP3   OH229875   6.223   0.814   5.713
 9977TIP3    H129876   6.271   0.896   5.728
 9977TIP3    H229877   6.271   0.771   5.642
 9978TIP3   OH229878   7.744   2.235   6.048
 9978TIP3    H129879   7.699   2.285   5.980
 9978TIP3    H229880   7.837   2.252   6.032
 9979TIP3   OH229881   6.335   1.738   5.988
 9979TIP3    H129882   6.295   1.776   6.066
 9979TIP3    H229883   6.292   1.782   5.914
 9980TIP3   OH229884   0.863   6.282   0.110
 9980TIP3    H129885   0.946   6.285   0.158
 9980TIP3    H229886   0.844   6.188   0.101
 9981TIP3   OH229887   1.325   6.197   0.165
 9981TIP3    H129888   1.419   6.201   0.147
 9981TIP3    H229889   1.289   6.142   0.095
 9982TIP3   OH229890   6.967   1.792   5.216
 9982TIP3    H129891   6.920   1.722   5.261
 9982TIP3    H229892   7.041   1.748   5.174
 9983TIP3   OH229893   7.577   2.139   6.806
 9983TIP3    H129894   7.580   2.080   6.881
 9983TIP3    H229895   7.643   2.205   6.825
 9984TIP3   OH229896   7.407   1.834   5.136
 9984TIP3    H129897   7.439   1.767   5.197
 9984TIP3    H229898   7.466   1.827   5.061
 9985TIP3   OH229899   0.970   5.670   0.302
 9985TIP3    H129900   0.987   5.576   0.309
 9985TIP3    H229901   0.884   5.676   0.261
 9986TIP3   OH229902   6.629   1.288   5.446
 9986TIP3    H129903   6.679   1.265   5.524
 9986TIP3    H229904   6.696   1.305   5.379
 9987TIP3   OH229905   1.599   5.777   0.079
 9987TIP3    H129906   1.548   5.802   0.002
 9987TIP3    H229907   1.621   5.685   0.065
 9988TIP3   OH229908   7.197   1.515   5.281
 9988TIP3    H129909   7.177   1.524   5.374
 9988TIP3    H229910   7.179   1.423   5.261
 9989TIP3   OH229911   7.719   1.770   6.619
 9989TIP3    H129912   7.807   1.797   6.595
 9989TIP3    H229913   7.665   1.847   6.605
 9990TIP3   OH229914   1.083   5.403   0.280
 9990TIP3    H129915   1.156   5.350   0.247
 9990TIP3    H229916   1.105   5.421   0.371
 9991TIP3   OH229917   6.797   1.227   5.662
 9991TIP3    H129918   6.775   1.193   5.749
 9991TIP3    H229919   6.846   1.156   5.620
 9992TIP3   OH229920   7.071   1.300   6.877
 9992TIP3    H129921   6.994   1.357   6.883
 9992TIP3    H229922   7.132   1.348   6.821
 9993TIP3   OH229923   6.938   1.052   5.499
 9993TIP3    H129924   6.906   1.059   5.409
 9993TIP3    H229925   7.032   1.070   5.492
 9994TIP3   OH229926   7.739   1.325   5.167
 9994TIP3    H129927   7.721   1.290   5.080
 9994TIP3    H229928   7.716   1.418   5.161
 9995TIP3   OH229929   7.218   1.064   6.892
 9995TIP3    H129930   7.305   1.093   6.864
 9995TIP3    H229931   7.163   1.142   6.884
 9996TIP3   OH229932   7.257   1.429   6.722
 9996TIP3    H129933   7.329   1.407   6.663
 9996TIP3    H229934   7.200   1.486   6.670
 9997TIP3   OH229935   1.304   5.185   0.165
 9997TIP3    H129936   1.347   5.100   0.165
 9997TIP3    H229937   1.348   5.234   0.094
 9998TIP3   OH229938   6.764   2.080   5.428
 9998TIP3    H129939   6.855   2.064   5.402
 9998TIP3    H229940   6.726   2.127   5.353
 9999TIP3   OH229941   6.230   1.466   5.613
 9999TIP3    H129942   6.324   1.482   5.606
 9999TIP3    H229943   6.216   1.381   5.572
10000TIP3   OH229944   6.142   2.051   6.068
10000TIP3    H129945   6.076   1.999   6.022
10000TIP3    H229946   6.185   1.989   6.127
10001TIP3   OH229947   6.283   1.881   6.236
10001TIP3    H129948   6.275   1.815   6.304
10001TIP3    H229949   6.333   1.952   6.277
10002TIP3   OH229950   8.011   2.302   6.034
10002TIP3    H129951   8.021   2.319   6.127
10002TIP3    H229952   8.037   2.383   5.992
10003TIP3   OH229953   8.008   2.326   6.310
10003TIP3    H129954   7.970   2.238   6.312
10003TIP3    H229955   8.085   2.321   6.367
10004TIP3   OH229956   7.882   1.570   5.497
10004TIP3    H129957   7.879   1.665   5.501
10004TIP3    H229958   7.933   1.544   5.574
10005TIP3   OH229959   8.022   1.508   5.720
10005TIP3    H129960   7.959   1.459   5.773
10005TIP3    H229961   8.106   1.494   5.764
10006TIP3   OH229962   8.067   1.800   6.131
10006TIP3    H129963   8.123   1.735   6.088
10006TIP3    H229964   8.074   1.878   6.075
10007TIP3   OH229965   7.893   2.077   6.335
10007TIP3    H129966   7.821   2.114   6.386
10007TIP3    H229967   7.851   2.032   6.262
10008TIP3   OH229968   7.951   1.349   5.344
10008TIP3    H129969   7.882   1.341   5.279
10008TIP3    H229970   7.926   1.426   5.395
10009TIP3   OH229971   7.774   1.016   5.269
10009TIP3    H129972   7.755   1.085   5.206
10009TIP3    H229973   7.801   0.941   5.215
10010TIP3   OH229974   7.844   1.349   5.857
10010TIP3    H129975   7.884   1.268   5.825
10010TIP3    H229976   7.838   1.338   5.951
10011TIP3   OH229977   6.461   1.324   6.619
10011TIP3    H129978   6.449   1.304   6.526
10011TIP3    H229979   6.554   1.310   6.634
10012TIP3   OH229980   7.953   1.122   5.746
10012TIP3    H129981   7.895   1.055   5.784
10012TIP3    H229982   7.947   1.108   5.652
10013TIP3   OH229983   7.976   1.194   6.296
10013TIP3    H129984   8.066   1.210   6.269
10013TIP3    H229985   7.965   1.249   6.374
10014TIP3   OH229986   1.026   5.026   0.363
10014TIP3    H129987   1.047   5.083   0.437
10014TIP3    H229988   0.950   4.975   0.393
10015TIP3   OH229989   6.412   0.976   6.704
10015TIP3    H129990   6.459   0.956   6.623
10015TIP3    H229991   6.458   1.054   6.738
10016TIP3   OH229992   7.582   2.195   5.688
10016TIP3    H129993   7.640   2.189   5.612
10016TIP3    H229994   7.616   2.269   5.738
10017TIP3   OH229995   1.000   6.006   0.129
10017TIP3    H129996   0.909   5.987   0.108
10017TIP3    H229997   1.007   5.989   0.223
10018TIP3   OH229998   6.884   2.040   6.623
10018TIP3    H129999   6.829   2.112   6.591
10018TIP3    H230000   6.967   2.050   6.576
10019TIP3   OH230001   7.281   2.271   6.749
10019TIP3    H130002   7.316   2.276   6.838
10019TIP3    H230003   7.344   2.321   6.696
10020TIP3   OH230004   7.471   2.426   6.621
10020TIP3    H130005   7.534   2.376   6.568
10020TIP3    H230006   7.525   2.489   6.669
10021TIP3   OH230007   6.543   2.276   6.668
10021TIP3    H130008   6.452   2.292   6.641
10021TIP3    H230009   6.562   2.346   6.730
10022TIP3   OH230010   6.773   2.269   6.515
10022TIP3    H130011   6.689   2.274   6.562
10022TIP3    H230012   6.752   2.296   6.426
10023TIP3   OH230013   7.191   2.288   6.304
10023TIP3    H130014   7.119   2.299   6.242
10023TIP3    H230015   7.202   2.375   6.344
10024TIP3   OH230016   7.454   2.216   6.354
10024TIP3    H130017   7.363   2.238   6.334
10024TIP3    H230018   7.505   2.282   6.307
10025TIP3   OH230019   7.654   2.390   6.257
10025TIP3    H130020   7.654   2.479   6.221
10025TIP3    H230021   7.683   2.335   6.184
10026TIP3   OH230022   6.454   2.062   6.380
10026TIP3    H130023   6.477   2.037   6.470
10026TIP3    H230024   6.526   2.030   6.327
10027TIP3   OH230025   6.657   1.947   6.242
10027TIP3    H130026   6.668   1.865   6.290
10027TIP3    H230027   6.743   1.988   6.245
10028TIP3   OH230028   6.923   2.034   6.265
10028TIP3    H130029   6.942   1.941   6.252
10028TIP3    H230030   6.976   2.058   6.341
10029TIP3   OH230031   6.218   1.858   5.772
10029TIP3    H130032   6.134   1.827   5.739
10029TIP3    H230033   6.225   1.948   5.739
10030TIP3   OH230034   7.023   2.014   5.363
10030TIP3    H130035   7.106   2.043   5.325
10030TIP3    H230036   6.994   1.944   5.306
10031TIP3   OH230037   7.737   2.154   5.460
10031TIP3    H130038   7.732   2.059   5.453
10031TIP3    H230039   7.689   2.186   5.383
10032TIP3   OH230040   6.323   1.853   5.417
10032TIP3    H130041   6.326   1.875   5.510
10032TIP3    H230042   6.406   1.809   5.400
10033TIP3   OH230043   7.928   2.286   6.657
10033TIP3    H130044   7.860   2.256   6.597
10033TIP3    H230045   7.926   2.381   6.648
10034TIP3   OH230046  -0.006   1.977   5.916
10034TIP3    H130047  -0.046   1.898   5.952
10034TIP3    H230048   0.082   1.979   5.953
10035TIP3   OH230049   8.205   1.249   5.728
10035TIP3    H130050   8.118   1.209   5.733
10035TIP3    H230051   8.239   1.222   5.643
10036TIP3   OH230052   8.293   1.478   5.836
10036TIP3    H130053   8.269   1.389   5.811
10036TIP3    H230054   8.358   1.505   5.771
10037TIP3   OH230055   8.290   1.825   6.302
10037TIP3    H130056   8.207   1.826   6.253
10037TIP3    H230057   8.272   1.770   6.378
10038TIP3   OH230058   8.124   2.047   6.001
10038TIP3    H130059   8.210   2.076   6.033
10038TIP3    H230060   8.067   2.123   6.014
10039TIP3   OH230061   8.290   2.155   5.538
10039TIP3    H130062   8.323   2.193   5.619
10039TIP3    H230063   8.197   2.139   5.555
10040TIP3   OH230064   8.282   1.148   5.486
10040TIP3    H130065   8.298   1.138   5.392
10040TIP3    H230066   8.251   1.062   5.515
10041TIP3   OH230067   8.199   1.306   5.233
10041TIP3    H130068   8.249   1.388   5.239
10041TIP3    H230069   8.119   1.322   5.283
10042TIP3   OH230070   8.321   2.234   6.112
10042TIP3    H130071   8.400   2.194   6.147
10042TIP3    H230072   8.324   2.325   6.144
10043TIP3   OH230073   8.264   1.575   5.271
10043TIP3    H130074   8.180   1.598   5.310
10043TIP3    H230075   8.274   1.637   5.198
10044TIP3   OH230076   8.280   1.758   5.065
10044TIP3    H130077   8.337   1.834   5.078
10044TIP3    H230078   8.300   1.729   4.976
10045TIP3   OH230079   8.067   1.103   5.112
10045TIP3    H130080   8.113   1.175   5.156
10045TIP3    H230081   8.072   1.031   5.175
10046TIP3   OH230082   8.310   2.514   6.556
10046TIP3    H130083   8.360   2.491   6.634
10046TIP3    H230084   8.268   2.431   6.530
10047TIP3   OH230085   8.005   1.733   5.075
10047TIP3    H130086   8.099   1.747   5.085
10047TIP3    H230087   7.998   1.642   5.045
10048TIP3   OH230088   7.948   2.308   5.543
10048TIP3    H130089   7.879   2.256   5.501
10048TIP3    H230090   7.984   2.250   5.610
10049TIP3   OH230091   8.080   2.152   5.726
10049TIP3    H130092   8.060   2.081   5.787
10049TIP3    H230093   8.132   2.213   5.778
10050TIP3   OH230094   8.251   1.595   6.080
10050TIP3    H130095   8.262   1.551   5.996
10050TIP3    H230096   8.340   1.618   6.107
10051TIP3   OH230097   8.315   2.509   6.168
10051TIP3    H130098   8.229   2.532   6.133
10051TIP3    H230099   8.336   2.580   6.229
10052TIP3   OH230100   0.030   2.470   5.992
10052TIP3    H130101  -0.036   2.491   6.058
10052TIP3    H230102   0.013   2.532   5.921
10053TIP3   OH230103   8.268   2.310   5.850
10053TIP3    H130104   8.270   2.293   5.944
10053TIP3    H230105   8.358   2.294   5.821
10054TIP3   OH230106  -0.011   2.167   5.721
10054TIP3    H130107  -0.019   2.098   5.787
10054TIP3    H230108   0.061   2.221   5.752
10055TIP3   OH230109   8.058   2.099   5.238
10055TIP3    H130110   7.973   2.054   5.238
10055TIP3    H230111   8.037   2.189   5.211
10056TIP3   OH230112   8.081   2.127   4.940
10056TIP3    H130113   8.046   2.198   4.994
10056TIP3    H230114   8.116   2.064   5.003
10057TIP3   OH230115   4.504   6.480   0.137
10057TIP3    H130116   4.482   6.567   0.104
10057TIP3    H230117   4.435   6.424   0.102
10058TIP3   OH230118   4.513   6.466   0.417
10058TIP3    H130119   4.468   6.395   0.462
10058TIP3    H230120   4.482   6.462   0.327
10059TIP3   OH230121   4.787   6.763   0.164
10059TIP3    H130122   4.783   6.697   0.233
10059TIP3    H230123   4.822   6.841   0.207
10060TIP3   OH230124   3.722   6.724   0.685
10060TIP3    H130125   3.676   6.651   0.642
10060TIP3    H230126   3.813   6.713   0.659
10061TIP3   OH230127   3.518   6.345   0.583
10061TIP3    H130128   3.505   6.250   0.583
10061TIP3    H230129   3.611   6.357   0.568
10062TIP3   OH230130   4.446   7.246   0.199
10062TIP3    H130131   4.490   7.185   0.140
10062TIP3    H230132   4.396   7.189   0.258
10063TIP3   OH230133   5.352   5.992   0.488
10063TIP3    H130134   5.265   6.033   0.485
10063TIP3    H230135   5.397   6.026   0.410
10064TIP3   OH230136   4.756   6.220   0.546
10064TIP3    H130137   4.752   6.135   0.589
10064TIP3    H230138   4.710   6.208   0.463
10065TIP3   OH230139   4.064   5.865   0.572
10065TIP3    H130140   4.014   5.927   0.519
10065TIP3    H230141   4.082   5.792   0.513
10066TIP3   OH230142   4.775   5.973   0.153
10066TIP3    H130143   4.840   5.992   0.220
10066TIP3    H230144   4.820   5.990   0.070
10067TIP3   OH230145   4.155   6.177   0.484
10067TIP3    H130146   4.183   6.206   0.571
10067TIP3    H230147   4.064   6.151   0.495
10068TIP3   OH230148   5.368   6.186   0.862
10068TIP3    H130149   5.307   6.229   0.802
10068TIP3    H230150   5.451   6.234   0.850
10069TIP3   OH230151   1.574   2.688   6.930
10069TIP3    H130152   1.535   2.659   6.847
10069TIP3    H230153   1.523   2.765   6.954
10070TIP3   OH230154   4.960   6.020   0.342
10070TIP3    H130155   4.952   5.976   0.427
10070TIP3    H230156   5.021   6.091   0.357
10071TIP3   OH230157   3.378   6.486   0.055
10071TIP3    H130158   3.286   6.500   0.029
10071TIP3    H230159   3.401   6.565   0.103
10072TIP3   OH230160   4.845   7.008   0.284
10072TIP3    H130161   4.761   7.010   0.328
10072TIP3    H230162   4.855   7.096   0.247
10073TIP3   OH230163   5.031   5.787   0.862
10073TIP3    H130164   4.949   5.820   0.827
10073TIP3    H230165   5.096   5.807   0.794
10074TIP3   OH230166   1.704   3.056   6.956
10074TIP3    H130167   1.747   2.973   6.935
10074TIP3    H230168   1.765   3.123   6.924
10075TIP3   OH230169   1.817   2.819   6.877
10075TIP3    H130170   1.740   2.763   6.888
10075TIP3    H230171   1.875   2.793   6.949
10076TIP3   OH230172   5.076   6.905   0.654
10076TIP3    H130173   5.053   6.818   0.623
10076TIP3    H230174   5.003   6.961   0.629
10077TIP3   OH230175   1.507   2.318   6.913
10077TIP3    H130176   1.421   2.351   6.886
10077TIP3    H230177   1.557   2.313   6.831
10078TIP3   OH230178   1.462   2.109   6.627
10078TIP3    H130179   1.530   2.162   6.670
10078TIP3    H230180   1.511   2.040   6.582
10079TIP3   OH230181   5.222   6.541   0.482
10079TIP3    H130182   5.137   6.580   0.503
10079TIP3    H230183   5.258   6.597   0.413
10080TIP3   OH230184   1.851   2.399   6.879
10080TIP3    H130185   1.805   2.428   6.958
10080TIP3    H230186   1.936   2.368   6.910
10081TIP3   OH230187   4.901   6.485   0.970
10081TIP3    H130188   4.869   6.573   0.952
10081TIP3    H230189   4.847   6.428   0.915
10082TIP3   OH230190   3.947   6.390   0.357
10082TIP3    H130191   3.931   6.356   0.269
10082TIP3    H230192   4.042   6.391   0.366
10083TIP3   OH230193   3.981   6.681   0.609
10083TIP3    H130194   3.996   6.657   0.517
10083TIP3    H230195   4.065   6.662   0.652
10084TIP3   OH230196   3.985   6.360   0.709
10084TIP3    H130197   3.997   6.265   0.701
10084TIP3    H230198   4.074   6.395   0.711
10085TIP3   OH230199   4.617   7.060   0.424
10085TIP3    H130200   4.586   7.149   0.440
10085TIP3    H230201   4.669   7.039   0.501
10086TIP3   OH230202   1.684   2.265   6.710
10086TIP3    H130203   1.745   2.322   6.757
10086TIP3    H230204   1.712   2.269   6.618
10087TIP3   OH230205   4.274   6.934   0.028
10087TIP3    H130206   4.337   6.983   0.081
10087TIP3    H230207   4.221   7.000  -0.015
10088TIP3   OH230208   2.211   1.479   6.746
10088TIP3    H130209   2.133   1.505   6.796
10088TIP3    H230210   2.230   1.554   6.690
10089TIP3   OH230211   3.806   6.222   0.153
10089TIP3    H130212   3.732   6.267   0.114
10089TIP3    H230213   3.780   6.206   0.244
10090TIP3   OH230214   2.018   2.857   6.337
10090TIP3    H130215   2.016   2.952   6.321
10090TIP3    H230216   2.107   2.831   6.316
10091TIP3   OH230217   5.249   7.267   0.650
10091TIP3    H130218   5.289   7.182   0.669
10091TIP3    H230219   5.155   7.251   0.657
10092TIP3   OH230220   4.352   7.109   0.921
10092TIP3    H130221   4.317   7.192   0.952
10092TIP3    H230222   4.281   7.046   0.935
10093TIP3   OH230223   1.319   3.153   6.810
10093TIP3    H130224   1.271   3.132   6.731
10093TIP3    H230225   1.290   3.241   6.833
10094TIP3   OH230226   3.587   7.059   0.188
10094TIP3    H130227   3.633   7.112   0.254
10094TIP3    H230228   3.526   7.005   0.238
10095TIP3   OH230229   1.527   3.081   6.439
10095TIP3    H130230   1.578   3.008   6.403
10095TIP3    H230231   1.561   3.093   6.527
10096TIP3   OH230232   1.574   3.126   6.711
10096TIP3    H130233   1.486   3.131   6.748
10096TIP3    H230234   1.627   3.086   6.779
10097TIP3   OH230235   1.770   2.246   6.455
10097TIP3    H130236   1.728   2.241   6.369
10097TIP3    H230237   1.851   2.295   6.439
10098TIP3   OH230238   1.497   1.639   6.700
10098TIP3    H130239   1.490   1.628   6.794
10098TIP3    H230240   1.427   1.585   6.664
10099TIP3   OH230241   3.958   6.019   0.358
10099TIP3    H130242   3.899   5.944   0.362
10099TIP3    H230243   3.967   6.038   0.265
10100TIP3   OH230244   4.468   6.113   0.086
10100TIP3    H130245   4.416   6.187   0.055
10100TIP3    H230246   4.529   6.094   0.015
10101TIP3   OH230247   4.660   6.184   0.288
10101TIP3    H130248   4.579   6.204   0.240
10101TIP3    H230249   4.684   6.097   0.257
10102TIP3   OH230250   1.186   1.763   6.770
10102TIP3    H130251   1.177   1.680   6.816
10102TIP3    H230252   1.101   1.778   6.728
10103TIP3   OH230253   4.683   6.344   0.800
10103TIP3    H130254   4.753   6.288   0.768
10103TIP3    H230255   4.707   6.432   0.771
10104TIP3   OH230256   4.405   5.751   0.520
10104TIP3    H130257   4.314   5.730   0.498
10104TIP3    H230258   4.400   5.839   0.559
10105TIP3   OH230259   3.797   5.808   0.353
10105TIP3    H130260   3.717   5.860   0.366
10105TIP3    H230261   3.775   5.748   0.282
10106TIP3   OH230262   3.998   5.956   0.089
10106TIP3    H130263   4.071   5.931   0.034
10106TIP3    H230264   3.923   5.962   0.029
10107TIP3   OH230265   4.767   6.003   0.746
10107TIP3    H130266   4.765   5.967   0.835
10107TIP3    H230267   4.718   5.940   0.694
10108TIP3   OH230268   0.973   1.979   6.833
10108TIP3    H130269   0.939   1.909   6.777
10108TIP3    H230270   1.046   2.016   6.783
10109TIP3   OH230271   5.031   7.574   0.930
10109TIP3    H130272   4.968   7.581   0.858
10109TIP3    H230273   5.062   7.664   0.943
10110TIP3   OH230274   3.899   5.570   0.452
10110TIP3    H130275   3.808   5.540   0.449
10110TIP3    H230276   3.900   5.648   0.396
10111TIP3   OH230277   1.274   2.437   6.833
10111TIP3    H130278   1.193   2.388   6.816
10111TIP3    H230279   1.256   2.485   6.914
10112TIP3   OH230280   4.983   6.708   0.479
10112TIP3    H130281   5.018   6.767   0.412
10112TIP3    H230282   4.909   6.665   0.437
10113TIP3   OH230283   1.729   1.767   6.778
10113TIP3    H130284   1.640   1.748   6.750
10113TIP3    H230285   1.734   1.862   6.779
10114TIP3   OH230286   1.802   2.035   6.816
10114TIP3    H130287   1.897   2.032   6.816
10114TIP3    H230288   1.780   2.112   6.763
10115TIP3   OH230289   3.778   6.446   0.567
10115TIP3    H130290   3.820   6.425   0.483
10115TIP3    H230291   3.846   6.428   0.632
10116TIP3   OH230292   1.432   2.613   6.698
10116TIP3    H130293   1.380   2.694   6.701
10116TIP3    H230294   1.377   2.548   6.741
10117TIP3   OH230295   4.582   7.091   0.763
10117TIP3    H130296   4.514   7.112   0.827
10117TIP3    H230297   4.659   7.068   0.816
10118TIP3   OH230298   2.220   2.119   6.656
10118TIP3    H130299   2.171   2.067   6.591
10118TIP3    H230300   2.216   2.209   6.622
10119TIP3   OH230301   5.334   7.016   0.719
10119TIP3    H130302   5.269   6.983   0.781
10119TIP3    H230303   5.320   6.963   0.640
10120TIP3   OH230304   1.935   2.930   6.611
10120TIP3    H130305   1.904   2.869   6.678
10120TIP3    H230306   1.952   2.874   6.535
10121TIP3   OH230307   4.764   6.567   0.366
10121TIP3    H130308   4.677   6.530   0.377
10121TIP3    H230309   4.819   6.494   0.337
10122TIP3   OH230310   3.963   6.822   0.105
10122TIP3    H130311   3.985   6.914   0.094
10122TIP3    H230312   3.868   6.820   0.115
10123TIP3   OH230313   0.564   2.149   6.895
10123TIP3    H130314   0.639   2.209   6.892
10123TIP3    H230315   0.494   2.200   6.935
10124TIP3   OH230316   4.048   6.567   0.125
10124TIP3    H130317   4.051   6.663   0.124
10124TIP3    H230318   3.955   6.547   0.134
10125TIP3   OH230319   4.292   7.146   0.581
10125TIP3    H130320   4.278   7.234   0.546
10125TIP3    H230321   4.216   7.131   0.638
10126TIP3   OH230322   3.832   7.073   0.060
10126TIP3    H130323   3.742   7.071   0.092
10126TIP3    H230324   3.858   7.164   0.067
10127TIP3   OH230325   4.640   6.803   0.773
10127TIP3    H130326   4.584   6.725   0.773
10127TIP3    H230327   4.667   6.813   0.681
10128TIP3   OH230328   1.695   2.668   6.497
10128TIP3    H130329   1.758   2.639   6.562
10128TIP3    H230330   1.610   2.640   6.532
10129TIP3   OH230331   4.760   7.301   0.698
10129TIP3    H130332   4.690   7.237   0.681
10129TIP3    H230333   4.755   7.363   0.625
10130TIP3   OH230334   2.028   3.134   6.301
10130TIP3    H130335   2.067   3.204   6.249
10130TIP3    H230336   1.950   3.174   6.341
10131TIP3   OH230337   1.881   2.575   6.668
10131TIP3    H130338   1.866   2.523   6.747
10131TIP3    H230339   1.975   2.590   6.667
10132TIP3   OH230340   1.056   2.633   6.505
10132TIP3    H130341   1.070   2.542   6.479
10132TIP3    H230342   1.046   2.630   6.600
10133TIP3   OH230343   0.999   2.652   6.775
10133TIP3    H130344   1.040   2.627   6.858
10133TIP3    H230345   0.999   2.748   6.777
10134TIP3   OH230346   3.596   6.331   0.010
10134TIP3    H130347   3.525   6.390   0.034
10134TIP3    H230348   3.655   6.385  -0.043
10135TIP3   OH230349   4.642   5.718   0.094
10135TIP3    H130350   4.606   5.733   0.006
10135TIP3    H230351   4.636   5.803   0.138
10136TIP3   OH230352   1.272   2.831   6.707
10136TIP3    H130353   1.187   2.849   6.746
10136TIP3    H230354   1.293   2.910   6.657
10137TIP3   OH230355   4.269   5.916   0.058
10137TIP3    H130356   4.333   5.986   0.044
10137TIP3    H230357   4.257   5.913   0.153
10138TIP3   OH230358   4.449   5.614   0.269
10138TIP3    H130359   4.454   5.660   0.353
10138TIP3    H230360   4.518   5.652   0.216
10139TIP3   OH230361   1.016   2.924   6.769
10139TIP3    H130362   0.996   2.991   6.704
10139TIP3    H230363   1.010   2.970   6.853
10140TIP3   OH230364   4.046   5.698   0.194
10140TIP3    H130365   4.016   5.781   0.156
10140TIP3    H230366   4.030   5.633   0.126
10141TIP3   OH230367   4.887   6.332   0.292
10141TIP3    H130368   4.809   6.279   0.302
10141TIP3    H230369   4.955   6.285   0.341
10142TIP3   OH230370   0.750   2.535   6.741
10142TIP3    H130371   0.823   2.595   6.759
10142TIP3    H230372   0.789   2.467   6.686
10143TIP3   OH230373   0.702   1.796   6.815
10143TIP3    H130374   0.737   1.854   6.883
10143TIP3    H230375   0.680   1.715   6.861
10144TIP3   OH230376   4.847   7.281   0.243
10144TIP3    H130377   4.792   7.340   0.191
10144TIP3    H230378   4.937   7.310   0.226
10145TIP3   OH230379   3.380   6.723   0.205
10145TIP3    H130380   3.378   6.785   0.278
10145TIP3    H230381   3.362   6.778   0.128
10146TIP3   OH230382   1.214   2.831   6.391
10146TIP3    H130383   1.165   2.763   6.438
10146TIP3    H230384   1.289   2.785   6.354
10147TIP3   OH230385   1.657   2.872   6.317
10147TIP3    H130386   1.685   2.807   6.381
10147TIP3    H230387   1.720   2.864   6.245
10148TIP3   OH230388   0.880   2.329   6.617
10148TIP3    H130389   0.930   2.304   6.695
10148TIP3    H230390   0.947   2.341   6.549
10149TIP3   OH230391   1.406   2.550   6.430
10149TIP3    H130392   1.406   2.565   6.525
10149TIP3    H230393   1.406   2.455   6.420
10150TIP3   OH230394   4.883   6.756   0.900
10150TIP3    H130395   4.943   6.715   0.838
10150TIP3    H230396   4.800   6.760   0.854
10151TIP3   OH230397   1.051   2.276   6.829
10151TIP3    H130398   1.037   2.242   6.918
10151TIP3    H230399   1.100   2.207   6.785
10152TIP3   OH230400   1.183   2.088   6.684
10152TIP3    H130401   1.159   2.084   6.591
10152TIP3    H230402   1.279   2.082   6.684
10153TIP3   OH230403   1.988   2.379   6.350
10153TIP3    H130404   1.977   2.336   6.265
10153TIP3    H230405   1.958   2.469   6.335
10154TIP3   OH230406   1.014   3.136   6.594
10154TIP3    H130407   1.105   3.114   6.571
10154TIP3    H230408   0.980   3.180   6.516
10155TIP3   OH230409   0.478   2.514   6.697
10155TIP3    H130410   0.566   2.530   6.729
10155TIP3    H230411   0.471   2.418   6.692
10156TIP3   OH230412   3.135   7.182   0.135
10156TIP3    H130413   3.112   7.091   0.151
10156TIP3    H230414   3.105   7.228   0.213
10157TIP3   OH230415   3.261   6.970   0.668
10157TIP3    H130416   3.267   6.901   0.602
10157TIP3    H230417   3.330   7.032   0.643
10158TIP3   OH230418   5.098   7.373   0.225
10158TIP3    H130419   5.114   7.413   0.311
10158TIP3    H230420   5.168   7.406   0.169
10159TIP3   OH230421   5.101   7.442   0.491
10159TIP3    H130422   5.048   7.363   0.500
10159TIP3    H230423   5.184   7.421   0.533
10160TIP3   OH230424   2.155   2.594   6.675
10160TIP3    H130425   2.215   2.662   6.645
10160TIP3    H230426   2.202   2.551   6.747
10161TIP3   OH230427   2.287   2.442   6.859
10161TIP3    H130428   2.219   2.396   6.908
10161TIP3    H230429   2.347   2.475   6.926
10162TIP3   OH230430   5.132   6.850   0.306
10162TIP3    H130431   5.206   6.800   0.270
10162TIP3    H230432   5.138   6.936   0.264
10163TIP3   OH230433   4.984   7.195   0.504
10163TIP3    H130434   4.919   7.148   0.556
10163TIP3    H230435   4.977   7.158   0.416
10164TIP3   OH230436   2.190   2.362   6.531
10164TIP3    H130437   2.119   2.361   6.467
10164TIP3    H230438   2.174   2.440   6.584
10165TIP3   OH230439   2.059   2.000   6.465
10165TIP3    H130440   2.012   2.036   6.390
10165TIP3    H230441   2.055   1.905   6.452
10166TIP3   OH230442   4.920   6.294   0.027
10166TIP3    H130443   4.932   6.199   0.014
10166TIP3    H230444   4.914   6.304   0.122
10167TIP3   OH230445   5.202   6.856   0.893
10167TIP3    H130446   5.167   6.786   0.948
10167TIP3    H230447   5.142   6.861   0.819
10168TIP3   OH230448   5.353   6.422   1.062
10168TIP3    H130449   5.279   6.375   1.023
10168TIP3    H230450   5.422   6.357   1.070
10169TIP3   OH230451   2.027   1.726   6.423
10169TIP3    H130452   2.092   1.702   6.489
10169TIP3    H230453   1.944   1.695   6.459
10170TIP3   OH230454   2.103   2.013   6.880
10170TIP3    H130455   2.151   1.933   6.899
10170TIP3    H230456   2.147   2.050   6.803
10171TIP3   OH230457   5.103   6.229   0.431
10171TIP3    H130458   5.193   6.255   0.412
10171TIP3    H230459   5.109   6.180   0.512
10172TIP3   OH230460   5.191   6.318   0.705
10172TIP3    H130461   5.097   6.319   0.689
10172TIP3    H230462   5.222   6.401   0.670
10173TIP3   OH230463   5.044   5.764   0.007
10173TIP3    H130464   5.067   5.721   0.089
10173TIP3    H230465   4.977   5.708  -0.032
10174TIP3   OH230466   2.256   1.686   6.577
10174TIP3    H130467   2.298   1.638   6.506
10174TIP3    H230468   2.310   1.764   6.589
10175TIP3   OH230469   1.840   3.266   6.856
10175TIP3    H130470   1.890   3.244   6.778
10175TIP3    H230471   1.888   3.339   6.895
10176TIP3   OH230472   3.860   6.979   0.820
10176TIP3    H130473   3.834   7.064   0.783
10176TIP3    H230474   3.944   6.959   0.779
10177TIP3   OH230475   4.602   7.545   0.837
10177TIP3    H130476   4.680   7.499   0.867
10177TIP3    H230477   4.535   7.524   0.902
10178TIP3   OH230478   3.790   7.235   0.740
10178TIP3    H130479   3.781   7.310   0.799
10178TIP3    H230480   3.800   7.275   0.653
10179TIP3   OH230481   4.314   7.402   0.442
10179TIP3    H130482   4.256   7.407   0.366
10179TIP3    H230483   4.307   7.488   0.483
10180TIP3   OH230484   4.555   7.309   0.503
10180TIP3    H130485   4.470   7.335   0.465
10180TIP3    H230486   4.618   7.366   0.460
10181TIP3   OH230487   4.763   7.467   0.434
10181TIP3    H130488   4.766   7.544   0.378
10181TIP3    H230489   4.804   7.398   0.383
10182TIP3   OH230490   3.497   7.110   0.648
10182TIP3    H130491   3.497   7.123   0.743
10182TIP3    H230492   3.573   7.054   0.632
10183TIP3   OH230493   3.696   6.957   0.552
10183TIP3    H130494   3.697   6.883   0.612
10183TIP3    H230495   3.776   6.947   0.501
10184TIP3   OH230496   4.082   7.122   0.366
10184TIP3    H130497   4.024   7.048   0.351
10184TIP3    H230498   4.160   7.083   0.405
10185TIP3   OH230499   4.651   5.737   0.692
10185TIP3    H130500   4.629   5.645   0.709
10185TIP3    H230501   4.665   5.741   0.597
10186TIP3   OH230502   5.133   5.634   0.466
10186TIP3    H130503   5.188   5.674   0.398
10186TIP3    H230504   5.052   5.685   0.463
10187TIP3   OH230505   5.273   5.758   0.271
10187TIP3    H130506   5.295   5.705   0.195
10187TIP3    H230507   5.268   5.848   0.237
10188TIP3   OH230508   4.305   5.406   0.453
10188TIP3    H130509   4.314   5.488   0.406
10188TIP3    H230510   4.238   5.423   0.520
10189TIP3   OH230511   4.706   5.682   0.425
10189TIP3    H130512   4.776   5.719   0.369
10189TIP3    H230513   4.734   5.592   0.442
10190TIP3   OH230514   2.007   1.574   6.899
10190TIP3    H130515   1.931   1.618   6.937
10190TIP3    H230516   2.001   1.484   6.932
10191TIP3   OH230517   0.465   2.887   6.945
10191TIP3    H130518   0.420   2.833   6.879
10191TIP3    H230519   0.466   2.975   6.908
10192TIP3   OH230520   4.312   5.645   0.033
10192TIP3    H130521   4.354   5.645   0.119
10192TIP3    H230522   4.275   5.733   0.024
10193TIP3   OH230523   1.270   3.056   6.537
10193TIP3    H130524   1.355   3.082   6.501
10193TIP3    H230525   1.241   2.984   6.481
10194TIP3   OH230526   1.979   3.197   6.629
10194TIP3    H130527   1.970   3.102   6.626
10194TIP3    H230528   1.934   3.229   6.550
10195TIP3   OH230529   0.582   2.908   6.598
10195TIP3    H130530   0.590   2.944   6.687
10195TIP3    H230531   0.663   2.858   6.585
10196TIP3   OH230532   5.012   7.328   0.778
10196TIP3    H130533   4.926   7.306   0.743
10196TIP3    H230534   5.004   7.418   0.807
10197TIP3   OH230535   3.469   2.727   6.568
10197TIP3    H130536   3.439   2.814   6.542
10197TIP3    H230537   3.398   2.668   6.543
10198TIP3   OH230538   6.298   6.723   0.037
10198TIP3    H130539   6.343   6.707   0.120
10198TIP3    H230540   6.253   6.640   0.018
10199TIP3   OH230541   5.606   6.601   0.360
10199TIP3    H130542   5.632   6.522   0.408
10199TIP3    H230543   5.681   6.620   0.304
10200TIP3   OH230544   3.733   3.021   6.665
10200TIP3    H130545   3.721   2.957   6.736
10200TIP3    H230546   3.755   3.102   6.710
10201TIP3   OH230547   5.583   7.018   0.090
10201TIP3    H130548   5.568   6.924   0.089
10201TIP3    H230549   5.679   7.027   0.089
10202TIP3   OH230550   2.443   2.213   6.804
10202TIP3    H130551   2.399   2.297   6.816
10202TIP3    H230552   2.379   2.158   6.759
10203TIP3   OH230553   5.341   6.533   0.061
10203TIP3    H130554   5.391   6.457   0.091
10203TIP3    H230555   5.403   6.582   0.007
10204TIP3   OH230556   3.384   3.452   6.667
10204TIP3    H130557   3.419   3.386   6.607
10204TIP3    H230558   3.381   3.409   6.752
10205TIP3   OH230559   6.112   6.948   0.041
10205TIP3    H130560   6.155   6.868   0.012
10205TIP3    H230561   6.183   7.004   0.072
10206TIP3   OH230562   7.143   6.278   0.062
10206TIP3    H130563   7.159   6.360   0.108
10206TIP3    H230564   7.172   6.295  -0.028
10207TIP3   OH230565   6.519   6.433   0.092
10207TIP3    H130566   6.556   6.347   0.115
10207TIP3    H230567   6.478   6.419   0.007
10208TIP3   OH230568   5.875   6.078   0.031
10208TIP3    H130569   5.854   6.153  -0.025
10208TIP3    H230570   5.822   6.007  -0.005
10209TIP3   OH230571   3.732   2.191   6.625
10209TIP3    H130572   3.799   2.180   6.693
10209TIP3    H230573   3.779   2.226   6.550
10210TIP3   OH230574   5.492   6.327   0.157
10210TIP3    H130575   5.581   6.316   0.189
10210TIP3    H230576   5.485   6.265   0.084
10211TIP3   OH230577   3.087   2.501   6.921
10211TIP3    H130578   3.181   2.482   6.926
10211TIP3    H230579   3.048   2.418   6.893
10212TIP3   OH230580   7.198   6.490   0.237
10212TIP3    H130581   7.108   6.523   0.230
10212TIP3    H230582   7.230   6.528   0.319
10213TIP3   OH230583   5.857   6.118   0.453
10213TIP3    H130584   5.807   6.177   0.396
10213TIP3    H230585   5.836   6.146   0.542
10214TIP3   OH230586   3.366   2.943   6.427
10214TIP3    H130587   3.328   2.916   6.343
10214TIP3    H230588   3.314   3.019   6.453
10215TIP3   OH230589   5.960   6.873   0.255
10215TIP3    H130590   5.899   6.940   0.285
10215TIP3    H230591   6.008   6.913   0.183
10216TIP3   OH230592   3.912   2.205   6.830
10216TIP3    H130593   3.865   2.180   6.909
10216TIP3    H230594   3.962   2.283   6.854
10217TIP3   OH230595   5.744   6.230   0.219
10217TIP3    H130596   5.807   6.300   0.236
10217TIP3    H230597   5.788   6.172   0.157
10218TIP3   OH230598   5.781   7.067   0.324
10218TIP3    H130599   5.756   7.157   0.306
10218TIP3    H230600   5.704   7.028   0.366
10219TIP3   OH230601   2.336   2.772   6.565
10219TIP3    H130602   2.300   2.791   6.478
10219TIP3    H230603   2.359   2.858   6.601
10220TIP3   OH230604   3.774   3.268   6.802
10220TIP3    H130605   3.686   3.263   6.841
10220TIP3    H230606   3.774   3.351   6.754
10221TIP3   OH230607   6.942   6.176   0.230
10221TIP3    H130608   6.854   6.202   0.202
10221TIP3    H230609   7.000   6.205   0.159
10222TIP3   OH230610   6.226   5.795   0.132
10222TIP3    H130611   6.219   5.700   0.145
10222TIP3    H230612   6.204   5.833   0.217
10223TIP3   OH230613   3.485   3.296   6.460
10223TIP3    H130614   3.538   3.218   6.447
10223TIP3    H230615   3.540   3.369   6.431
10224TIP3   OH230616   3.620   3.064   6.416
10224TIP3    H130617   3.544   3.006   6.418
10224TIP3    H230618   3.669   3.042   6.496
10225TIP3   OH230619   6.839   7.171   0.205
10225TIP3    H130620   6.823   7.096   0.147
10225TIP3    H230621   6.823   7.248   0.149
10226TIP3   OH230622   3.296   2.566   6.419
10226TIP3    H130623   3.214   2.612   6.399
10226TIP3    H230624   3.343   2.564   6.335
10227TIP3   OH230625   3.264   2.365   6.118
10227TIP3    H130626   3.329   2.414   6.167
10227TIP3    H230627   3.314   2.298   6.070
10228TIP3   OH230628   7.024   6.827   0.068
10228TIP3    H130629   6.940   6.872   0.070
10228TIP3    H230630   7.058   6.845  -0.020
10229TIP3   OH230631   3.654   2.652   6.380
10229TIP3    H130632   3.599   2.682   6.453
10229TIP3    H230633   3.737   2.629   6.420
10230TIP3   OH230634   6.710   6.711   0.334
10230TIP3    H130635   6.711   6.793   0.383
10230TIP3    H230636   6.623   6.706   0.296
10231TIP3   OH230637   2.880   2.633   6.781
10231TIP3    H130638   2.843   2.572   6.717
10231TIP3    H230639   2.954   2.585   6.818
10232TIP3   OH230640   3.017   3.055   6.925
10232TIP3    H130641   2.992   3.040   6.834
10232TIP3    H230642   3.106   3.018   6.931
10233TIP3   OH230643   5.820   6.647   0.195
10233TIP3    H130644   5.860   6.612   0.116
10233TIP3    H230645   5.872   6.725   0.215
10234TIP3   OH230646   6.369   7.274  -0.008
10234TIP3    H130647   6.355   7.353   0.044
10234TIP3    H230648   6.355   7.202   0.054
10235TIP3   OH230649   5.981   7.183   0.470
10235TIP3    H130650   5.922   7.234   0.526
10235TIP3    H230651   5.923   7.127   0.419
10236TIP3   OH230652   3.483   2.514   6.213
10236TIP3    H130653   3.544   2.571   6.261
10236TIP3    H230654   3.508   2.524   6.121
10237TIP3   OH230655   5.759   6.777   0.526
10237TIP3    H130656   5.750   6.871   0.536
10237TIP3    H230657   5.681   6.750   0.477
10238TIP3   OH230658   3.233   3.185   6.463
10238TIP3    H130659   3.316   3.230   6.471
10238TIP3    H230660   3.173   3.251   6.427
10239TIP3   OH230661   5.784   7.340   0.584
10239TIP3    H130662   5.785   7.363   0.491
10239TIP3    H230663   5.704   7.289   0.595
10240TIP3   OH230664   4.002   1.751   6.277
10240TIP3    H130665   3.924   1.769   6.328
10240TIP3    H230666   4.010   1.825   6.217
10241TIP3   OH230667   2.754   2.475   6.584
10241TIP3    H130668   2.676   2.520   6.553
10241TIP3    H230669   2.728   2.383   6.591
10242TIP3   OH230670   3.815   3.111   5.824
10242TIP3    H130671   3.813   3.205   5.805
10242TIP3    H230672   3.905   3.085   5.804
10243TIP3   OH230673   5.331   6.845   0.506
10243TIP3    H130674   5.238   6.865   0.490
10243TIP3    H230675   5.355   6.785   0.436
10244TIP3   OH230676   5.229   7.085   0.200
10244TIP3    H130677   5.324   7.075   0.191
10244TIP3    H230678   5.218   7.167   0.249
10245TIP3   OH230679   7.069   7.521   0.277
10245TIP3    H130680   7.074   7.426   0.289
10245TIP3    H230681   6.984   7.545   0.312
10246TIP3   OH230682   6.192   7.318   0.372
10246TIP3    H130683   6.178   7.407   0.405
10246TIP3    H230684   6.117   7.269   0.406
10247TIP3   OH230685   3.123   3.418   6.300
10247TIP3    H130686   3.074   3.411   6.218
10247TIP3    H230687   3.093   3.500   6.338
10248TIP3   OH230688   2.554   3.264   6.668
10248TIP3    H130689   2.603   3.255   6.750
10248TIP3    H230690   2.507   3.182   6.660
10249TIP3   OH230691   3.320   3.327   5.921
10249TIP3    H130692   3.368   3.252   5.887
10249TIP3    H230693   3.359   3.343   6.007
10250TIP3   OH230694   3.375   3.380   6.191
10250TIP3    H130695   3.291   3.389   6.236
10250TIP3    H230696   3.436   3.353   6.259
10251TIP3   OH230697   6.966   6.649   0.521
10251TIP3    H130698   6.876   6.640   0.489
10251TIP3    H230699   6.993   6.559   0.540
10252TIP3   OH230700   5.566   6.976   0.464
10252TIP3    H130701   5.558   7.062   0.503
10252TIP3    H230702   5.483   6.933   0.484
10253TIP3   OH230703   5.940   5.895   0.308
10253TIP3    H130704   5.865   5.882   0.249
10253TIP3    H230705   5.935   5.987   0.334
10254TIP3   OH230706   6.494   5.945   0.502
10254TIP3    H130707   6.581   5.962   0.538
10254TIP3    H230708   6.436   6.001   0.554
10255TIP3   OH230709   6.748   6.471   0.455
10255TIP3    H130710   6.672   6.439   0.503
10255TIP3    H230711   6.714   6.542   0.401
10256TIP3   OH230712   3.554   2.513   5.948
10256TIP3    H130713   3.530   2.490   5.858
10256TIP3    H230714   3.636   2.562   5.940
10257TIP3   OH230715   3.276   1.914   6.252
10257TIP3    H130716   3.244   1.924   6.341
10257TIP3    H230717   3.239   1.831   6.222
10258TIP3   OH230718   5.922   6.418   0.312
10258TIP3    H130719   5.867   6.409   0.390
10258TIP3    H230720   5.901   6.505   0.277
10259TIP3   OH230721   2.938   2.284   6.832
10259TIP3    H130722   2.850   2.255   6.856
10259TIP3    H230723   2.949   2.254   6.741
10260TIP3   OH230724   3.429   2.369   6.555
10260TIP3    H130725   3.379   2.439   6.514
10260TIP3    H230726   3.484   2.334   6.484
10261TIP3   OH230727   6.472   6.664   0.598
10261TIP3    H130728   6.502   6.622   0.678
10261TIP3    H230729   6.543   6.723   0.574
10262TIP3   OH230730   3.588   2.376   6.781
10262TIP3    H130731   3.524   2.400   6.714
10262TIP3    H230732   3.634   2.301   6.744
10263TIP3   OH230733   5.711   6.376   0.482
10263TIP3    H130734   5.756   6.401   0.563
10263TIP3    H230735   5.639   6.320   0.511
10264TIP3   OH230736   2.941   1.882   6.266
10264TIP3    H130737   2.928   1.872   6.361
10264TIP3    H230738   2.861   1.927   6.237
10265TIP3   OH230739   5.291   6.007   0.169
10265TIP3    H130740   5.380   6.037   0.188
10265TIP3    H230741   5.294   5.978   0.078
10266TIP3   OH230742   2.434   1.898   6.596
10266TIP3    H130743   2.482   1.859   6.523
10266TIP3    H230744   2.416   1.987   6.568
10267TIP3   OH230745   6.453   6.637   0.255
10267TIP3    H130746   6.484   6.570   0.194
10267TIP3    H230747   6.401   6.590   0.319
10268TIP3   OH230748   3.309   2.080   6.872
10268TIP3    H130749   3.230   2.069   6.926
10268TIP3    H230750   3.381   2.075   6.934
10269TIP3   OH230751   2.699   2.151   6.885
10269TIP3    H130752   2.612   2.156   6.846
10269TIP3    H230753   2.731   2.063   6.861
10270TIP3   OH230754   2.965   2.176   6.584
10270TIP3    H130755   3.058   2.187   6.567
10270TIP3    H230756   2.923   2.192   6.499
10271TIP3   OH230757   6.602   6.169   0.119
10271TIP3    H130758   6.594   6.176   0.214
10271TIP3    H230759   6.528   6.114   0.093
10272TIP3   OH230760   2.833   2.203   6.347
10272TIP3    H130761   2.772   2.142   6.306
10272TIP3    H230762   2.886   2.237   6.275
10273TIP3   OH230763   6.778   7.879   0.352
10273TIP3    H130764   6.770   7.882   0.257
10273TIP3    H230765   6.803   7.968   0.377
10274TIP3   OH230766   5.805   7.022   0.662
10274TIP3    H130767   5.874   7.011   0.728
10274TIP3    H230768   5.730   7.054   0.712
10275TIP3   OH230769   6.193   6.449   0.024
10275TIP3    H130770   6.260   6.406  -0.029
10275TIP3    H230771   6.196   6.403   0.108
10276TIP3   OH230772   2.855   1.916   6.830
10276TIP3    H130773   2.823   1.834   6.868
10276TIP3    H230774   2.876   1.894   6.740
10277TIP3   OH230775   6.179   6.336   0.282
10277TIP3    H130776   6.090   6.371   0.291
10277TIP3    H230777   6.234   6.394   0.334
10278TIP3   OH230778   3.063   2.707   6.357
10278TIP3    H130779   2.990   2.649   6.336
10278TIP3    H230780   3.039   2.747   6.440
10279TIP3   OH230781   3.953   2.957   6.971
10279TIP3    H130782   3.987   3.006   6.896
10279TIP3    H230783   3.873   2.916   6.938
10280TIP3   OH230784   3.527   2.021   6.260
10280TIP3    H130785   3.434   1.999   6.258
10280TIP3    H230786   3.528   2.116   6.276
10281TIP3   OH230787   6.314   7.049   0.425
10281TIP3    H130788   6.352   7.026   0.510
10281TIP3    H230789   6.277   7.136   0.438
10282TIP3   OH230790   3.585   2.284   6.336
10282TIP3    H130791   3.680   2.289   6.347
10282TIP3    H230792   3.563   2.362   6.285
10283TIP3   OH230793   5.587   6.739   0.065
10283TIP3    H130794   5.620   6.717  -0.022
10283TIP3    H230795   5.655   6.708   0.125
10284TIP3   OH230796   3.216   2.869   6.195
10284TIP3    H130797   3.168   2.952   6.197
10284TIP3    H230798   3.164   2.809   6.248
10285TIP3   OH230799   5.546   6.580   0.651
10285TIP3    H130800   5.538   6.661   0.701
10285TIP3    H230801   5.492   6.594   0.573
10286TIP3   OH230802   6.189   6.797   0.620
10286TIP3    H130803   6.123   6.727   0.619
10286TIP3    H230804   6.273   6.750   0.623
10287TIP3   OH230805   6.457   7.329   0.304
10287TIP3    H130806   6.362   7.317   0.310
10287TIP3    H230807   6.479   7.383   0.379
10288TIP3   OH230808   4.005   2.370   6.160
10288TIP3    H130809   3.948   2.323   6.098
10288TIP3    H230810   4.010   2.459   6.125
10289TIP3   OH230811   7.083   7.238   0.304
10289TIP3    H130812   6.988   7.229   0.292
10289TIP3    H230813   7.120   7.213   0.219
10290TIP3   OH230814   3.728   3.187   6.085
10290TIP3    H130815   3.710   3.116   6.147
10290TIP3    H230816   3.753   3.142   6.005
10291TIP3   OH230817   3.721   2.821   6.873
10291TIP3    H130818   3.630   2.799   6.893
10291TIP3    H230819   3.757   2.742   6.835
10292TIP3   OH230820   2.875   3.057   6.679
10292TIP3    H130821   2.874   3.134   6.622
10292TIP3    H230822   2.785   3.050   6.712
10293TIP3   OH230823   2.423   2.353   6.388
10293TIP3    H130824   2.470   2.432   6.413
10293TIP3    H230825   2.344   2.355   6.442
10294TIP3   OH230826   2.966   2.813   6.585
10294TIP3    H130827   2.946   2.902   6.615
10294TIP3    H230828   2.939   2.757   6.658
10295TIP3   OH230829   5.996   7.396   0.177
10295TIP3    H130830   6.026   7.472   0.128
10295TIP3    H230831   6.075   7.364   0.221
10296TIP3   OH230832   2.793   3.282   6.529
10296TIP3    H130833   2.705   3.290   6.566
10296TIP3    H230834   2.828   3.371   6.531
10297TIP3   OH230835   6.347   7.046   0.154
10297TIP3    H130836   6.335   7.045   0.249
10297TIP3    H230837   6.424   6.993   0.139
10298TIP3   OH230838   3.494   2.920   5.990
10298TIP3    H130839   3.560   2.894   6.055
10298TIP3    H230840   3.410   2.900   6.032
10299TIP3   OH230841   6.600   7.554   0.200
10299TIP3    H130842   6.528   7.493   0.211
10299TIP3    H230843   6.573   7.610   0.127
10300TIP3   OH230844   3.819   3.386   5.789
10300TIP3    H130845   3.850   3.449   5.724
10300TIP3    H230846   3.746   3.430   5.832
10301TIP3   OH230847   5.761   6.150   0.704
10301TIP3    H130848   5.670   6.175   0.684
10301TIP3    H230849   5.762   6.137   0.799
10302TIP3   OH230850   3.681   2.830   6.166
10302TIP3    H130851   3.665   2.780   6.246
10302TIP3    H230852   3.776   2.840   6.162
10303TIP3   OH230853   5.395   7.285   0.326
10303TIP3    H130854   5.442   7.240   0.397
10303TIP3    H230855   5.409   7.378   0.343
10304TIP3   OH230856   2.840   2.887   5.992
10304TIP3    H130857   2.858   2.796   5.967
10304TIP3    H230858   2.829   2.884   6.087
10305TIP3   OH230859   2.795   2.902   6.264
10305TIP3    H130860   2.857   2.872   6.331
10305TIP3    H230861   2.796   2.997   6.272
10306TIP3   OH230862   2.531   2.597   6.473
10306TIP3    H130863   2.466   2.644   6.525
10306TIP3    H230864   2.549   2.654   6.398
10307TIP3   OH230865   6.556   6.192   0.380
10307TIP3    H130866   6.574   6.239   0.461
10307TIP3    H230867   6.529   6.105   0.409
10308TIP3   OH230868   3.588   1.973   6.531
10308TIP3    H130869   3.566   1.993   6.439
10308TIP3    H230870   3.629   2.053   6.563
10309TIP3   OH230871   3.067   3.094   6.190
10309TIP3    H130872   2.983   3.112   6.232
10309TIP3    H230873   3.093   3.178   6.152
10310TIP3   OH230874   3.245   2.177   6.622
10310TIP3    H130875   3.308   2.246   6.601
10310TIP3    H230876   3.264   2.153   6.712
10311TIP3   OH230877   6.345   6.470   0.453
10311TIP3    H130878   6.372   6.542   0.510
10311TIP3    H230879   6.410   6.401   0.469
10312TIP3   OH230880   3.404   1.869   6.707
10312TIP3    H130881   3.385   1.941   6.766
10312TIP3    H230882   3.474   1.902   6.650
10313TIP3   OH230883   2.817   3.173   6.279
10313TIP3    H130884   2.795   3.242   6.217
10313TIP3    H230885   2.808   3.213   6.365
10314TIP3   OH230886   2.937   1.900   6.557
10314TIP3    H130887   2.927   1.994   6.568
10314TIP3    H230888   3.031   1.887   6.544
10315TIP3   OH230889   6.994   6.363   0.455
10315TIP3    H130890   6.904   6.393   0.466
10315TIP3    H230891   6.992   6.305   0.380
10316TIP3   OH230892   3.813   2.564   6.781
10316TIP3    H130893   3.736   2.509   6.793
10316TIP3    H230894   3.880   2.523   6.836
10317TIP3   OH230895   2.547   2.775   6.255
10317TIP3    H130896   2.619   2.838   6.265
10317TIP3    H230897   2.581   2.711   6.193
10318TIP3   OH230898   2.460   2.080   6.376
10318TIP3    H130899   2.452   2.175   6.381
10318TIP3    H230900   2.388   2.052   6.320
10319TIP3   OH230901   3.794   3.532   6.717
10319TIP3    H130902   3.751   3.584   6.649
10319TIP3    H230903   3.888   3.547   6.703
10320TIP3   OH230904   5.685   5.834   0.226
10320TIP3    H130905   5.656   5.791   0.146
10320TIP3    H230906   5.696   5.762   0.289
10321TIP3   OH230907   2.385   3.037   6.651
10321TIP3    H130908   2.344   3.075   6.728
10321TIP3    H230909   2.343   3.081   6.577
10322TIP3   OH230910   5.471   7.480   0.612
10322TIP3    H130911   5.538   7.525   0.664
10322TIP3    H230912   5.398   7.468   0.672
10323TIP3   OH230913   5.819   7.553   0.754
10323TIP3    H130914   5.913   7.561   0.773
10323TIP3    H230915   5.813   7.483   0.690
10324TIP3   OH230916   3.012   3.072   5.884
10324TIP3    H130917   2.945   3.018   5.927
10324TIP3    H230918   3.095   3.037   5.918
10325TIP3   OH230919   6.508   7.475   0.529
10325TIP3    H130920   6.505   7.394   0.581
10325TIP3    H230921   6.586   7.520   0.559
10326TIP3   OH230922   3.430   3.106   5.792
10326TIP3    H130923   3.470   3.049   5.858
10326TIP3    H230924   3.497   3.114   5.724
10327TIP3   OH230925   5.433   6.965   1.031
10327TIP3    H130926   5.488   6.888   1.017
10327TIP3    H230927   5.348   6.940   0.993
10328TIP3   OH230928   2.678   2.583   6.111
10328TIP3    H130929   2.728   2.559   6.189
10328TIP3    H230930   2.744   2.597   6.043
10329TIP3   OH230931   6.121   7.061   0.663
10329TIP3    H130932   6.070   7.094   0.590
10329TIP3    H230933   6.141   6.970   0.640
10330TIP3   OH230934   3.191   2.819   5.925
10330TIP3    H130935   3.195   2.833   6.020
10330TIP3    H230936   3.196   2.724   5.915
10331TIP3   OH230937   6.618   7.107   0.354
10331TIP3    H130938   6.693   7.139   0.304
10331TIP3    H230939   6.549   7.172   0.337
10332TIP3   OH230940   5.634   6.569   0.974
10332TIP3    H130941   5.670   6.617   0.899
10332TIP3    H230942   5.638   6.632   1.046
10333TIP3   OH230943   2.856   2.526   6.320
10333TIP3    H130944   2.832   2.496   6.408
10333TIP3    H230945   2.900   2.450   6.281
10334TIP3   OH230946   5.979   6.621   0.549
10334TIP3    H130947   5.903   6.678   0.539
10334TIP3    H230948   6.031   6.635   0.470
10335TIP3   OH230949   2.990   2.336   6.165
10335TIP3    H130950   2.961   2.340   6.074
10335TIP3    H230951   3.085   2.341   6.160
10336TIP3   OH230952   6.475   6.991   0.660
10336TIP3    H130953   6.550   6.973   0.602
10336TIP3    H230954   6.499   6.949   0.743
10337TIP3   OH230955   3.783   2.633   5.847
10337TIP3    H130956   3.775   2.592   5.761
10337TIP3    H230957   3.756   2.724   5.833
10338TIP3   OH230958   6.038   6.358   0.603
10338TIP3    H130959   6.108   6.379   0.541
10338TIP3    H230960   5.994   6.442   0.618
10339TIP3   OH230961   6.136   6.120   0.454
10339TIP3    H130962   6.164   6.186   0.391
10339TIP3    H230963   6.042   6.136   0.466
10340TIP3   OH230964   6.142   6.690   0.341
10340TIP3    H130965   6.220   6.740   0.368
10340TIP3    H230966   6.081   6.757   0.309
10341TIP3   OH230967   6.809   6.721   0.796
10341TIP3    H130968   6.866   6.649   0.826
10341TIP3    H230969   6.868   6.784   0.756
10342TIP3   OH230970   6.737   6.930   0.513
10342TIP3    H130971   6.691   6.994   0.459
10342TIP3    H230972   6.829   6.937   0.487
10343TIP3   OH230973   5.984   6.379   0.936
10343TIP3    H130974   5.914   6.435   0.972
10343TIP3    H230975   6.019   6.429   0.862
10344TIP3   OH230976   6.199   5.932   0.670
10344TIP3    H130977   6.207   6.010   0.615
10344TIP3    H230978   6.105   5.925   0.687
10345TIP3   OH230979   6.365   6.390   0.799
10345TIP3    H130980   6.418   6.422   0.871
10345TIP3    H230981   6.283   6.439   0.806
10346TIP3   OH230982   6.552   6.356   0.604
10346TIP3    H130983   6.497   6.396   0.672
10346TIP3    H230984   6.630   6.327   0.650
10347TIP3   OH230985   7.010   6.290   0.871
10347TIP3    H130986   6.961   6.223   0.823
10347TIP3    H230987   6.943   6.341   0.916
10348TIP3   OH230988   5.810   6.255   1.122
10348TIP3    H130989   5.828   6.194   1.050
10348TIP3    H230990   5.895   6.295   1.141
10349TIP3   OH230991   6.288   5.929   0.924
10349TIP3    H130992   6.367   5.880   0.899
10349TIP3    H230993   6.245   5.949   0.842
10350TIP3   OH230994   6.374   6.153   1.063
10350TIP3    H130995   6.358   6.089   0.993
10350TIP3    H230996   6.316   6.226   1.042
10351TIP3   OH230997   2.803   3.373   6.089
10351TIP3    H130998   2.896   3.364   6.067
10351TIP3    H230999   2.766   3.427   6.019
10352TIP3   OH231000   2.274   2.766   6.277
10352TIP3    H131001   2.369   2.779   6.272
10352TIP3    H231002   2.260   2.681   6.237
10353TIP3   OH231003   2.182   3.352   6.724
10353TIP3    H131004   2.119   3.299   6.677
10353TIP3    H231005   2.227   3.290   6.782
10354TIP3   OH231006   2.324   3.183   6.888
10354TIP3    H131007   2.315   3.122   6.961
10354TIP3    H231008   2.377   3.255   6.923
10355TIP3   OH231009   4.064   3.586   6.706
10355TIP3    H131010   4.086   3.626   6.790
10355TIP3    H231011   4.119   3.633   6.643
10356TIP3   OH231012   6.910   7.633   0.048
10356TIP3    H131013   6.865   7.550   0.040
10356TIP3    H231014   6.986   7.614   0.104
10357TIP3   OH231015   6.938   7.320   0.608
10357TIP3    H131016   6.868   7.341   0.670
10357TIP3    H231017   6.992   7.399   0.605
10358TIP3   OH231018   3.959   2.833   6.173
10358TIP3    H131019   4.016   2.905   6.143
10358TIP3    H231020   4.006   2.796   6.248
10359TIP3   OH231021   4.088   2.688   6.374
10359TIP3    H131022   4.019   2.656   6.431
10359TIP3    H231023   4.151   2.730   6.433
10360TIP3   OH231024   4.133   3.097   6.808
10360TIP3    H131025   4.185   3.030   6.763
10360TIP3    H231026   4.133   3.172   6.749
10361TIP3   OH231027   6.773   7.390   0.055
10361TIP3    H131028   6.704   7.436   0.103
10361TIP3    H231029   6.727   7.349  -0.018
10362TIP3   OH231030   3.995   2.608   6.021
10362TIP3    H131031   3.922   2.609   5.958
10362TIP3    H231032   3.982   2.686   6.074
10363TIP3   OH231033   3.848   2.256   5.967
10363TIP3    H131034   3.808   2.296   5.890
10363TIP3    H231035   3.838   2.162   5.952
10364TIP3   OH231036   3.882   2.557   6.513
10364TIP3    H131037   3.882   2.462   6.498
10364TIP3    H231038   3.862   2.566   6.606
10365TIP3   OH231039   5.357   6.679   0.288
10365TIP3    H131040   5.338   6.639   0.202
10365TIP3    H231041   5.450   6.662   0.302
10366TIP3   OH231042   6.998   6.978   0.432
10366TIP3    H131043   7.065   6.913   0.411
10366TIP3    H231044   7.013   7.049   0.369
10367TIP3   OH231045   7.179   6.773   0.414
10367TIP3    H131046   7.101   6.727   0.444
10367TIP3    H231047   7.252   6.718   0.442
10368TIP3   OH231048   3.809   1.984   5.930
10368TIP3    H131049   3.872   1.959   5.998
10368TIP3    H231050   3.726   1.947   5.961
10369TIP3   OH231051   3.873   2.283   6.397
10369TIP3    H131052   3.915   2.198   6.410
10369TIP3    H231053   3.917   2.320   6.320
10370TIP3   OH231054   4.032   2.441   6.917
10370TIP3    H131055   4.113   2.460   6.870
10370TIP3    H231056   4.043   2.481   7.003
10371TIP3   OH231057   6.939   6.601   0.199
10371TIP3    H131058   6.863   6.631   0.248
10371TIP3    H231059   6.972   6.679   0.155
10372TIP3   OH231060   5.603   6.315   0.892
10372TIP3    H131061   5.616   6.393   0.946
10372TIP3    H231062   5.621   6.241   0.951
10373TIP3   OH231063   7.406   6.197   0.719
10373TIP3    H131064   7.462   6.133   0.676
10373TIP3    H231065   7.364   6.245   0.648
10374TIP3   OH231066   3.979   2.033   6.453
10374TIP3    H131067   4.030   2.017   6.532
10374TIP3    H231068   3.919   1.959   6.447
10375TIP3   OH231069   5.538   6.051   0.288
10375TIP3    H131070   5.588   5.973   0.264
10375TIP3    H231071   5.598   6.124   0.269
10376TIP3   OH231072   5.358   6.314   0.400
10376TIP3    H131073   5.397   6.322   0.313
10376TIP3    H231074   5.323   6.401   0.420
10377TIP3   OH231075   7.255   6.316   0.529
10377TIP3    H131076   7.169   6.355   0.545
10377TIP3    H231077   7.238   6.244   0.467
10378TIP3   OH231078   4.040   1.941   6.083
10378TIP3    H131079   4.089   1.881   6.026
10378TIP3    H231080   4.094   2.021   6.085
10379TIP3   OH231081   2.458   1.871   6.868
10379TIP3    H131082   2.383   1.814   6.886
10379TIP3    H231083   2.459   1.882   6.773
10380TIP3   OH231084   3.620   3.500   6.350
10380TIP3    H131085   3.676   3.492   6.273
10380TIP3    H231086   3.659   3.571   6.401
10381TIP3   OH231087   5.467   5.961   0.736
10381TIP3    H131088   5.421   6.025   0.790
10381TIP3    H231089   5.413   5.953   0.657
10382TIP3   OH231090   5.571   7.403   0.871
10382TIP3    H131091   5.633   7.331   0.860
10382TIP3    H231092   5.576   7.426   0.963
10383TIP3   OH231093   5.764   7.347   0.312
10383TIP3    H131094   5.714   7.423   0.282
10383TIP3    H231095   5.849   7.356   0.268
10384TIP3   OH231096   6.164   7.579   0.458
10384TIP3    H131097   6.207   7.568   0.543
10384TIP3    H231098   6.224   7.633   0.407
10385TIP3   OH231099   6.350   7.740   0.341
10385TIP3    H131100   6.411   7.689   0.288
10385TIP3    H231101   6.406   7.794   0.396
10386TIP3   OH231102   7.155   6.087   0.405
10386TIP3    H131103   7.070   6.096   0.363
10386TIP3    H231104   7.177   5.994   0.393
10387TIP3   OH231105   5.420   7.554   0.353
10387TIP3    H131106   5.346   7.611   0.333
10387TIP3    H231107   5.425   7.554   0.448
10388TIP3   OH231108   5.659   7.584   0.226
10388TIP3    H131109   5.575   7.582   0.273
10388TIP3    H231110   5.637   7.611   0.137
10389TIP3   OH231111   6.072   7.606   0.017
10389TIP3    H131112   6.020   7.617  -0.062
10389TIP3    H231113   6.086   7.695   0.050
10390TIP3   OH231114   6.331   7.535   0.083
10390TIP3    H131115   6.241   7.556   0.059
10390TIP3    H231116   6.384   7.598   0.034
10391TIP3   OH231117   3.698   3.694   6.919
10391TIP3    H131118   3.696   3.782   6.883
10391TIP3    H231119   3.728   3.639   6.846
10392TIP3   OH231120   5.333   7.375   0.075
10392TIP3    H131121   5.354   7.348   0.164
10392TIP3    H231122   5.407   7.343   0.022
10393TIP3   OH231123   2.707   3.244   6.895
10393TIP3    H131124   2.716   3.163   6.945
10393TIP3    H231125   2.793   3.286   6.901
10394TIP3   OH231126   5.803   7.337  -0.013
10394TIP3    H131127   5.823   7.244  -0.023
10394TIP3    H231128   5.863   7.367   0.055
10395TIP3   OH231129   6.383   6.006   0.050
10395TIP3    H131130   6.333   5.932   0.085
10395TIP3    H231131   6.452   5.966  -0.003
10396TIP3   OH231132   4.037   1.900   6.892
10396TIP3    H131133   4.071   1.955   6.822
10396TIP3    H231134   3.943   1.918   6.894
10397TIP3   OH231135   4.157   1.982   6.657
10397TIP3    H131136   4.224   1.916   6.638
10397TIP3    H231137   4.201   2.066   6.641
10398TIP3   OH231138   5.601   5.691   0.011
10398TIP3    H131139   5.509   5.668   0.011
10398TIP3    H231140   5.647   5.608   0.026
10399TIP3   OH231141   2.576   1.547   6.613
10399TIP3    H131142   2.574   1.593   6.529
10399TIP3    H231143   2.569   1.617   6.678
10400TIP3   OH231144   3.221   1.729   6.867
10400TIP3    H131145   3.269   1.772   6.796
10400TIP3    H231146   3.266   1.757   6.946
10401TIP3   OH231147   3.758   1.878   6.858
10401TIP3    H131148   3.760   1.838   6.771
10401TIP3    H231149   3.758   1.804   6.919
10402TIP3   OH231150   3.803   1.815   6.456
10402TIP3    H131151   3.723   1.862   6.477
10402TIP3    H231152   3.790   1.728   6.492
10403TIP3   OH231153   2.271   3.160   6.435
10403TIP3    H131154   2.187   3.125   6.407
10403TIP3    H231155   2.272   3.250   6.401
10404TIP3   OH231156   3.209   1.928   6.517
10404TIP3    H131157   3.267   1.878   6.574
10404TIP3    H231158   3.218   2.018   6.546
10405TIP3   OH231159   3.064   3.318   6.021
10405TIP3    H131160   3.149   3.345   5.986
10405TIP3    H231161   3.034   3.249   5.962
10406TIP3   OH231162   3.770   3.455   6.122
10406TIP3    H131163   3.760   3.360   6.113
10406TIP3    H231164   3.729   3.491   6.044
10407TIP3   OH231165   5.806   5.853   0.977
10407TIP3    H131166   5.824   5.825   1.067
10407TIP3    H231167   5.860   5.932   0.966
10408TIP3   OH231168   2.369   3.156   6.080
10408TIP3    H131169   2.374   3.169   6.175
10408TIP3    H231170   2.451   3.110   6.059
10409TIP3   OH231171   6.917   6.041   0.790
10409TIP3    H131172   6.935   6.035   0.884
10409TIP3    H231173   7.004   6.040   0.750
10410TIP3   OH231174   6.822   7.607   0.358
10410TIP3    H131175   6.749   7.574   0.306
10410TIP3    H231176   6.809   7.702   0.361
10411TIP3   OH231177   5.263   2.978   6.057
10411TIP3    H131178   5.236   3.067   6.033
10411TIP3    H231179   5.192   2.922   6.028
10412TIP3   OH231180   5.258   2.972   6.474
10412TIP3    H131181   5.310   2.957   6.553
10412TIP3    H231182   5.217   2.887   6.457
10413TIP3   OH231183   4.562   2.836   6.821
10413TIP3    H131184   4.600   2.784   6.891
10413TIP3    H231185   4.637   2.863   6.767
10414TIP3   OH231186   5.527   3.281   6.154
10414TIP3    H131187   5.521   3.215   6.223
10414TIP3    H231188   5.553   3.361   6.199
10415TIP3   OH231189   4.551   3.265   6.518
10415TIP3    H131190   4.534   3.171   6.522
10415TIP3    H231191   4.646   3.271   6.503
10416TIP3   OH231192   4.231   2.449   6.320
10416TIP3    H131193   4.199   2.538   6.337
10416TIP3    H231194   4.163   2.410   6.265
10417TIP3   OH231195   4.317   2.778   6.512
10417TIP3    H131196   4.369   2.701   6.537
10417TIP3    H231197   4.382   2.843   6.486
10418TIP3   OH231198   5.184   3.713   6.158
10418TIP3    H131199   5.215   3.648   6.094
10418TIP3    H231200   5.184   3.665   6.241
10419TIP3   OH231201   5.069   3.193   6.485
10419TIP3    H131202   5.113   3.114   6.455
10419TIP3    H231203   5.139   3.251   6.514
10420TIP3   OH231204   6.101   2.514   6.503
10420TIP3    H131205   6.110   2.598   6.547
10420TIP3    H231206   6.126   2.532   6.412
10421TIP3   OH231207   5.475   2.685   6.520
10421TIP3    H131208   5.512   2.601   6.547
10421TIP3    H231209   5.438   2.669   6.434
10422TIP3   OH231210   4.830   2.347   6.479
10422TIP3    H131211   4.813   2.423   6.423
10422TIP3    H231212   4.778   2.277   6.439
10423TIP3   OH231213   5.528   2.444   6.115
10423TIP3    H131214   5.593   2.441   6.186
10423TIP3    H231215   5.576   2.479   6.040
10424TIP3   OH231216   4.455   2.554   6.605
10424TIP3    H131217   4.539   2.542   6.650
10424TIP3    H231218   4.464   2.505   6.524
10425TIP3   OH231219   4.881   2.761   6.426
10425TIP3    H131220   4.975   2.744   6.430
10425TIP3    H231221   4.844   2.680   6.390
10426TIP3   OH231222   6.134   2.735   6.671
10426TIP3    H131223   6.068   2.798   6.641
10426TIP3    H231224   6.191   2.786   6.728
10427TIP3   OH231225   4.811   2.346   6.930
10427TIP3    H131226   4.763   2.384   6.857
10427TIP3    H231227   4.757   2.364   7.007
10428TIP3   OH231228   5.163   3.198   5.918
10428TIP3    H131229   5.124   3.171   5.835
10428TIP3    H231230   5.112   3.274   5.946
10429TIP3   OH231231   4.908   3.122   6.700
10429TIP3    H131232   4.856   3.195   6.733
10429TIP3    H231233   4.957   3.159   6.626
10430TIP3   OH231234   5.691   2.472   6.334
10430TIP3    H131235   5.651   2.450   6.418
10430TIP3    H231236   5.749   2.546   6.354
10431TIP3   OH231237   4.702   2.455   6.701
10431TIP3    H131238   4.757   2.530   6.723
10431TIP3    H231239   4.747   2.413   6.628
10432TIP3   OH231240   4.753   3.327   6.803
10432TIP3    H131241   4.738   3.415   6.769
10432TIP3    H231242   4.675   3.307   6.855
10433TIP3   OH231243   4.129   3.022   6.055
10433TIP3    H131244   4.095   3.040   5.968
10433TIP3    H231245   4.152   3.108   6.091
10434TIP3   OH231246   5.568   3.528   6.293
10434TIP3    H131247   5.480   3.521   6.329
10434TIP3    H231248   5.568   3.612   6.247
10435TIP3   OH231249   5.901   2.385   6.661
10435TIP3    H131250   5.816   2.419   6.633
10435TIP3    H231251   5.963   2.422   6.599
10436TIP3   OH231252   5.157   2.039   6.658
10436TIP3    H131253   5.150   1.948   6.684
10436TIP3    H231254   5.081   2.081   6.698
10437TIP3   OH231255   5.277   3.557   5.948
10437TIP3    H131256   5.329   3.478   5.936
10437TIP3    H231257   5.335   3.628   5.919
10438TIP3   OH231258   5.416   3.326   5.904
10438TIP3    H131259   5.344   3.264   5.903
10438TIP3    H231260   5.465   3.305   5.984
10439TIP3   OH231261   5.811   3.413   6.644
10439TIP3    H131262   5.793   3.337   6.588
10439TIP3    H231263   5.797   3.489   6.588
10440TIP3   OH231264   5.091   2.821   5.904
10440TIP3    H131265   5.009   2.866   5.887
10440TIP3    H231266   5.137   2.822   5.821
10441TIP3   OH231267   5.057   2.622   5.600
10441TIP3    H131268   5.122   2.672   5.650
10441TIP3    H231269   5.109   2.558   5.552
10442TIP3   OH231270   5.447   2.905   5.868
10442TIP3    H131271   5.394   2.935   5.941
10442TIP3    H231272   5.532   2.883   5.907
10443TIP3   OH231273   5.674   2.938   6.805
10443TIP3    H131274   5.674   3.021   6.853
10443TIP3    H231275   5.590   2.937   6.759
10444TIP3   OH231276   4.675   2.891   6.277
10444TIP3    H131277   4.640   2.833   6.210
10444TIP3    H231278   4.751   2.844   6.313
10445TIP3   OH231279   4.811   3.307   6.416
10445TIP3    H131280   4.789   3.297   6.323
10445TIP3    H231281   4.899   3.271   6.423
10446TIP3   OH231282   4.777   2.888   6.649
10446TIP3    H131283   4.816   2.853   6.568
10446TIP3    H231284   4.825   2.969   6.666
10447TIP3   OH231285   5.327   3.522   6.421
10447TIP3    H131286   5.316   3.602   6.472
10447TIP3    H231287   5.313   3.451   6.483
10448TIP3   OH231288   7.782   7.432   0.034
10448TIP3    H131289   7.722   7.492   0.079
10448TIP3    H231290   7.725   7.383  -0.026
10449TIP3   OH231291   5.281   2.766   5.698
10449TIP3    H131292   5.340   2.824   5.746
10449TIP3    H231293   5.309   2.773   5.607
10450TIP3   OH231294   7.537   6.971   0.178
10450TIP3    H131295   7.542   7.066   0.191
10450TIP3    H231296   7.444   6.954   0.164
10451TIP3   OH231297   5.028   3.439   5.958
10451TIP3    H131298   5.110   3.487   5.962
10451TIP3    H231299   4.968   3.497   5.911
10452TIP3   OH231300   7.572   7.594   0.117
10452TIP3    H131301   7.549   7.604   0.025
10452TIP3    H231302   7.489   7.578   0.161
10453TIP3   OH231303   5.790   1.997   5.755
10453TIP3    H131304   5.714   2.019   5.808
10453TIP3    H231305   5.804   2.074   5.700
10454TIP3   OH231306   4.554   2.736   6.073
10454TIP3    H131307   4.475   2.780   6.041
10454TIP3    H231308   4.530   2.644   6.077
10455TIP3   OH231309   5.612   3.370   5.308
10455TIP3    H131310   5.607   3.464   5.289
10455TIP3    H231311   5.702   3.346   5.287
10456TIP3   OH231312   7.166   7.144   0.063
10456TIP3    H131313   7.098   7.129  -0.002
10456TIP3    H231314   7.202   7.057   0.081
10457TIP3   OH231315   4.176   3.330   6.655
10457TIP3    H131316   4.268   3.353   6.661
10457TIP3    H231317   4.130   3.409   6.684
10458TIP3   OH231318   6.034   3.791   6.694
10458TIP3    H131319   6.043   3.696   6.703
10458TIP3    H231320   5.954   3.812   6.743
10459TIP3   OH231321   5.138   3.563   6.831
10459TIP3    H131322   5.131   3.655   6.857
10459TIP3    H231323   5.071   3.518   6.882
10460TIP3   OH231324   4.919   3.664   5.785
10460TIP3    H131325   4.875   3.646   5.701
10460TIP3    H231326   4.884   3.748   5.813
10461TIP3   OH231327   4.351   3.520   6.161
10461TIP3    H131328   4.395   3.514   6.245
10461TIP3    H231329   4.303   3.438   6.152
10462TIP3   OH231330   5.120   3.596   5.411
10462TIP3    H131331   5.171   3.523   5.375
10462TIP3    H231332   5.156   3.609   5.499
10463TIP3   OH231333   5.173   3.641   5.681
10463TIP3    H131334   5.087   3.643   5.723
10463TIP3    H231335   5.232   3.608   5.748
10464TIP3   OH231336   0.244   6.905   0.031
10464TIP3    H131337   0.169   6.916  -0.027
10464TIP3    H231338   0.266   6.813   0.024
10465TIP3   OH231339   7.371   7.326   0.033
10465TIP3    H131340   7.420   7.312   0.114
10465TIP3    H231341   7.296   7.267   0.039
10466TIP3   OH231342   4.918   2.132   6.784
10466TIP3    H131343   4.834   2.103   6.748
10466TIP3    H231344   4.897   2.213   6.830
10467TIP3   OH231345   8.297   6.257   0.041
10467TIP3    H131346   8.365   6.232   0.104
10467TIP3    H231347   8.215   6.240   0.088
10468TIP3   OH231348   5.690   2.669   6.886
10468TIP3    H131349   5.652   2.666   6.974
10468TIP3    H231350   5.673   2.758   6.855
10469TIP3   OH231351   5.361   2.747   5.434
10469TIP3    H131352   5.316   2.753   5.350
10469TIP3    H231353   5.441   2.797   5.422
10470TIP3   OH231354   5.034   2.164   5.720
10470TIP3    H131355   5.017   2.178   5.813
10470TIP3    H231356   5.040   2.069   5.710
10471TIP3   OH231357   4.857   2.664   6.793
10471TIP3    H131358   4.813   2.673   6.877
10471TIP3    H231359   4.838   2.745   6.747
10472TIP3   OH231360   4.737   2.550   6.321
10472TIP3    H131361   4.647   2.524   6.341
10472TIP3    H231362   4.749   2.525   6.229
10473TIP3   OH231363   5.220   2.618   6.040
10473TIP3    H131364   5.172   2.691   6.000
10473TIP3    H231365   5.277   2.586   5.970
10474TIP3   OH231366   8.240   6.892   0.173
10474TIP3    H131367   8.216   6.823   0.235
10474TIP3    H231368   8.333   6.908   0.190
10475TIP3   OH231369   5.380   2.629   6.270
10475TIP3    H131370   5.316   2.655   6.204
10475TIP3    H231371   5.427   2.556   6.230
10476TIP3   OH231372   7.526   6.686   0.074
10476TIP3    H131373   7.543   6.750   0.142
10476TIP3    H231374   7.508   6.605   0.121
10477TIP3   OH231375   4.301   2.200   6.581
10477TIP3    H131376   4.362   2.231   6.648
10477TIP3    H231377   4.286   2.277   6.525
10478TIP3   OH231378   4.196   2.173   6.105
10478TIP3    H131379   4.237   2.209   6.026
10478TIP3    H231380   4.131   2.239   6.131
10479TIP3   OH231381   5.417   2.886   6.693
10479TIP3    H131382   5.444   2.819   6.629
10479TIP3    H231383   5.375   2.836   6.763
10480TIP3   OH231384   5.100   2.332   6.368
10480TIP3    H131385   5.023   2.336   6.425
10480TIP3    H231386   5.174   2.326   6.429
10481TIP3   OH231387   4.500   2.413   6.375
10481TIP3    H131388   4.412   2.416   6.339
10481TIP3    H231389   4.534   2.327   6.349
10482TIP3   OH231390   4.750   2.447   6.070
10482TIP3    H131391   4.844   2.436   6.057
10482TIP3    H231392   4.711   2.432   5.984
10483TIP3   OH231393   5.551   2.423   6.574
10483TIP3    H131394   5.531   2.440   6.666
10483TIP3    H231395   5.483   2.362   6.545
10484TIP3   OH231396   4.632   2.424   5.819
10484TIP3    H131397   4.566   2.382   5.764
10484TIP3    H231398   4.686   2.475   5.758
10485TIP3   OH231399   5.745   4.124   6.793
10485TIP3    H131400   5.740   4.143   6.699
10485TIP3    H231401   5.823   4.171   6.822
10486TIP3   OH231402   7.520   7.238   0.268
10486TIP3    H131403   7.601   7.261   0.314
10486TIP3    H231404   7.452   7.250   0.334
10487TIP3   OH231405   5.152   2.698   6.471
10487TIP3    H131406   5.220   2.654   6.419
10487TIP3    H231407   5.155   2.654   6.556
10488TIP3   OH231408   4.660   2.167   6.341
10488TIP3    H131409   4.642   2.084   6.385
10488TIP3    H231410   4.702   2.141   6.258
10489TIP3   OH231411   5.123   2.598   6.741
10489TIP3    H131412   5.037   2.634   6.760
10489TIP3    H231413   5.184   2.651   6.792
10490TIP3   OH231414   4.854   2.959   5.851
10490TIP3    H131415   4.779   2.904   5.827
10490TIP3    H231416   4.829   2.999   5.934
10491TIP3   OH231417   5.748   3.204   6.477
10491TIP3    H131418   5.796   3.247   6.406
10491TIP3    H231419   5.671   3.165   6.435
10492TIP3   OH231420   5.300   2.275   5.758
10492TIP3    H131421   5.205   2.267   5.745
10492TIP3    H231422   5.315   2.368   5.769
10493TIP3   OH231423   5.261   3.295   6.865
10493TIP3    H131424   5.318   3.293   6.942
10493TIP3    H231425   5.222   3.383   6.866
10494TIP3   OH231426   5.381   2.535   5.822
10494TIP3    H131427   5.476   2.541   5.834
10494TIP3    H231428   5.358   2.613   5.772
10495TIP3   OH231429   4.542   2.972   6.504
10495TIP3    H131430   4.580   2.957   6.418
10495TIP3    H231431   4.611   2.946   6.566
10496TIP3   OH231432   5.008   3.120   5.694
10496TIP3    H131433   4.961   3.204   5.691
10496TIP3    H231434   4.952   3.063   5.747
10497TIP3   OH231435   7.264   6.909   0.187
10497TIP3    H131436   7.262   6.881   0.278
10497TIP3    H231437   7.190   6.863   0.147
10498TIP3   OH231438   8.007   7.043   0.217
10498TIP3    H131439   7.940   6.986   0.180
10498TIP3    H231440   8.090   7.006   0.187
10499TIP3   OH231441   5.411   3.575   6.757
10499TIP3    H131442   5.316   3.567   6.761
10499TIP3    H231443   5.434   3.618   6.839
10500TIP3   OH231444   5.800   2.627   5.646
10500TIP3    H131445   5.744   2.582   5.583
10500TIP3    H231446   5.805   2.717   5.613
10501TIP3   OH231447   6.060   3.513   6.721
10501TIP3    H131448   5.968   3.490   6.727
10501TIP3    H231449   6.091   3.469   6.641
10502TIP3   OH231450   5.537   3.444   5.574
10502TIP3    H131451   5.508   3.375   5.634
10502TIP3    H231452   5.553   3.398   5.491
10503TIP3   OH231453   5.517   3.078   6.357
10503TIP3    H131454   5.426   3.057   6.377
10503TIP3    H231455   5.553   2.998   6.318
10504TIP3   OH231456   4.673   3.315   6.168
10504TIP3    H131457   4.674   3.391   6.111
10504TIP3    H231458   4.581   3.305   6.193
10505TIP3   OH231459   4.228   2.599   5.873
10505TIP3    H131460   4.272   2.681   5.893
10505TIP3    H231461   4.148   2.600   5.926
10506TIP3   OH231462   4.762   3.069   6.079
10506TIP3    H131463   4.744   3.159   6.105
10506TIP3    H231464   4.733   3.016   6.153
10507TIP3   OH231465   4.952   3.637   6.622
10507TIP3    H131466   4.986   3.711   6.571
10507TIP3    H231467   5.028   3.604   6.670
10508TIP3   OH231468   4.587   3.538   6.017
10508TIP3    H131469   4.500   3.545   6.055
10508TIP3    H231470   4.622   3.627   6.019
10509TIP3   OH231471   5.306   3.298   6.591
10509TIP3    H131472   5.294   3.292   6.686
10509TIP3    H231473   5.388   3.252   6.574
10510TIP3   OH231474   5.298   3.179   5.464
10510TIP3    H131475   5.348   3.151   5.541
10510TIP3    H231476   5.212   3.139   5.475
10511TIP3   OH231477   5.563   3.800   6.632
10511TIP3    H131478   5.487   3.742   6.643
10511TIP3    H231479   5.539   3.858   6.560
10512TIP3   OH231480   5.611   3.644   5.270
10512TIP3    H131481   5.622   3.702   5.194
10512TIP3    H231482   5.542   3.686   5.322
10513TIP3   OH231483   7.473   6.432   0.196
10513TIP3    H131484   7.378   6.442   0.201
10513TIP3    H231485   7.496   6.377   0.271
10514TIP3   OH231486   5.470   3.089   5.658
10514TIP3    H131487   5.456   3.037   5.738
10514TIP3    H231488   5.564   3.100   5.653
10515TIP3   OH231489   4.381   3.537   6.780
10515TIP3    H131490   4.437   3.478   6.831
10515TIP3    H231491   4.399   3.624   6.816
10516TIP3   OH231492   4.657   3.143   5.475
10516TIP3    H131493   4.665   3.051   5.449
10516TIP3    H231494   4.636   3.141   5.568
10517TIP3   OH231495   4.592   3.160   5.746
10517TIP3    H131496   4.661   3.134   5.806
10517TIP3    H231497   4.589   3.255   5.751
10518TIP3   OH231498   4.326   2.849   5.957
10518TIP3    H131499   4.262   2.896   6.009
10518TIP3    H231500   4.346   2.908   5.884
10519TIP3   OH231501   5.489   2.483   6.835
10519TIP3    H131502   5.569   2.527   6.863
10519TIP3    H231503   5.483   2.406   6.891
10520TIP3   OH231504   5.378   2.225   6.025
10520TIP3    H131505   5.349   2.244   5.936
10520TIP3    H231506   5.421   2.306   6.055
10521TIP3   OH231507   4.862   3.348   5.689
10521TIP3    H131508   4.777   3.373   5.726
10521TIP3    H231509   4.887   3.422   5.634
10522TIP3   OH231510   5.034   2.428   6.114
10522TIP3    H131511   5.095   2.497   6.090
10522TIP3    H231512   5.056   2.408   6.205
10523TIP3   OH231513   5.327   2.717   6.892
10523TIP3    H131514   5.355   2.763   6.971
10523TIP3    H231515   5.380   2.637   6.890
10524TIP3   OH231516   5.192   2.120   6.205
10524TIP3    H131517   5.167   2.197   6.256
10524TIP3    H231518   5.261   2.152   6.147
10525TIP3   OH231519   4.609   3.431   5.765
10525TIP3    H131520   4.590   3.501   5.703
10525TIP3    H231521   4.599   3.472   5.851
10526TIP3   OH231522   5.963   2.638   6.887
10526TIP3    H131523   5.869   2.627   6.876
10526TIP3    H231524   5.997   2.650   6.798
10527TIP3   OH231525   5.610   2.820   6.268
10527TIP3    H131526   5.534   2.764   6.284
10527TIP3    H231527   5.679   2.783   6.322
10528TIP3   OH231528   4.344   3.030   5.743
10528TIP3    H131529   4.413   3.096   5.751
10528TIP3    H231530   4.378   2.968   5.678
10529TIP3   OH231531   4.260   2.321   5.885
10529TIP3    H131532   4.267   2.417   5.889
10529TIP3    H231533   4.236   2.303   5.794
10530TIP3   OH231534   5.589   3.794   6.207
10530TIP3    H131535   5.546   3.844   6.138
10530TIP3    H231536   5.682   3.805   6.191
10531TIP3   OH231537   4.656   2.045   6.733
10531TIP3    H131538   4.625   2.007   6.651
10531TIP3    H231539   4.656   1.972   6.795
10532TIP3   OH231540   4.179   3.289   6.141
10532TIP3    H131541   4.140   3.329   6.219
10532TIP3    H231542   4.137   3.333   6.068
10533TIP3   OH231543   7.642   7.801   0.291
10533TIP3    H131544   7.734   7.791   0.315
10533TIP3    H231545   7.623   7.728   0.233
10534TIP3   OH231546   4.809   3.348   5.368
10534TIP3    H131547   4.763   3.276   5.412
10534TIP3    H231548   4.883   3.306   5.325
10535TIP3   OH231549   8.297   7.693   0.063
10535TIP3    H131550   8.312   7.624   0.128
10535TIP3    H231551   8.371   7.753   0.075
10536TIP3   OH231552   5.249   3.386   5.289
10536TIP3    H131553   5.283   3.322   5.351
10536TIP3    H231554   5.308   3.382   5.214
10537TIP3   OH231555   7.313   7.241   0.458
10537TIP3    H131556   7.335   7.149   0.467
10537TIP3    H231557   7.227   7.241   0.414
10538TIP3   OH231558   4.473   2.840   5.595
10538TIP3    H131559   4.525   2.817   5.672
10538TIP3    H231560   4.537   2.854   5.525
10539TIP3   OH231561   7.932   7.319   0.236
10539TIP3    H131562   7.891   7.344   0.153
10539TIP3    H231563   7.971   7.233   0.218
10540TIP3   OH231564   5.040   3.063   5.427
10540TIP3    H131565   5.017   3.076   5.519
10540TIP3    H231566   5.020   2.970   5.411
10541TIP3   OH231567   5.583   3.355   6.793
10541TIP3    H131568   5.661   3.382   6.743
10541TIP3    H231569   5.519   3.424   6.776
10542TIP3   OH231570   7.431   6.989   0.458
10542TIP3    H131571   7.498   6.974   0.392
10542TIP3    H231572   7.479   7.012   0.537
10543TIP3   OH231573   4.648   2.778   5.804
10543TIP3    H131574   4.631   2.750   5.894
10543TIP3    H231575   4.695   2.704   5.765
10544TIP3   OH231576   7.791   6.860   0.117
10544TIP3    H131577   7.709   6.906   0.129
10544TIP3    H231578   7.826   6.894   0.035
10545TIP3   OH231579   4.784   2.586   5.653
10545TIP3    H131580   4.754   2.593   5.562
10545TIP3    H231581   4.879   2.596   5.648
10546TIP3   OH231582   8.295   7.244   0.211
10546TIP3    H131583   8.363   7.208   0.154
10546TIP3    H231584   8.292   7.185   0.287
10547TIP3   OH231585   5.581   2.882   5.332
10547TIP3    H131586   5.568   2.843   5.245
10547TIP3    H231587   5.557   2.974   5.320
10548TIP3   OH231588   7.903   6.634   0.226
10548TIP3    H131589   7.905   6.563   0.162
10548TIP3    H231590   7.867   6.708   0.177
10549TIP3   OH231591   5.073   2.426   6.966
10549TIP3    H131592   5.100   2.466   6.883
10549TIP3    H231593   4.981   2.402   6.952
10550TIP3   OH231594   5.082   2.967   6.845
10550TIP3    H131595   5.171   2.999   6.828
10550TIP3    H231596   5.025   3.025   6.795
10551TIP3   OH231597   0.010   6.927   0.267
10551TIP3    H131598   0.052   6.841   0.268
10551TIP3    H231599   0.078   6.988   0.239
10552TIP3   OH231600   5.711   3.177   6.953
10552TIP3    H131601   5.660   3.240   6.903
10552TIP3    H231602   5.801   3.187   6.921
10553TIP3   OH231603   7.791   6.725   0.466
10553TIP3    H131604   7.710   6.678   0.483
10553TIP3    H231605   7.816   6.699   0.378
10554TIP3   OH231606   8.030   6.200   0.115
10554TIP3    H131607   7.989   6.281   0.085
10554TIP3    H231608   7.962   6.133   0.104
10555TIP3   OH231609   8.161   6.676   0.324
10555TIP3    H131610   8.150   6.666   0.418
10555TIP3    H231611   8.075   6.656   0.287
10556TIP3   OH231612   8.407   6.636   0.188
10556TIP3    H131613   8.328   6.635   0.242
10556TIP3    H231614   8.478   6.612   0.248
10557TIP3   OH231615   0.134   6.594   0.346
10557TIP3    H131616   0.147   6.499   0.354
10557TIP3    H231617   0.129   6.625   0.436
10558TIP3   OH231618   7.610   6.502   0.513
10558TIP3    H131619   7.619   6.415   0.475
10558TIP3    H231620   7.666   6.500   0.590
10559TIP3   OH231621   8.105   6.192   0.376
10559TIP3    H131622   8.171   6.123   0.376
10559TIP3    H231623   8.075   6.197   0.285
10560TIP3   OH231624   8.191   6.399   0.538
10560TIP3    H131625   8.165   6.331   0.476
10560TIP3    H231626   8.120   6.463   0.534
10561TIP3   OH231627   4.603   3.632   5.576
10561TIP3    H131628   4.695   3.619   5.552
10561TIP3    H231629   4.566   3.681   5.503
10562TIP3   OH231630   4.071   3.016   5.768
10562TIP3    H131631   4.165   3.033   5.760
10562TIP3    H231632   4.058   2.932   5.725
10563TIP3   OH231633   3.982   3.603   6.216
10563TIP3    H131634   3.916   3.551   6.169
10563TIP3    H231635   4.025   3.540   6.273
10564TIP3   OH231636   4.123   3.433   6.385
10564TIP3    H131637   4.114   3.369   6.455
10564TIP3    H231638   4.173   3.505   6.424
10565TIP3   OH231639   5.860   3.844   6.195
10565TIP3    H131640   5.878   3.877   6.283
10565TIP3    H231641   5.914   3.899   6.138
10566TIP3   OH231642   5.870   3.880   6.476
10566TIP3    H131643   5.825   3.795   6.471
10566TIP3    H231644   5.942   3.865   6.538
10567TIP3   OH231645   0.269   7.578   0.112
10567TIP3    H131646   0.194   7.589   0.171
10567TIP3    H231647   0.313   7.663   0.113
10568TIP3   OH231648   5.750   3.092   5.657
10568TIP3    H131649   5.807   3.164   5.629
10568TIP3    H231650   5.795   3.054   5.733
10569TIP3   OH231651   5.879   2.946   5.856
10569TIP3    H131652   5.812   2.912   5.916
10569TIP3    H231653   5.946   2.984   5.912
10570TIP3   OH231654   5.915   3.352   6.310
10570TIP3    H131655   5.968   3.285   6.266
10570TIP3    H231656   5.913   3.425   6.248
10571TIP3   OH231657   5.738   3.633   6.490
10571TIP3    H131658   5.669   3.678   6.539
10571TIP3    H231659   5.692   3.591   6.417
10572TIP3   OH231660   5.792   2.866   5.507
10572TIP3    H131661   5.720   2.865   5.444
10572TIP3    H231662   5.776   2.944   5.560
10573TIP3   OH231663   5.649   2.515   5.447
10573TIP3    H131664   5.601   2.558   5.376
10573TIP3    H231665   5.638   2.422   5.431
10574TIP3   OH231666   5.676   2.813   5.999
10574TIP3    H131667   5.682   2.718   5.988
10574TIP3    H231668   5.658   2.824   6.092
10575TIP3   OH231669   4.299   2.875   6.766
10575TIP3    H131670   4.290   2.845   6.675
10575TIP3    H231671   4.393   2.873   6.782
10576TIP3   OH231672   5.970   3.215   6.847
10576TIP3    H131673   6.048   3.161   6.837
10576TIP3    H231674   5.964   3.265   6.765
10577TIP3   OH231675   0.488   7.030   0.030
10577TIP3    H131676   0.400   6.993   0.025
10577TIP3    H231677   0.543   6.970  -0.020
10578TIP3   OH231678   5.607   2.243   5.416
10578TIP3    H131679   5.670   2.221   5.484
10578TIP3    H231680   5.524   2.209   5.449
10579TIP3   OH231681   5.670   2.533   5.884
10579TIP3    H131682   5.717   2.450   5.896
10579TIP3    H231683   5.713   2.574   5.809
10580TIP3   OH231684   5.830   2.707   6.408
10580TIP3    H131685   5.911   2.725   6.360
10580TIP3    H231686   5.838   2.756   6.489
10581TIP3   OH231687   5.891   2.882   6.623
10581TIP3    H131688   5.815   2.903   6.677
10581TIP3    H231689   5.919   2.967   6.587
10582TIP3   OH231690   7.349   6.571   0.478
10582TIP3    H131691   7.444   6.563   0.485
10582TIP3    H231692   7.316   6.487   0.510
10583TIP3   OH231693   0.695   6.454   0.237
10583TIP3    H131694   0.755   6.395   0.192
10583TIP3    H231695   0.653   6.504   0.168
10584TIP3   OH231696   5.788   2.283   5.933
10584TIP3    H131697   5.834   2.268   6.016
10584TIP3    H231698   5.724   2.212   5.928
10585TIP3   OH231699   4.493   2.271   6.769
10585TIP3    H131700   4.548   2.193   6.770
10585TIP3    H231701   4.553   2.343   6.751
10586TIP3   OH231702   4.274   2.534   6.820
10586TIP3    H131703   4.329   2.532   6.741
10586TIP3    H231704   4.290   2.620   6.858
10587TIP3   OH231705   0.546   6.566   0.041
10587TIP3    H131706   0.463   6.613   0.056
10587TIP3    H231707   0.522   6.493  -0.016
10588TIP3   OH231708   5.834   2.199   5.574
10588TIP3    H131709   5.883   2.139   5.518
10588TIP3    H231710   5.889   2.278   5.577
10589TIP3   OH231711   4.293   2.007   6.297
10589TIP3    H131712   4.224   2.010   6.363
10589TIP3    H231713   4.263   2.068   6.229
10590TIP3   OH231714   5.421   3.756   5.840
10590TIP3    H131715   5.477   3.747   5.763
10590TIP3    H231716   5.460   3.828   5.890
10591TIP3   OH231717   7.326   6.110   0.183
10591TIP3    H131718   7.275   6.101   0.264
10591TIP3    H231719   7.271   6.162   0.125
10592TIP3   OH231720   7.344   7.562   0.275
10592TIP3    H131721   7.250   7.553   0.262
10592TIP3    H231722   7.357   7.544   0.368
10593TIP3   OH231723   4.724   3.603   6.773
10593TIP3    H131724   4.672   3.675   6.737
10593TIP3    H231725   4.809   3.611   6.729
10594TIP3   OH231726   5.123   3.831   6.907
10594TIP3    H131727   5.160   3.825   6.995
10594TIP3    H231728   5.187   3.884   6.858
10595TIP3   OH231729   5.314   3.986   6.782
10595TIP3    H131730   5.375   3.938   6.726
10595TIP3    H231731   5.370   4.042   6.836
10596TIP3   OH231732   6.119   2.323   6.863
10596TIP3    H131733   6.035   2.330   6.817
10596TIP3    H231734   6.143   2.231   6.855
10597TIP3   OH231735   4.390   3.834   6.826
10597TIP3    H131736   4.300   3.855   6.803
10597TIP3    H231737   4.417   3.905   6.884
10598TIP3   OH231738   4.613   3.829   6.660
10598TIP3    H131739   4.530   3.834   6.708
10598TIP3    H231740   4.592   3.863   6.573
10599TIP3   OH231741   5.033   3.846   6.459
10599TIP3    H131742   4.964   3.858   6.394
10599TIP3    H231743   5.046   3.934   6.497
10600TIP3   OH231744   5.297   3.783   6.513
10600TIP3    H131745   5.206   3.802   6.491
10600TIP3    H231746   5.348   3.848   6.464
10601TIP3   OH231747   5.498   3.955   6.410
10601TIP3    H131748   5.496   4.043   6.372
10601TIP3    H231749   5.527   3.898   6.339
10602TIP3   OH231750   4.288   3.619   6.531
10602TIP3    H131751   4.318   3.597   6.619
10602TIP3    H231752   4.360   3.593   6.474
10603TIP3   OH231753   4.495   3.504   6.396
10603TIP3    H131754   4.508   3.422   6.442
10603TIP3    H231755   4.581   3.546   6.398
10604TIP3   OH231756   4.763   3.588   6.419
10604TIP3    H131757   4.784   3.495   6.406
10604TIP3    H231758   4.818   3.614   6.493
10605TIP3   OH231759   5.329   2.245   6.507
10605TIP3    H131760   5.289   2.172   6.555
10605TIP3    H231761   5.397   2.204   6.454
10606TIP3   OH231762   5.831   2.144   6.387
10606TIP3    H131763   5.870   2.196   6.316
10606TIP3    H231764   5.741   2.176   6.393
10607TIP3   OH231765   5.947   2.229   6.153
10607TIP3    H131766   6.016   2.169   6.126
10607TIP3    H231767   5.985   2.317   6.142
10608TIP3   OH231768   4.548   1.922   6.455
10608TIP3    H131769   4.473   1.897   6.510
10608TIP3    H231770   4.613   1.854   6.471
10609TIP3   OH231771   5.041   1.975   6.401
10609TIP3    H131772   5.087   2.020   6.330
10609TIP3    H231773   5.086   2.005   6.481
10610TIP3   OH231774   5.540   2.128   6.373
10610TIP3    H131775   5.550   2.096   6.284
10610TIP3    H231776   5.546   2.050   6.428
10611TIP3   OH231777   5.598   2.076   5.939
10611TIP3    H131778   5.519   2.124   5.963
10611TIP3    H231779   5.586   1.988   5.977
10612TIP3   OH231780   4.061   3.413   5.929
10612TIP3    H131781   3.976   3.382   5.896
10612TIP3    H231782   4.070   3.501   5.893
10613TIP3   OH231783   4.478   2.026   5.902
10613TIP3    H131784   4.521   1.959   5.956
10613TIP3    H231785   4.527   2.106   5.921
10614TIP3   OH231786   5.018   2.186   5.989
10614TIP3    H131787   5.059   2.133   6.057
10614TIP3    H231788   5.015   2.275   6.025
10615TIP3   OH231789   4.865   3.571   5.515
10615TIP3    H131790   4.948   3.600   5.477
10615TIP3    H231791   4.836   3.500   5.457
10616TIP3   OH231792   5.572   3.713   5.611
10616TIP3    H131793   5.564   3.618   5.602
10616TIP3    H231794   5.527   3.747   5.534
10617TIP3   OH231795   7.628   6.232   0.430
10617TIP3    H131796   7.599   6.162   0.488
10617TIP3    H231797   7.721   6.243   0.450
10618TIP3   OH231798   7.884   6.261   0.528
10618TIP3    H131799   7.958   6.240   0.472
10618TIP3    H231800   7.900   6.210   0.608
10619TIP3   OH231801   4.162   3.414   5.567
10619TIP3    H131802   4.167   3.444   5.658
10619TIP3    H231803   4.246   3.370   5.552
10620TIP3   OH231804   0.198   6.323   0.356
10620TIP3    H131805   0.216   6.295   0.446
10620TIP3    H231806   0.283   6.318   0.312
10621TIP3   OH231807   5.784   3.850   6.798
10621TIP3    H131808   5.710   3.820   6.745
10621TIP3    H231809   5.771   3.945   6.804
10622TIP3   OH231810   7.062   3.238   5.542
10622TIP3    H131811   7.033   3.326   5.516
10622TIP3    H231812   6.990   3.180   5.516
10623TIP3   OH231813   7.061   3.229   5.961
10623TIP3    H131814   7.111   3.212   6.041
10623TIP3    H231815   7.015   3.147   5.942
10624TIP3   OH231816   6.339   3.123   6.310
10624TIP3    H131817   6.317   3.111   6.402
10624TIP3    H231818   6.431   3.149   6.310
10625TIP3   OH231819   7.323   3.539   5.637
10625TIP3    H131820   7.313   3.473   5.706
10625TIP3    H231821   7.348   3.619   5.683
10626TIP3   OH231822   6.350   3.522   6.002
10626TIP3    H131823   6.331   3.429   6.012
10626TIP3    H231824   6.445   3.527   5.992
10627TIP3   OH231825   6.035   2.719   5.785
10627TIP3    H131826   5.999   2.805   5.810
10627TIP3    H231827   5.962   2.674   5.744
10628TIP3   OH231828   6.114   3.026   5.983
10628TIP3    H131829   6.163   2.954   6.023
10628TIP3    H231830   6.181   3.091   5.961
10629TIP3   OH231831   6.980   3.974   5.644
10629TIP3    H131832   7.009   3.907   5.582
10629TIP3    H231833   6.969   3.927   5.727
10630TIP3   OH231834   6.864   3.453   5.968
10630TIP3    H131835   6.906   3.373   5.937
10630TIP3    H231836   6.936   3.508   5.998
10631TIP3   OH231837   7.892   2.768   5.987
10631TIP3    H131838   7.906   2.851   6.031
10631TIP3    H231839   7.930   2.781   5.900
10632TIP3   OH231840   7.275   2.942   6.006
10632TIP3    H131841   7.309   2.856   6.031
10632TIP3    H231842   7.238   2.928   5.918
10633TIP3   OH231843   6.630   2.601   5.967
10633TIP3    H131844   6.608   2.675   5.910
10633TIP3    H231845   6.573   2.530   5.937
10634TIP3   OH231846   7.326   2.700   5.601
10634TIP3    H131847   7.391   2.694   5.671
10634TIP3    H231848   7.375   2.735   5.526
10635TIP3   OH231849   6.250   2.813   6.098
10635TIP3    H131850   6.334   2.800   6.142
10635TIP3    H231851   6.258   2.762   6.017
10636TIP3   OH231852   6.682   3.013   5.896
10636TIP3    H131853   6.775   2.995   5.906
10636TIP3    H231854   6.645   2.931   5.864
10637TIP3   OH231855   7.937   2.978   6.165
10637TIP3    H131856   7.862   3.033   6.144
10637TIP3    H231857   7.982   3.025   6.236
10638TIP3   OH231858   6.608   2.597   6.421
10638TIP3    H131859   6.558   2.638   6.351
10638TIP3    H231860   6.554   2.607   6.499
10639TIP3   OH231861   6.962   3.456   5.401
10639TIP3    H131862   6.921   3.427   5.319
10639TIP3    H231863   6.908   3.529   5.431
10640TIP3   OH231864   6.706   3.378   6.185
10640TIP3    H131865   6.649   3.447   6.220
10640TIP3    H231866   6.751   3.420   6.111
10641TIP3   OH231867   7.491   2.718   5.819
10641TIP3    H131868   7.447   2.700   5.902
10641TIP3    H231869   7.546   2.794   5.838
10642TIP3   OH231870   6.498   2.710   6.191
10642TIP3    H131871   6.550   2.786   6.218
10642TIP3    H231872   6.548   2.671   6.119
10643TIP3   OH231873   6.544   3.578   6.292
10643TIP3    H131874   6.527   3.668   6.262
10643TIP3    H231875   6.464   3.553   6.338
10644TIP3   OH231876   5.923   3.281   5.541
10644TIP3    H131877   5.886   3.300   5.455
10644TIP3    H231878   5.946   3.367   5.577
10645TIP3   OH231879   7.367   3.787   5.775
10645TIP3    H131880   7.280   3.779   5.815
10645TIP3    H231881   7.364   3.870   5.727
10646TIP3   OH231882   7.697   2.645   6.148
10646TIP3    H131883   7.612   2.678   6.120
10646TIP3    H231884   7.759   2.680   6.084
10647TIP3   OH231885   6.952   2.295   6.146
10647TIP3    H131886   6.941   2.203   6.169
10647TIP3    H231887   6.876   2.339   6.185
10648TIP3   OH231888   7.071   3.813   5.435
10648TIP3    H131889   7.123   3.733   5.424
10648TIP3    H231890   7.128   3.883   5.405
10649TIP3   OH231891   7.211   3.584   5.387
10649TIP3    H131892   7.137   3.524   5.387
10649TIP3    H231893   7.260   3.561   5.467
10650TIP3   OH231894   7.597   3.672   6.124
10650TIP3    H131895   7.582   3.598   6.065
10650TIP3    H231896   7.583   3.749   6.070
10651TIP3   OH231897   6.888   3.077   5.394
10651TIP3    H131898   6.806   3.122   5.376
10651TIP3    H231899   6.934   3.077   5.309
10652TIP3   OH231900   6.854   2.881   5.087
10652TIP3    H131901   6.920   2.930   5.136
10652TIP3    H231902   6.904   2.815   5.039
10653TIP3   OH231903   7.777   3.322   5.982
10653TIP3    H131904   7.697   3.374   5.976
10653TIP3    H231905   7.823   3.340   5.900
10654TIP3   OH231906   7.245   3.164   5.353
10654TIP3    H131907   7.191   3.194   5.426
10654TIP3    H231908   7.328   3.140   5.394
10655TIP3   OH231909   7.472   3.195   6.296
10655TIP3    H131910   7.469   3.279   6.341
10655TIP3    H231911   7.390   3.191   6.247
10656TIP3   OH231912   6.473   3.147   5.768
10656TIP3    H131913   6.436   3.088   5.702
10656TIP3    H231914   6.549   3.100   5.803
10657TIP3   OH231915   6.611   3.571   5.899
10657TIP3    H131916   6.585   3.555   5.809
10657TIP3    H231917   6.697   3.532   5.908
10658TIP3   OH231918   6.593   3.132   6.135
10658TIP3    H131919   6.628   3.101   6.051
10658TIP3    H231920   6.635   3.217   6.149
10659TIP3   OH231921   7.132   3.777   5.910
10659TIP3    H131922   7.115   3.857   5.961
10659TIP3    H231923   7.115   3.706   5.971
10660TIP3   OH231924   6.742   3.678   6.458
10660TIP3    H131925   6.681   3.737   6.503
10660TIP3    H231926   6.686   3.626   6.400
10661TIP3   OH231927   7.077   3.024   5.185
10661TIP3    H131928   7.136   3.083   5.233
10661TIP3    H231929   7.106   3.031   5.094
10662TIP3   OH231930   6.525   3.249   6.559
10662TIP3    H131931   6.511   3.339   6.590
10662TIP3    H231932   6.442   3.205   6.576
10663TIP3   OH231933   6.823   3.691   5.449
10663TIP3    H131934   6.903   3.743   5.452
10663TIP3    H231935   6.760   3.745   5.403
10664TIP3   OH231936   6.536   3.839   6.547
10664TIP3    H131937   6.510   3.850   6.455
10664TIP3    H231938   6.454   3.823   6.593
10665TIP3   OH231939   7.590   2.255   5.246
10665TIP3    H131940   7.513   2.275   5.299
10665TIP3    H231941   7.600   2.330   5.188
10666TIP3   OH231942   6.347   2.993   5.560
10666TIP3    H131943   6.272   3.043   5.528
10666TIP3    H231944   6.310   2.907   5.582
10667TIP3   OH231945   7.387   3.635   4.798
10667TIP3    H131946   7.391   3.729   4.781
10667TIP3    H231947   7.474   3.603   4.775
10668TIP3   OH231948   6.129   3.366   6.501
10668TIP3    H131949   6.059   3.351   6.438
10668TIP3    H231950   6.160   3.278   6.523
10669TIP3   OH231951   5.965   3.583   6.140
10669TIP3    H131952   6.059   3.595   6.151
10669TIP3    H231953   5.925   3.664   6.172
10670TIP3   OH231954   7.828   4.043   6.188
10670TIP3    H131955   7.833   3.948   6.198
10670TIP3    H231956   7.748   4.067   6.235
10671TIP3   OH231957   6.934   3.818   6.318
10671TIP3    H131958   6.926   3.910   6.345
10671TIP3    H231959   6.864   3.773   6.366
10672TIP3   OH231960   6.713   3.929   5.269
10672TIP3    H131961   6.662   3.908   5.190
10672TIP3    H231962   6.676   4.012   5.299
10673TIP3   OH231963   6.148   3.775   5.646
10673TIP3    H131964   6.190   3.768   5.732
10673TIP3    H231965   6.097   3.695   5.637
10674TIP3   OH231966   6.918   3.853   4.898
10674TIP3    H131967   6.967   3.779   4.862
10674TIP3    H231968   6.948   3.860   4.988
10675TIP3   OH231969   6.964   3.886   5.171
10675TIP3    H131970   6.876   3.893   5.209
10675TIP3    H231971   7.018   3.850   5.241
10676TIP3   OH231972   7.700   3.155   6.478
10676TIP3    H131973   7.627   3.166   6.417
10676TIP3    H231974   7.726   3.063   6.470
10677TIP3   OH231975   6.318   3.565   6.454
10677TIP3    H131976   6.370   3.557   6.534
10677TIP3    H231977   6.251   3.497   6.462
10678TIP3   OH231978   6.716   2.387   6.272
10678TIP3    H131979   6.632   2.354   6.238
10678TIP3    H231980   6.693   2.467   6.318
10679TIP3   OH231981   7.250   2.506   6.466
10679TIP3    H131982   7.318   2.482   6.528
10679TIP3    H231983   7.168   2.491   6.513
10680TIP3   OH231984   7.483   2.926   6.377
10680TIP3    H131985   7.438   2.923   6.462
10680TIP3    H231986   7.465   3.014   6.344
10681TIP3   OH231987   7.158   3.008   4.923
10681TIP3    H131988   7.111   3.012   4.840
10681TIP3    H231989   7.238   3.058   4.908
10682TIP3   OH231990   6.867   2.425   5.240
10682TIP3    H131991   6.830   2.433   5.327
10682TIP3    H231992   6.829   2.345   5.204
10683TIP3   OH231993   6.650   2.916   6.296
10683TIP3    H131994   6.602   2.921   6.378
10683TIP3    H231995   6.627   2.996   6.249
10684TIP3   OH231996   6.536   2.796   5.800
10684TIP3    H131997   6.446   2.776   5.826
10684TIP3    H231998   6.543   2.762   5.711
10685TIP3   OH231999   7.015   2.873   5.529
10685TIP3    H132000   6.967   2.946   5.489
10685TIP3    H232001   7.072   2.842   5.459
10686TIP3   OH232002   7.202   3.144   6.602
10686TIP3    H132003   7.173   3.076   6.664
10686TIP3    H232004   7.295   3.154   6.620
10687TIP3   OH232005   7.183   2.889   5.753
10687TIP3    H132006   7.114   2.913   5.692
10687TIP3    H232007   7.228   2.815   5.712
10688TIP3   OH232008   6.490   2.902   6.520
10688TIP3    H132009   6.420   2.959   6.552
10688TIP3    H232010   6.477   2.820   6.568
10689TIP3   OH232011   6.531   2.409   5.214
10689TIP3    H132012   6.522   2.414   5.309
10689TIP3    H232013   6.454   2.453   5.179
10690TIP3   OH232014   6.079   2.453   6.086
10690TIP3    H132015   6.148   2.491   6.142
10690TIP3    H232016   6.117   2.453   5.998
10691TIP3   OH232017   5.989   2.432   5.584
10691TIP3    H132018   6.033   2.468   5.507
10691TIP3    H232019   5.927   2.500   5.610
10692TIP3   OH232020   7.220   3.142   6.179
10692TIP3    H132021   7.244   3.075   6.115
10692TIP3    H232022   7.174   3.094   6.248
10693TIP3   OH232023   6.894   2.588   5.852
10693TIP3    H132024   6.815   2.590   5.907
10693TIP3    H232025   6.966   2.583   5.915
10694TIP3   OH232026   6.296   2.675   5.864
10694TIP3    H132027   6.208   2.680   5.827
10694TIP3    H232028   6.325   2.586   5.846
10695TIP3   OH232029   6.548   2.671   5.555
10695TIP3    H132030   6.642   2.685   5.543
10695TIP3    H232031   6.510   2.690   5.470
10696TIP3   OH232032   7.346   2.678   6.057
10696TIP3    H132033   7.326   2.696   6.149
10696TIP3    H232034   7.277   2.619   6.028
10697TIP3   OH232035   6.432   2.695   5.309
10697TIP3    H132036   6.367   2.648   5.256
10697TIP3    H232037   6.484   2.743   5.245
10698TIP3   OH232038   7.542   4.380   6.283
10698TIP3    H132039   7.537   4.398   6.189
10698TIP3    H232040   7.621   4.427   6.312
10699TIP3   OH232041   6.481   3.498   6.686
10699TIP3    H132042   6.561   3.518   6.734
10699TIP3    H232043   6.412   3.500   6.752
10700TIP3   OH232044   6.949   2.956   5.961
10700TIP3    H132045   7.018   2.906   5.917
10700TIP3    H232046   6.943   2.918   6.048
10701TIP3   OH232047   6.440   2.427   5.847
10701TIP3    H132048   6.411   2.351   5.897
10701TIP3    H232049   6.463   2.392   5.761
10702TIP3   OH232050   6.916   2.864   6.228
10702TIP3    H132051   6.828   2.895   6.252
10702TIP3    H232052   6.975   2.918   6.280
10703TIP3   OH232053   6.652   3.215   5.341
10703TIP3    H132054   6.577   3.161   5.317
10703TIP3    H232055   6.627   3.255   5.424
10704TIP3   OH232056   7.547   3.471   5.942
10704TIP3    H132057   7.583   3.518   5.867
10704TIP3    H232058   7.466   3.432   5.908
10705TIP3   OH232059   7.119   2.530   5.240
10705TIP3    H132060   7.026   2.509   5.237
10705TIP3    H232061   7.121   2.625   5.253
10706TIP3   OH232062   7.056   3.554   6.348
10706TIP3    H132063   7.102   3.550   6.432
10706TIP3    H232064   7.013   3.640   6.349
10707TIP3   OH232065   7.177   2.795   5.312
10707TIP3    H132066   7.272   2.801   5.322
10707TIP3    H232067   7.154   2.872   5.261
10708TIP3   OH232068   6.344   3.232   6.000
10708TIP3    H132069   6.391   3.211   5.919
10708TIP3    H232070   6.397   3.194   6.069
10709TIP3   OH232071   6.802   3.378   5.182
10709TIP3    H132072   6.756   3.462   5.180
10709TIP3    H232073   6.747   3.321   5.235
10710TIP3   OH232074   6.968   3.296   6.642
10710TIP3    H132075   6.896   3.241   6.612
10710TIP3    H232076   7.046   3.255   6.606
10711TIP3   OH232077   7.206   3.836   6.242
10711TIP3    H132078   7.111   3.825   6.246
10711TIP3    H232079   7.229   3.877   6.325
10712TIP3   OH232080   7.593   2.881   5.129
10712TIP3    H132081   7.539   2.835   5.065
10712TIP3    H232082   7.596   2.971   5.096
10713TIP3   OH232083   7.840   3.766   6.213
10713TIP3    H132084   7.746   3.746   6.213
10713TIP3    H232085   7.871   3.732   6.129
10714TIP3   OH232086   7.333   3.696   5.073
10714TIP3    H132087   7.301   3.631   5.134
10714TIP3    H232088   7.338   3.650   4.989
10715TIP3   OH232089   7.314   3.337   5.843
10715TIP3    H132090   7.224   3.315   5.866
10715TIP3    H232091   7.350   3.257   5.805
10716TIP3   OH232092   6.464   3.570   5.655
10716TIP3    H132093   6.460   3.646   5.597
10716TIP3    H232094   6.375   3.559   5.687
10717TIP3   OH232095   6.030   2.859   5.366
10717TIP3    H132096   6.072   2.942   5.386
10717TIP3    H232097   5.949   2.859   5.417
10718TIP3   OH232098   6.558   3.325   5.570
10718TIP3    H132099   6.537   3.415   5.595
10718TIP3    H232100   6.530   3.271   5.644
10719TIP3   OH232101   6.747   3.895   6.110
10719TIP3    H132102   6.782   3.968   6.059
10719TIP3    H232103   6.823   3.861   6.158
10720TIP3   OH232104   6.384   3.794   5.503
10720TIP3    H132105   6.296   3.800   5.542
10720TIP3    H232106   6.418   3.883   5.507
10721TIP3   OH232107   7.103   3.553   6.076
10721TIP3    H132108   7.090   3.548   6.171
10721TIP3    H232109   7.179   3.498   6.059
10722TIP3   OH232110   7.092   3.434   4.948
10722TIP3    H132111   7.142   3.404   5.024
10722TIP3    H232112   7.007   3.392   4.957
10723TIP3   OH232113   7.358   4.055   6.121
10723TIP3    H132114   7.285   3.994   6.135
10723TIP3    H232115   7.329   4.111   6.049
10724TIP3   OH232116   7.404   3.910   4.761
10724TIP3    H132117   7.395   3.954   4.677
10724TIP3    H232118   7.333   3.946   4.815
10725TIP3   OH232119   6.442   2.646   6.640
10725TIP3    H132120   6.347   2.657   6.650
10725TIP3    H232121   6.469   2.596   6.716
10726TIP3   OH232122   7.264   3.342   5.140
10726TIP3    H132123   7.249   3.292   5.220
10726TIP3    H232124   7.359   3.351   5.135
10727TIP3   OH232125   6.175   3.778   6.269
10727TIP3    H132126   6.221   3.712   6.321
10727TIP3    H232127   6.193   3.861   6.314
10728TIP3   OH232128   6.454   3.400   4.961
10728TIP3    H132129   6.461   3.308   4.936
10728TIP3    H232130   6.434   3.397   5.055
10729TIP3   OH232131   6.389   3.417   5.231
10729TIP3    H132132   6.451   3.391   5.299
10729TIP3    H232133   6.386   3.513   5.237
10730TIP3   OH232134   6.123   3.111   5.445
10730TIP3    H132135   6.057   3.157   5.497
10730TIP3    H232136   6.140   3.170   5.371
10731TIP3   OH232137   7.286   2.737   6.318
10731TIP3    H132138   7.365   2.780   6.351
10731TIP3    H232139   7.275   2.660   6.374
10732TIP3   OH232140   7.177   2.483   5.510
10732TIP3    H132141   7.156   2.501   5.418
10732TIP3    H232142   7.220   2.563   5.541
10733TIP3   OH232143   6.662   3.610   5.177
10733TIP3    H132144   6.575   3.630   5.213
10733TIP3    H232145   6.682   3.683   5.119
10734TIP3   OH232146   6.829   2.680   5.597
10734TIP3    H132147   6.891   2.749   5.572
10734TIP3    H232148   6.849   2.662   5.688
10735TIP3   OH232149   7.125   2.977   6.378
10735TIP3    H132150   7.150   3.022   6.459
10735TIP3    H232151   7.175   2.895   6.379
10736TIP3   OH232152   6.990   2.381   5.687
10736TIP3    H132153   6.965   2.458   5.738
10736TIP3    H232154   7.058   2.412   5.628
10737TIP3   OH232155   6.408   3.689   5.251
10737TIP3    H132156   6.387   3.759   5.189
10737TIP3    H232157   6.396   3.728   5.337
10738TIP3   OH232158   6.503   2.400   5.493
10738TIP3    H132159   6.491   2.490   5.521
10738TIP3    H232160   6.597   2.385   5.499
10739TIP3   OH232161   7.753   2.896   6.384
10739TIP3    H132162   7.658   2.886   6.377
10739TIP3    H232163   7.784   2.897   6.293
10740TIP3   OH232164   7.407   3.080   5.755
10740TIP3    H132165   7.330   3.024   5.767
10740TIP3    H232166   7.475   3.040   5.809
10741TIP3   OH232167   6.140   3.288   5.228
10741TIP3    H132168   6.209   3.354   5.235
10741TIP3    H232169   6.174   3.225   5.164
10742TIP3   OH232170   6.053   2.580   5.362
10742TIP3    H132171   6.068   2.674   5.373
10742TIP3    H232172   5.990   2.575   5.290
10743TIP3   OH232173   7.383   4.055   5.687
10743TIP3    H132174   7.344   4.105   5.615
10743TIP3    H232175   7.477   4.066   5.676
10744TIP3   OH232176   6.455   2.301   6.229
10744TIP3    H132177   6.424   2.270   6.143
10744TIP3    H232178   6.443   2.226   6.287
10745TIP3   OH232179   5.973   3.551   5.622
10745TIP3    H132180   5.930   3.587   5.699
10745TIP3    H232181   5.929   3.594   5.548
10746TIP3   OH232182   6.169   4.087   6.691
10746TIP3    H132183   6.253   4.088   6.737
10746TIP3    H232184   6.146   3.994   6.683
10747TIP3   OH232185   6.640   3.995   6.750
10747TIP3    H132186   6.734   3.993   6.737
10747TIP3    H232187   6.605   3.941   6.678
10748TIP3   OH232188   6.606   3.602   4.852
10748TIP3    H132189   6.558   3.532   4.897
10748TIP3    H232190   6.680   3.559   4.810
10749TIP3   OH232191   7.263   3.942   6.490
10749TIP3    H132192   7.278   3.872   6.553
10749TIP3    H232193   7.337   4.001   6.501
10750TIP3   OH232194   7.046   3.643   4.777
10750TIP3    H132195   7.077   3.578   4.840
10750TIP3    H232196   7.106   3.636   4.703
10751TIP3   OH232197   6.285   3.482   6.884
10751TIP3    H132198   6.303   3.388   6.890
10751TIP3    H232199   6.200   3.488   6.841
10752TIP3   OH232200   6.270   3.098   5.081
10752TIP3    H132201   6.322   3.076   5.159
10752TIP3    H232202   6.335   3.111   5.012
10753TIP3   OH232203   6.894   3.568   6.659
10753TIP3    H132204   6.848   3.590   6.578
10753TIP3    H232205   6.927   3.479   6.644
10754TIP3   OH232206   6.838   3.319   4.916
10754TIP3    H132207   6.813   3.333   5.007
10754TIP3    H232208   6.818   3.227   4.899
10755TIP3   OH232209   7.375   3.612   6.279
10755TIP3    H132210   7.452   3.639   6.228
10755TIP3    H232211   7.310   3.680   6.261
10756TIP3   OH232212   6.394   3.223   6.877
10756TIP3    H132213   6.334   3.183   6.814
10756TIP3    H232214   6.480   3.189   6.853
10757TIP3   OH232215   6.444   3.038   5.293
10757TIP3    H132216   6.422   3.008   5.381
10757TIP3    H232217   6.490   2.964   5.253
10758TIP3   OH232218   6.770   3.124   6.545
10758TIP3    H132219   6.682   3.160   6.548
10758TIP3    H232220   6.802   3.147   6.457
10759TIP3   OH232221   6.581   2.849   5.139
10759TIP3    H132222   6.551   2.854   5.048
10759TIP3    H232223   6.677   2.857   5.133
10760TIP3   OH232224   7.263   3.493   6.639
10760TIP3    H132225   7.324   3.455   6.576
10760TIP3    H232226   7.258   3.429   6.710
10761TIP3   OH232227   7.376   3.141   4.813
10761TIP3    H132228   7.361   3.102   4.727
10761TIP3    H232229   7.352   3.233   4.801
10762TIP3   OH232230   6.863   2.891   6.653
10762TIP3    H132231   6.859   2.819   6.590
10762TIP3    H232232   6.827   2.966   6.607
10763TIP3   OH232233   6.867   2.686   6.452
10763TIP3    H132234   6.892   2.728   6.370
10763TIP3    H232235   6.775   2.662   6.440
10764TIP3   OH232236   6.887   3.218   6.317
10764TIP3    H132237   6.971   3.258   6.297
10764TIP3    H232238   6.822   3.274   6.274
10765TIP3   OH232239   7.477   3.165   6.696
10765TIP3    H132240   7.514   3.077   6.703
10765TIP3    H232241   7.545   3.217   6.655
10766TIP3   OH232242   7.498   3.436   6.443
10766TIP3    H132243   7.444   3.498   6.393
10766TIP3    H232244   7.587   3.451   6.412
10767TIP3   OH232245   6.745   2.977   6.901
10767TIP3    H132246   6.671   2.919   6.918
10767TIP3    H232247   6.766   2.962   6.809
10768TIP3   OH232248   6.986   2.454   6.550
10768TIP3    H132249   6.946   2.534   6.516
10768TIP3    H232250   6.920   2.386   6.535
10769TIP3   OH232251   7.118   2.930   6.753
10769TIP3    H132252   7.104   2.918   6.847
10769TIP3    H232253   7.032   2.911   6.714
10770TIP3   OH232254   7.356   2.883   6.613
10770TIP3    H132255   7.279   2.884   6.669
10770TIP3    H232256   7.428   2.862   6.673
10771TIP3   OH232257   7.594   2.857   6.759
10771TIP3    H132258   7.607   2.762   6.762
10771TIP3    H232259   7.589   2.883   6.851
10772TIP3   OH232260   0.906   6.764   0.019
10772TIP3    H132261   0.911   6.677  -0.020
10772TIP3    H232262   0.943   6.754   0.107
10773TIP3   OH232263   7.054   2.429   6.814
10773TIP3    H132264   7.124   2.364   6.802
10773TIP3    H232265   7.020   2.444   6.726
10774TIP3   OH232266   7.149   2.653   6.946
10774TIP3    H132267   7.118   2.580   6.892
10774TIP3    H232268   7.076   2.715   6.947
10775TIP3   OH232269   6.403   3.894   5.065
10775TIP3    H132270   6.492   3.877   5.037
10775TIP3    H232271   6.363   3.941   4.992
10776TIP3   OH232272   5.867   3.278   5.250
10776TIP3    H132273   5.962   3.292   5.245
10776TIP3    H232274   5.853   3.192   5.210
10777TIP3   OH232275   5.779   3.864   5.705
10777TIP3    H132276   5.714   3.812   5.659
10777TIP3    H232277   5.822   3.802   5.764
10778TIP3   OH232278   5.919   3.695   5.874
10778TIP3    H132279   5.907   3.628   5.941
10778TIP3    H232280   5.969   3.764   5.917
10779TIP3   OH232281   7.654   4.105   5.685
10779TIP3    H132282   7.673   4.132   5.775
10779TIP3    H232283   7.711   4.159   5.631
10780TIP3   OH232284   7.670   4.135   5.966
10780TIP3    H132285   7.624   4.051   5.960
10780TIP3    H232286   7.741   4.120   6.028
10781TIP3   OH232287   7.725   3.828   6.541
10781TIP3    H132288   7.653   3.838   6.603
10781TIP3    H232289   7.765   3.915   6.536
10782TIP3   OH232290   7.542   3.343   5.145
10782TIP3    H132291   7.598   3.417   5.120
10782TIP3    H232292   7.587   3.304   5.221
10783TIP3   OH232293   7.671   3.199   5.343
10783TIP3    H132294   7.605   3.164   5.402
10783TIP3    H232295   7.734   3.243   5.400
10784TIP3   OH232296   7.721   3.602   5.771
10784TIP3    H132297   7.780   3.535   5.736
10784TIP3    H232298   7.726   3.674   5.708
10785TIP3   OH232299   7.532   3.893   5.973
10785TIP3    H132300   7.463   3.938   6.023
10785TIP3    H232301   7.486   3.853   5.900
10786TIP3   OH232302   7.583   3.120   4.991
10786TIP3    H132303   7.511   3.121   4.928
10786TIP3    H232304   7.567   3.197   5.046
10787TIP3   OH232305   7.448   2.771   4.927
10787TIP3    H132306   7.398   2.811   4.855
10787TIP3    H232307   7.435   2.677   4.914
10788TIP3   OH232308   7.471   3.068   5.486
10788TIP3    H132309   7.476   2.973   5.474
10788TIP3    H232310   7.454   3.080   5.579
10789TIP3   OH232311   6.083   3.162   6.221
10789TIP3    H132312   6.078   3.119   6.135
10789TIP3    H232313   6.175   3.156   6.245
10790TIP3   OH232314   7.752   3.485   6.344
10790TIP3    H132315   7.817   3.416   6.330
10790TIP3    H232316   7.758   3.541   6.266
10791TIP3   OH232317   7.916   3.268   6.346
10791TIP3    H132318   7.846   3.228   6.396
10791TIP3    H232319   7.993   3.214   6.364
10792TIP3   OH232320   7.400   2.500   4.902
10792TIP3    H132321   7.464   2.476   4.970
10792TIP3    H232322   7.317   2.464   4.933
10793TIP3   OH232323   7.468   2.790   5.371
10793TIP3    H132324   7.514   2.707   5.383
10793TIP3    H232325   7.509   2.829   5.294
10794TIP3   OH232326   7.621   2.956   5.893
10794TIP3    H132327   7.703   2.975   5.847
10794TIP3    H232328   7.632   2.996   5.979
10795TIP3   OH232329   7.691   3.106   6.125
10795TIP3    H132330   7.616   3.139   6.174
10795TIP3    H232331   7.723   3.181   6.075
10796TIP3   OH232332   6.308   2.804   6.885
10796TIP3    H132333   6.402   2.809   6.903
10796TIP3    H232334   6.279   2.723   6.927
10797TIP3   OH232335   8.146   2.710   6.676
10797TIP3    H132336   8.210   2.649   6.641
10797TIP3    H232337   8.112   2.756   6.600
10798TIP3   OH232338   7.585   2.541   5.421
10798TIP3    H132339   7.633   2.526   5.502
10798TIP3    H232340   7.522   2.469   5.417
10799TIP3   OH232341   6.289   2.525   6.254
10799TIP3    H132342   6.345   2.448   6.256
10799TIP3    H232343   6.348   2.598   6.238
10800TIP3   OH232344   6.077   2.801   6.320
10800TIP3    H132345   6.125   2.794   6.238
10800TIP3    H232346   6.103   2.886   6.357
10801TIP3   OH232347   8.000   2.807   6.469
10801TIP3    H132348   7.918   2.853   6.481
10801TIP3    H232349   7.978   2.734   6.410
10802TIP3   OH232350   7.628   2.455   5.059
10802TIP3    H132351   7.674   2.395   5.001
10802TIP3    H232352   7.684   2.532   5.065
10803TIP3   OH232353   6.055   2.287   5.806
10803TIP3    H132354   5.970   2.281   5.850
10803TIP3    H232355   6.040   2.346   5.733
10804TIP3   OH232356   7.219   4.007   5.328
10804TIP3    H132357   7.278   4.000   5.252
10804TIP3    H232358   7.254   4.080   5.379
10805TIP3   OH232359   6.280   2.343   6.629
10805TIP3    H132360   6.231   2.343   6.712
10805TIP3    H232361   6.226   2.396   6.570
10806TIP3   OH232362   6.311   3.808   6.709
10806TIP3    H132363   6.219   3.792   6.690
10806TIP3    H232364   6.319   3.798   6.804
10807TIP3   OH232365   6.520   3.856   6.263
10807TIP3    H132366   6.467   3.929   6.230
10807TIP3    H232367   6.604   3.865   6.217
10808TIP3   OH232368   6.922   4.086   6.395
10808TIP3    H132369   6.960   4.081   6.483
10808TIP3    H232370   6.983   4.139   6.345
10809TIP3   OH232371   7.110   4.241   6.267
10809TIP3    H132372   7.171   4.192   6.213
10809TIP3    H232373   7.166   4.297   6.321
10810TIP3   OH232374   7.904   2.582   6.343
10810TIP3    H132375   7.823   2.595   6.293
10810TIP3    H232376   7.925   2.490   6.330
10811TIP3   OH232377   6.183   4.099   6.305
10811TIP3    H132378   6.092   4.114   6.280
10811TIP3    H232379   6.202   4.166   6.370
10812TIP3   OH232380   6.412   4.085   6.153
10812TIP3    H132381   6.329   4.092   6.201
10812TIP3    H232382   6.390   4.111   6.064
10813TIP3   OH232383   6.828   4.103   5.944
10813TIP3    H132384   6.756   4.114   5.882
10813TIP3    H232385   6.839   4.190   5.984
10814TIP3   OH232386   7.091   4.039   5.999
10814TIP3    H132387   7.000   4.058   5.977
10814TIP3    H232388   7.142   4.103   5.949
10815TIP3   OH232389   7.293   4.209   5.897
10815TIP3    H132390   7.290   4.297   5.859
10815TIP3    H232391   7.323   4.153   5.825
10816TIP3   OH232392   6.091   3.876   6.020
10816TIP3    H132393   6.114   3.848   6.109
10816TIP3    H232394   6.162   3.844   5.966
10817TIP3   OH232395   6.294   3.761   5.881
10817TIP3    H132396   6.305   3.678   5.927
10817TIP3    H232397   6.380   3.802   5.884
10818TIP3   OH232398   6.562   3.848   5.904
10818TIP3    H132399   6.581   3.756   5.890
10818TIP3    H232400   6.614   3.872   5.981
10819TIP3   OH232401   7.124   2.502   5.993
10819TIP3    H132402   7.084   2.430   6.041
10819TIP3    H232403   7.192   2.460   5.939
10820TIP3   OH232404   7.629   2.406   5.866
10820TIP3    H132405   7.670   2.458   5.797
10820TIP3    H232406   7.540   2.440   5.872
10821TIP3   OH232407   7.755   2.489   5.633
10821TIP3    H132408   7.824   2.428   5.605
10821TIP3    H232409   7.793   2.576   5.620
10822TIP3   OH232410   6.366   2.199   5.987
10822TIP3    H132411   6.276   2.168   5.997
10822TIP3    H232412   6.419   2.119   5.979
10823TIP3   OH232413   6.186   2.099   5.640
10823TIP3    H132414   6.211   2.150   5.563
10823TIP3    H232415   6.146   2.162   5.700
10824TIP3   OH232416   6.843   2.236   5.883
10824TIP3    H132417   6.888   2.285   5.815
10824TIP3    H232418   6.881   2.269   5.965
10825TIP3   OH232419   7.336   2.387   5.859
10825TIP3    H132420   7.345   2.354   5.770
10825TIP3    H232421   7.343   2.309   5.914
10826TIP3   OH232422   7.398   2.331   5.429
10826TIP3    H132423   7.318   2.379   5.451
10826TIP3    H232424   7.385   2.244   5.467
10827TIP3   OH232425   5.856   3.674   5.405
10827TIP3    H132426   5.771   3.644   5.371
10827TIP3    H232427   5.863   3.764   5.375
10828TIP3   OH232428   6.291   2.233   5.404
10828TIP3    H132429   6.337   2.174   5.345
10828TIP3    H232430   6.360   2.290   5.439
10829TIP3   OH232431   6.779   2.428   5.502
10829TIP3    H132432   6.838   2.378   5.558
10829TIP3    H232433   6.792   2.519   5.529
10830TIP3   OH232434   6.661   3.827   4.997
10830TIP3    H132435   6.744   3.856   4.960
10830TIP3    H232436   6.632   3.756   4.940
10831TIP3   OH232437   7.369   3.964   5.097
10831TIP3    H132438   7.361   3.869   5.094
10831TIP3    H232439   7.313   3.995   5.026
10832TIP3   OH232440   6.580   2.483   6.869
10832TIP3    H132441   6.546   2.416   6.927
10832TIP3    H232442   6.672   2.491   6.892
10833TIP3   OH232443   1.165   6.499   0.050
10833TIP3    H132444   1.242   6.473  -0.001
10833TIP3    H232445   1.155   6.430   0.115
10834TIP3   OH232446   5.960   3.669   5.052
10834TIP3    H132447   5.960   3.691   5.146
10834TIP3    H232448   6.043   3.624   5.038
10835TIP3   OH232449   7.654   2.586   6.761
10835TIP3    H132450   7.663   2.566   6.854
10835TIP3    H232451   7.743   2.577   6.727
10836TIP3   OH232452   7.578   4.107   6.287
10836TIP3    H132453   7.504   4.077   6.234
10836TIP3    H232454   7.566   4.202   6.294
10837TIP3   OH232455   8.133   3.801   5.517
10837TIP3    H132456   8.133   3.705   5.525
10837TIP3    H232457   8.223   3.827   5.534
10838TIP3   OH232458   7.820   2.965   5.275
10838TIP3    H132459   7.791   3.053   5.300
10838TIP3    H232460   7.745   2.927   5.229
10839TIP3   OH232461   7.895   3.298   5.472
10839TIP3    H132462   7.934   3.216   5.503
10839TIP3    H232463   7.962   3.337   5.417
10840TIP3   OH232464   0.389   4.251   5.185
10840TIP3    H132465   0.445   4.175   5.205
10840TIP3    H232466   0.307   4.213   5.155
10841TIP3   OH232467   0.175   3.584   5.382
10841TIP3    H132468   0.222   3.625   5.309
10841TIP3    H232469   0.202   3.635   5.459
10842TIP3   OH232470   8.306   2.773   5.554
10842TIP3    H132471   8.324   2.864   5.529
10842TIP3    H232472   8.368   2.721   5.503
10843TIP3   OH232473   8.014   3.072   5.569
10843TIP3    H132474   8.086   3.123   5.606
10843TIP3    H232475   8.056   3.010   5.510
10844TIP3   OH232476   8.381   3.301   5.371
10844TIP3    H132477   8.440   3.321   5.443
10844TIP3    H232478   8.331   3.225   5.400
10845TIP3   OH232479   8.378   2.838   5.925
10845TIP3    H132480   8.336   2.894   5.860
10845TIP3    H232481   8.317   2.836   5.999
10846TIP3   OH232482   8.468   3.626   5.743
10846TIP3    H132483   8.407   3.699   5.751
10846TIP3    H232484   8.417   3.555   5.705
10847TIP3   OH232485   8.254   2.999   5.748
10847TIP3    H132486   8.232   3.090   5.767
10847TIP3    H232487   8.294   3.001   5.661
10848TIP3   OH232488   8.301   3.839   5.772
10848TIP3    H132489   8.296   3.931   5.747
10848TIP3    H232490   8.220   3.823   5.822
10849TIP3   OH232491   7.707   3.536   5.035
10849TIP3    H132492   7.664   3.558   4.952
10849TIP3    H232493   7.739   3.620   5.068
10850TIP3   OH232494   8.145   3.418   5.289
10850TIP3    H132495   8.137   3.411   5.194
10850TIP3    H232496   8.230   3.378   5.309
10851TIP3   OH232497   8.406   3.871   5.409
10851TIP3    H132498   8.393   3.781   5.380
10851TIP3    H232499   8.502   3.881   5.414
10852TIP3   OH232500   8.502   3.896   5.948
10852TIP3    H132501   8.456   3.968   5.991
10852TIP3    H232502   8.437   3.860   5.887
10853TIP3   OH232503   8.305   3.514   6.066
10853TIP3    H132504   8.285   3.600   6.101
10853TIP3    H232505   8.220   3.479   6.038
10854TIP3   OH232506   0.044   3.920   4.958
10854TIP3    H132507   0.097   3.977   5.014
10854TIP3    H232508   0.038   3.968   4.875
10855TIP3   OH232509   8.325   4.090   6.028
10855TIP3    H132510   8.299   4.106   5.937
10855TIP3    H232511   8.242   4.080   6.075
10856TIP3   OH232512   8.135   3.272   5.045
10856TIP3    H132513   8.046   3.296   5.021
10856TIP3    H232514   8.124   3.215   5.121
10857TIP3   OH232515   7.908   3.653   5.975
10857TIP3    H132516   7.844   3.627   5.909
10857TIP3    H232517   7.946   3.570   6.006
10858TIP3   OH232518   7.779   3.835   5.615
10858TIP3    H132519   7.875   3.844   5.617
10858TIP3    H232520   7.747   3.912   5.661
10859TIP3   OH232521   0.170   4.048   5.784
10859TIP3    H132522   0.157   4.123   5.842
10859TIP3    H232523   0.117   3.979   5.824
10860TIP3   OH232524   8.447   4.213   4.808
10860TIP3    H132525   8.374   4.174   4.856
10860TIP3    H232526   8.435   4.307   4.818
10861TIP3   OH232527   7.941   4.023   5.126
10861TIP3    H132528   7.981   4.018   5.213
10861TIP3    H232529   7.893   3.940   5.117
10862TIP3   OH232530   0.348   4.221   4.821
10862TIP3    H132531   0.306   4.299   4.784
10862TIP3    H232532   0.354   4.160   4.747
10863TIP3   OH232533   8.090   3.853   5.946
10863TIP3    H132534   8.143   3.841   6.025
10863TIP3    H232535   8.024   3.785   5.951
10864TIP3   OH232536   8.452   2.624   5.777
10864TIP3    H132537   8.365   2.610   5.740
10864TIP3    H232538   8.446   2.708   5.821
10865TIP3   OH232539   8.183   3.111   5.258
10865TIP3    H132540   8.158   3.030   5.302
10865TIP3    H232541   8.271   3.094   5.224
10866TIP3   OH232542   8.303   2.617   4.660
10866TIP3    H132543   8.294   2.625   4.754
10866TIP3    H232544   8.247   2.686   4.624
10867TIP3   OH232545   7.884   2.718   5.567
10867TIP3    H132546   7.939   2.748   5.639
10867TIP3    H232547   7.908   2.776   5.494
10868TIP3   OH232548   7.789   2.687   5.076
10868TIP3    H132549   7.841   2.729   5.008
10868TIP3    H232550   7.724   2.753   5.101
10869TIP3   OH232551   8.068   2.888   5.362
10869TIP3    H132552   7.984   2.908   5.321
10869TIP3    H232553   8.096   2.806   5.321
10870TIP3   OH232554   8.384   2.889   4.992
10870TIP3    H132555   8.448   2.924   4.931
10870TIP3    H232556   8.303   2.936   4.972
10871TIP3   OH232557   8.142   2.981   4.914
10871TIP3    H132558   8.053   2.962   4.942
10871TIP3    H232559   8.148   2.944   4.826
10872TIP3   OH232560   8.245   3.770   6.173
10872TIP3    H132561   8.325   3.796   6.218
10872TIP3    H232562   8.179   3.764   6.243
10873TIP3   OH232563   8.207   2.660   5.271
10873TIP3    H132564   8.161   2.604   5.333
10873TIP3    H232565   8.288   2.613   5.250
10874TIP3   OH232566   0.139   3.110   5.864
10874TIP3    H132567   0.093   3.122   5.782
10874TIP3    H232568   0.231   3.129   5.844
10875TIP3   OH232569   8.479   3.428   4.905
10875TIP3    H132570   8.469   3.334   4.917
10875TIP3    H232571   8.431   3.468   4.977
10876TIP3   OH232572   0.418   3.804   5.766
10876TIP3    H132573   0.400   3.730   5.824
10876TIP3    H232574   0.377   3.879   5.809
10877TIP3   OH232575   8.195   3.534   5.531
10877TIP3    H132576   8.161   3.495   5.450
10877TIP3    H232577   8.192   3.463   5.595
10878TIP3   OH232578   0.049   3.540   4.660
10878TIP3    H132579   0.010   3.604   4.719
10878TIP3    H232580   0.067   3.464   4.716
10879TIP3   OH232581   8.021   3.451   6.125
10879TIP3    H132582   8.066   3.454   6.209
10879TIP3    H232583   7.972   3.368   6.127
10880TIP3   OH232584   0.209   3.512   6.129
10880TIP3    H132585   0.132   3.456   6.122
10880TIP3    H232586   0.283   3.451   6.121
10881TIP3   OH232587   8.227   3.807   5.064
10881TIP3    H132588   8.228   3.897   5.033
10881TIP3    H232589   8.175   3.809   5.144
10882TIP3   OH232590   7.817   3.113   4.848
10882TIP3    H132591   7.858   3.198   4.868
10882TIP3    H232592   7.735   3.114   4.897
10883TIP3   OH232593   8.349   3.566   5.093
10883TIP3    H132594   8.301   3.648   5.083
10883TIP3    H232595   8.371   3.562   5.186
10884TIP3   OH232596   0.009   4.173   5.595
10884TIP3    H132597   0.052   4.250   5.558
10884TIP3    H232598   0.080   4.126   5.639
10885TIP3   OH232599   8.168   4.066   4.979
10885TIP3    H132600   8.082   4.055   5.020
10885TIP3    H232601   8.189   4.158   4.995
10886TIP3   OH232602   8.216   2.873   6.149
10886TIP3    H132603   8.127   2.909   6.148
10886TIP3    H232604   8.222   2.825   6.231
10887TIP3   OH232605   7.964   4.045   5.762
10887TIP3    H132606   8.008   3.982   5.819
10887TIP3    H232607   7.977   4.130   5.805
10888TIP3   OH232608   8.166   3.601   4.453
10888TIP3    H132609   8.109   3.546   4.507
10888TIP3    H232610   8.220   3.648   4.517
10889TIP3   OH232611   8.096   3.742   4.722
10889TIP3    H132612   8.160   3.674   4.739
10889TIP3    H232613   8.145   3.824   4.729
10890TIP3   OH232614   7.899   3.365   4.935
10890TIP3    H132615   7.833   3.404   4.992
10890TIP3    H232616   7.913   3.431   4.867
10891TIP3   OH232617   8.369   3.750   4.563
10891TIP3    H132618   8.359   3.746   4.658
10891TIP3    H232619   8.462   3.732   4.548
10892TIP3   OH232620   8.241   3.975   4.735
10892TIP3    H132621   8.203   4.038   4.675
10892TIP3    H232622   8.213   4.003   4.822
10893TIP3   OH232623   8.296   2.626   4.937
10893TIP3    H132624   8.283   2.718   4.962
10893TIP3    H232625   8.386   2.607   4.963
10894TIP3   OH232626   7.892   3.569   4.742
10894TIP3    H132627   7.949   3.645   4.744
10894TIP3    H232628   7.933   3.510   4.678
10895TIP3   OH232629   7.876   2.848   4.868
10895TIP3    H132630   7.856   2.941   4.864
10895TIP3    H232631   7.825   2.809   4.797
10896TIP3   OH232632   8.192   2.543   5.722
10896TIP3    H132633   8.182   2.517   5.630
10896TIP3    H232634   8.208   2.462   5.768
10897TIP3   OH232635   7.768   3.802   5.107
10897TIP3    H132636   7.720   3.835   5.183
10897TIP3    H232637   7.725   3.842   5.031
10898TIP3   OH232638   7.967   4.349   6.179
10898TIP3    H132639   8.047   4.355   6.231
10898TIP3    H232640   7.955   4.255   6.165
10899TIP3   OH232641   8.417   4.280   6.206
10899TIP3    H132642   8.505   4.250   6.229
10899TIP3    H232643   8.389   4.220   6.136
10900TIP3   OH232644   8.424   3.941   4.360
10900TIP3    H132645   8.387   3.869   4.412
10900TIP3    H232646   8.497   3.901   4.313
10901TIP3   OH232647   8.060   3.742   6.378
10901TIP3    H132648   8.082   3.649   6.379
10901TIP3    H232649   7.975   3.747   6.333
10902TIP3   OH232650   8.013   3.378   4.596
10902TIP3    H132651   8.053   3.335   4.671
10902TIP3    H232652   8.054   3.337   4.520
10903TIP3   OH232653   0.060   3.735   6.166
10903TIP3    H132654   0.031   3.769   6.082
10903TIP3    H232655   0.108   3.655   6.145
10904TIP3   OH232656   0.059   3.485   4.383
10904TIP3    H132657   0.091   3.520   4.467
10904TIP3    H232658  -0.003   3.416   4.407
10905TIP3   OH232659   8.170   3.484   6.365
10905TIP3    H132660   8.219   3.405   6.341
10905TIP3    H232661   8.205   3.508   6.451
10906TIP3   OH232662   8.178   3.261   4.778
10906TIP3    H132663   8.166   3.241   4.870
10906TIP3    H232664   8.225   3.185   4.743
10907TIP3   OH232665   8.512   3.336   6.063
10907TIP3    H132666   8.432   3.388   6.073
10907TIP3    H232667   8.522   3.326   5.968
10908TIP3   OH232668   8.338   3.096   4.626
10908TIP3    H132669   8.350   3.170   4.567
10908TIP3    H232670   8.396   3.028   4.592
10909TIP3   OH232671   0.147   3.171   6.237
10909TIP3    H132672   0.098   3.092   6.217
10909TIP3    H232673   0.098   3.242   6.194
10910TIP3   OH232674   0.157   2.856   5.957
10910TIP3    H132675   0.152   2.945   5.921
10910TIP3    H232676   0.066   2.826   5.957
10911TIP3   OH232677   0.129   3.418   5.817
10911TIP3    H132678   0.105   3.384   5.731
10911TIP3    H232679   0.079   3.499   5.827
10912TIP3   OH232680   8.329   3.257   6.345
10912TIP3    H132681   8.353   3.165   6.336
10912TIP3    H232682   8.411   3.305   6.336
10913TIP3   OH232683   8.349   2.992   6.439
10913TIP3    H132684   8.365   2.905   6.404
10913TIP3    H232685   8.417   3.004   6.506
10914TIP3   OH232686   8.167   4.177   4.570
10914TIP3    H132687   8.260   4.194   4.555
10914TIP3    H232688   8.124   4.205   4.489
10915TIP3   OH232689   7.628   3.527   4.736
10915TIP3    H132690   7.722   3.545   4.742
10915TIP3    H232691   7.623   3.438   4.701
10916TIP3   OH232692   7.583   4.113   5.167
10916TIP3    H132693   7.507   4.061   5.141
10916TIP3    H232694   7.624   4.062   5.237
10917TIP3   OH232695   7.708   3.965   5.363
10917TIP3    H132696   7.698   3.894   5.427
10917TIP3    H232697   7.759   4.032   5.410
10918TIP3   OH232698   7.894   3.389   5.736
10918TIP3    H132699   7.877   3.360   5.647
10918TIP3    H232700   7.988   3.374   5.749
10919TIP3   OH232701   8.085   3.057   6.388
10919TIP3    H132702   8.180   3.065   6.401
10919TIP3    H232703   8.062   2.975   6.432
10920TIP3   OH232704   8.063   2.787   5.765
10920TIP3    H132705   8.117   2.710   5.747
10920TIP3    H232706   8.122   2.862   5.753
10921TIP3   OH232707   7.866   3.047   5.804
10921TIP3    H132708   7.908   3.037   5.719
10921TIP3    H232709   7.910   3.122   5.844
10922TIP3   OH232710   7.855   2.513   5.278
10922TIP3    H132711   7.778   2.520   5.335
10922TIP3    H232712   7.843   2.583   5.213
10923TIP3   OH232713   8.061   2.583   6.104
10923TIP3    H132714   8.016   2.595   6.188
10923TIP3    H232715   8.017   2.644   6.044
10924TIP3   OH232716   8.102   4.074   6.192
10924TIP3    H132717   8.010   4.051   6.184
10924TIP3    H232718   8.120   4.070   6.286
10925TIP3   OH232719   8.295   4.111   5.751
10925TIP3    H132720   8.233   4.170   5.710
10925TIP3    H232721   8.378   4.129   5.706
10926TIP3   OH232722   0.138   4.287   5.913
10926TIP3    H132723   0.205   4.290   5.981
10926TIP3    H232724   0.175   4.337   5.841
10927TIP3   OH232725   0.513   4.526   5.772
10927TIP3    H132726   0.513   4.558   5.682
10927TIP3    H232727   0.555   4.595   5.822
10928TIP3   OH232728   7.964   4.345   5.801
10928TIP3    H132729   7.873   4.366   5.780
10928TIP3    H232730   7.992   4.413   5.862
10929TIP3   OH232731   8.163   4.308   5.620
10929TIP3    H132732   8.083   4.320   5.672
10929TIP3    H232733   8.142   4.346   5.535
10930TIP3   OH232734   0.077   4.410   5.450
10930TIP3    H132735  -0.001   4.408   5.395
10930TIP3    H232736   0.064   4.486   5.507
10931TIP3   OH232737   0.312   4.256   5.470
10931TIP3    H132738   0.246   4.325   5.469
10931TIP3    H232739   0.373   4.281   5.400
10932TIP3   OH232740   7.883   4.140   5.512
10932TIP3    H132741   7.909   4.113   5.600
10932TIP3    H232742   7.951   4.104   5.455
10933TIP3   OH232743   8.073   4.015   5.363
10933TIP3    H132744   8.086   3.935   5.414
10933TIP3    H232745   8.156   4.062   5.371
10934TIP3   OH232746   8.322   4.126   5.395
10934TIP3    H132747   8.351   4.036   5.379
10934TIP3    H232748   8.375   4.155   5.469
10935TIP3   OH232749   8.181   2.436   5.456
10935TIP3    H132750   8.088   2.423   5.473
10935TIP3    H232751   8.212   2.351   5.424
10936TIP3   OH232752   7.976   2.333   5.107
10936TIP3    H132753   7.997   2.393   5.036
10936TIP3    H232754   7.935   2.387   5.174
10937TIP3   OH232755   7.644   3.934   4.900
10937TIP3    H132756   7.565   3.914   4.851
10937TIP3    H232757   7.626   4.019   4.941
10938TIP3   OH232758   8.068   2.476   4.886
10938TIP3    H132759   8.105   2.412   4.825
10938TIP3    H232760   8.143   2.531   4.911
10939TIP3   OH232761   8.434   4.175   4.498
10939TIP3    H132762   8.472   4.231   4.431
10939TIP3    H232763   8.416   4.093   4.453
10940TIP3   OH232764   8.368   2.713   6.361
10940TIP3    H132765   8.352   2.650   6.431
10940TIP3    H232766   8.463   2.718   6.354
10941TIP3   OH232767   7.748   3.933   4.557
10941TIP3    H132768   7.752   3.923   4.652
10941TIP3    H232769   7.827   3.890   4.525
10942TIP3   OH232770   1.314   4.288   6.720
10942TIP3    H132771   1.284   4.375   6.694
10942TIP3    H232772   1.243   4.229   6.694
10943TIP3   OH232773   6.971   0.285   0.172
10943TIP3    H132774   7.021   0.258   0.249
10943TIP3    H232775   6.932   0.204   0.139
10944TIP3   OH232776   6.295   0.193   0.506
10944TIP3    H132777   6.267   0.101   0.514
10944TIP3    H232778   6.380   0.189   0.463
10945TIP3   OH232779   1.572   4.587   6.812
10945TIP3    H132780   1.564   4.519   6.879
10945TIP3    H232781   1.596   4.666   6.860
10946TIP3   OH232782   6.267   0.566   0.204
10946TIP3    H132783   6.242   0.475   0.216
10946TIP3    H232784   6.362   0.565   0.202
10947TIP3   OH232785   6.034   0.082   0.207
10947TIP3    H132786   6.081   0.013   0.253
10947TIP3    H232787   6.088   0.160   0.219
10948TIP3   OH232788   1.230   5.014   6.827
10948TIP3    H132789   1.258   4.950   6.763
10948TIP3    H232790   1.239   4.969   6.911
10949TIP3   OH232791   6.785   0.497   0.208
10949TIP3    H132792   6.827   0.418   0.174
10949TIP3    H232793   6.857   0.552   0.238
10950TIP3   OH232794   4.982   7.842   0.199
10950TIP3    H132795   5.002   7.924   0.243
10950TIP3    H232796   5.019   7.851   0.112
10951TIP3   OH232797   4.356   7.984   0.235
10951TIP3    H132798   4.404   7.904   0.259
10951TIP3    H232799   4.323   7.966   0.147
10952TIP3   OH232800   3.757   7.661   0.190
10952TIP3    H132801   3.712   7.715   0.126
10952TIP3    H232802   3.703   7.582   0.197
10953TIP3   OH232803   1.577   3.743   6.767
10953TIP3    H132804   1.645   3.735   6.834
10953TIP3    H232805   1.622   3.779   6.691
10954TIP3   OH232806   3.358   7.887   0.300
10954TIP3    H132807   3.412   7.834   0.358
10954TIP3    H232808   3.346   7.831   0.222
10955TIP3   OH232809   6.599   0.045   0.130
10955TIP3    H132810   6.694   0.036   0.119
10955TIP3    H232811   6.563  -0.037   0.097
10956TIP3   OH232812   7.875   0.041   0.373
10956TIP3    H132813   7.784   0.069   0.386
10956TIP3    H232814   7.924   0.088   0.440
10957TIP3   OH232815   3.688   7.725   0.676
10957TIP3    H132816   3.626   7.765   0.616
10957TIP3    H232817   3.641   7.717   0.759
10958TIP3   OH232818   1.212   4.505   6.577
10958TIP3    H132819   1.175   4.480   6.493
10958TIP3    H232820   1.156   4.577   6.607
10959TIP3   OH232821   6.634   0.430   0.430
10959TIP3    H132822   6.570   0.495   0.459
10959TIP3    H232823   6.678   0.470   0.356
10960TIP3   OH232824   4.593   7.779   0.024
10960TIP3    H132825   4.555   7.750   0.107
10960TIP3    H232826   4.646   7.855   0.047
10961TIP3   OH232827   3.599   7.767   0.402
10961TIP3    H132828   3.618   7.857   0.429
10961TIP3    H232829   3.652   7.754   0.323
10962TIP3   OH232830   6.453   0.610   0.539
10962TIP3    H132831   6.424   0.696   0.509
10962TIP3    H232832   6.384   0.581   0.598
10963TIP3   OH232833   7.279   0.824   0.015
10963TIP3    H132834   7.190   0.816   0.051
10963TIP3    H232835   7.278   0.908  -0.031
10964TIP3   OH232836   4.769   7.727   0.331
10964TIP3    H132837   4.681   7.734   0.295
10964TIP3    H232838   4.826   7.767   0.265
10965TIP3   OH232839   4.104   7.375   0.267
10965TIP3    H132840   4.103   7.284   0.294
10965TIP3    H232841   4.041   7.418   0.325
10966TIP3   OH232842   1.320   4.862   6.612
10966TIP3    H132843   1.372   4.782   6.601
10966TIP3    H232844   1.379   4.932   6.583
10967TIP3   OH232845   1.461   4.634   6.563
10967TIP3    H132846   1.388   4.572   6.562
10967TIP3    H232847   1.511   4.611   6.642
10968TIP3   OH232848   7.516   0.713   0.357
10968TIP3    H132849   7.499   0.638   0.299
10968TIP3    H232850   7.500   0.790   0.302
10969TIP3   OH232851   1.141   4.129   6.571
10969TIP3    H132852   1.055   4.167   6.556
10969TIP3    H232853   1.181   4.124   6.484
10970TIP3   OH232854   1.113   3.922   6.259
10970TIP3    H132855   1.178   3.973   6.307
10970TIP3    H232856   1.164   3.854   6.215
10971TIP3   OH232857   7.704   0.382   0.218
10971TIP3    H132858   7.620   0.427   0.213
10971TIP3    H232859   7.741   0.392   0.130
10972TIP3   OH232860   1.495   4.209   6.530
10972TIP3    H132861   1.442   4.240   6.603
10972TIP3    H232862   1.578   4.184   6.569
10973TIP3   OH232863   7.373   0.276   0.497
10973TIP3    H132864   7.360   0.360   0.541
10973TIP3    H232865   7.296   0.266   0.441
10974TIP3   OH232866   6.391   0.181   0.014
10974TIP3    H132867   6.362   0.119  -0.053
10974TIP3    H232868   6.468   0.139   0.052
10975TIP3   OH232869   6.539   0.610   0.128
10975TIP3    H132870   6.522   0.586   0.037
10975TIP3    H232871   6.625   0.572   0.146
10976TIP3   OH232872   6.525   0.185   0.358
10976TIP3    H132873   6.559   0.151   0.276
10976TIP3    H232874   6.572   0.268   0.370
10977TIP3   OH232875   7.037   0.812   0.140
10977TIP3    H132876   7.034   0.892   0.193
10977TIP3    H232877   7.028   0.741   0.204
10978TIP3   OH232878   6.666   0.708   0.687
10978TIP3    H132879   6.607   0.768   0.731
10978TIP3    H232880   6.609   0.653   0.633
10979TIP3   OH232881   1.327   4.070   6.362
10979TIP3    H132882   1.386   4.128   6.411
10979TIP3    H232883   1.356   4.077   6.271
10980TIP3   OH232884   6.374   0.256   0.774
10980TIP3    H132885   6.372   0.342   0.818
10980TIP3    H232886   6.325   0.270   0.693
10981TIP3   OH232887   1.071   4.742   6.623
10981TIP3    H132888   1.153   4.791   6.628
10981TIP3    H232889   1.013   4.798   6.572
10982TIP3   OH232890   6.464   0.874   0.757
10982TIP3    H132891   6.434   0.891   0.668
10982TIP3    H232892   6.391   0.903   0.812
10983TIP3   OH232893   1.834   3.296   6.415
10983TIP3    H132894   1.760   3.317   6.470
10983TIP3    H232895   1.847   3.374   6.361
10984TIP3   OH232896   0.613   4.037   6.736
10984TIP3    H132897   0.547   4.106   6.743
10984TIP3    H232898   0.563   3.955   6.735
10985TIP3   OH232899   1.643   4.689   5.953
10985TIP3    H132900   1.654   4.782   5.932
10985TIP3    H232901   1.731   4.653   5.944
10986TIP3   OH232902   7.749   1.075   0.419
10986TIP3    H132903   7.755   0.980   0.431
10986TIP3    H232904   7.668   1.100   0.464
10987TIP3   OH232905   6.852   0.844   0.541
10987TIP3    H132906   6.853   0.934   0.573
10987TIP3    H232907   6.786   0.800   0.594
10988TIP3   OH232908   0.962   4.974   6.445
10988TIP3    H132909   0.911   4.959   6.366
10988TIP3    H232910   0.930   5.058   6.478
10989TIP3   OH232911   1.166   4.886   6.087
10989TIP3    H132912   1.223   4.817   6.054
10989TIP3    H232913   1.197   4.903   6.176
10990TIP3   OH232914   1.217   4.943   6.350
10990TIP3    H132915   1.130   4.948   6.390
10990TIP3    H232916   1.273   4.908   6.420
10991TIP3   OH232917   7.597   0.217   0.652
10991TIP3    H132918   7.519   0.259   0.615
10991TIP3    H232919   7.610   0.139   0.597
10992TIP3   OH232920   3.700   7.479   0.560
10992TIP3    H132921   3.661   7.476   0.472
10992TIP3    H232922   3.706   7.573   0.580
10993TIP3   OH232923   4.316   7.564   0.672
10993TIP3    H132924   4.373   7.497   0.710
10993TIP3    H232925   4.296   7.623   0.744
10994TIP3   OH232926   7.376   0.010   0.586
10994TIP3    H132927   7.328   0.008   0.669
10994TIP3    H232928   7.369   0.101   0.557
10995TIP3   OH232929   1.406   4.061   6.102
10995TIP3    H132930   1.362   4.057   6.017
10995TIP3    H232931   1.488   4.108   6.085
10996TIP3   OH232932   1.123   3.471   6.412
10996TIP3    H132933   1.082   3.481   6.498
10996TIP3    H232934   1.085   3.390   6.377
10997TIP3   OH232935   6.515  -0.023   0.530
10997TIP3    H132936   6.536   0.015   0.615
10997TIP3    H232937   6.528   0.049   0.468
10998TIP3   OH232938   3.621   7.838   0.033
10998TIP3    H132939   3.529   7.828   0.056
10998TIP3    H232940   3.627   7.807  -0.058
10999TIP3   OH232941   1.269   3.925   6.701
10999TIP3    H132942   1.222   3.998   6.662
10999TIP3    H232943   1.325   3.893   6.630
11000TIP3   OH232944   7.130   0.234   0.835
11000TIP3    H132945   7.094   0.173   0.900
11000TIP3    H232946   7.225   0.233   0.851
11001TIP3   OH232947   1.438   3.931   6.920
11001TIP3    H132948   1.371   3.954   6.855
11001TIP3    H232949   1.485   3.856   6.881
11002TIP3   OH232950   6.335  -0.020   0.805
11002TIP3    H132951   6.351   0.073   0.792
11002TIP3    H232952   6.324  -0.029   0.900
11003TIP3   OH232953   0.800   3.459   6.406
11003TIP3    H132954   0.783   3.454   6.500
11003TIP3    H232955   0.723   3.503   6.370
11004TIP3   OH232956   3.198   7.537   0.241
11004TIP3    H132957   3.251   7.570   0.313
11004TIP3    H232958   3.226   7.587   0.165
11005TIP3   OH232959   0.335   3.584   6.876
11005TIP3    H132960   0.381   3.563   6.795
11005TIP3    H232961   0.251   3.620   6.849
11006TIP3   OH232962   7.141   0.196   0.376
11006TIP3    H132963   7.164   0.119   0.322
11006TIP3    H232964   7.103   0.159   0.456
11007TIP3   OH232965   4.003   7.652   0.060
11007TIP3    H132966   3.927   7.657   0.117
11007TIP3    H232967   4.078   7.659   0.119
11008TIP3   OH232968   3.371   7.720   0.074
11008TIP3    H132969   3.297   7.706   0.016
11008TIP3    H232970   3.428   7.644   0.060
11009TIP3   OH232971   0.796   3.722   6.719
11009TIP3    H132972   0.888   3.741   6.705
11009TIP3    H232973   0.753   3.751   6.638
11010TIP3   OH232974   4.474   7.724   0.263
11010TIP3    H132975   4.454   7.742   0.355
11010TIP3    H232976   4.399   7.673   0.232
11011TIP3   OH232977   0.662   3.779   6.478
11011TIP3    H132978   0.616   3.708   6.434
11011TIP3    H232979   0.727   3.810   6.414
11012TIP3   OH232980   7.462   1.413   0.514
11012TIP3    H132981   7.453   1.428   0.420
11012TIP3    H232982   7.542   1.459   0.539
11013TIP3   OH232983   6.383   0.501   0.901
11013TIP3    H132984   6.461   0.544   0.936
11013TIP3    H232985   6.314   0.522   0.964
11014TIP3   OH232986   4.041   8.033   0.134
11014TIP3    H132987   4.114   7.980   0.101
11014TIP3    H232988   4.050   8.029   0.229
11015TIP3   OH232989   3.517   7.490   0.028
11015TIP3    H132990   3.468   7.415   0.062
11015TIP3    H232991   3.543   7.465  -0.060
11016TIP3   OH232992   6.874   0.038   0.407
11016TIP3    H132993   6.823  -0.041   0.427
11016TIP3    H232994   6.933   0.048   0.482
11017TIP3   OH232995   0.908   4.312   6.520
11017TIP3    H132996   0.868   4.225   6.516
11017TIP3    H232997   0.892   4.341   6.610
11018TIP3   OH232998   7.461   0.509   0.179
11018TIP3    H132999   7.496   0.558   0.105
11018TIP3    H233000   7.381   0.469   0.145
11019TIP3   OH233001   1.362   3.596   6.377
11019TIP3    H133002   1.272   3.568   6.394
11019TIP3    H233003   1.366   3.685   6.413
11020TIP3   OH233004   6.983   0.592   0.588
11020TIP3    H133005   7.027   0.588   0.672
11020TIP3    H233006   6.939   0.677   0.587
11021TIP3   OH233007   1.429   3.841   6.487
11021TIP3    H133008   1.525   3.844   6.497
11021TIP3    H233009   1.408   3.919   6.436
11022TIP3   OH233010   6.235   0.285   0.228
11022TIP3    H133011   6.292   0.247   0.161
11022TIP3    H233012   6.270   0.253   0.311
11023TIP3   OH233013   1.065   4.440   6.341
11023TIP3    H133014   1.021   4.525   6.340
11023TIP3    H233015   1.013   4.387   6.401
11024TIP3   OH233016   6.891   0.365   0.846
11024TIP3    H133017   6.853   0.342   0.761
11024TIP3    H233018   6.982   0.336   0.840
11025TIP3   OH233019   7.122   0.869   0.458
11025TIP3    H133020   7.028   0.853   0.464
11025TIP3    H233021   7.143   0.918   0.538
11026TIP3   OH233022   1.840   3.928   6.307
11026TIP3    H133023   1.783   3.880   6.247
11026TIP3    H233024   1.847   4.016   6.270
11027TIP3   OH233025   7.760   0.800   0.447
11027TIP3    H133026   7.666   0.782   0.442
11027TIP3    H233027   7.794   0.768   0.364
11028TIP3   OH233028   1.570   4.746   6.240
11028TIP3    H133029   1.549   4.685   6.311
11028TIP3    H233030   1.594   4.690   6.167
11029TIP3   OH233031   7.231   0.378   0.075
11029TIP3    H133032   7.139   0.360   0.093
11029TIP3    H233033   7.266   0.296   0.040
11030TIP3   OH233034   0.709   4.614   6.829
11030TIP3    H133035   0.702   4.681   6.762
11030TIP3    H233036   0.645   4.639   6.896
11031TIP3   OH233037   0.243   3.927   6.495
11031TIP3    H133038   0.259   4.014   6.532
11031TIP3    H233039   0.160   3.900   6.533
11032TIP3   OH233040   0.823   4.374   6.768
11032TIP3    H133041   0.782   4.459   6.787
11032TIP3    H233042   0.788   4.316   6.836
11033TIP3   OH233043   6.661   0.932   0.350
11033TIP3    H133044   6.703   1.001   0.298
11033TIP3    H233045   6.733   0.893   0.399
11034TIP3   OH233046   0.607   4.844   6.696
11034TIP3    H133047   0.565   4.846   6.782
11034TIP3    H233048   0.653   4.928   6.689
11035TIP3   OH233049   7.023   0.592   0.315
11035TIP3    H133050   7.012   0.586   0.410
11035TIP3    H233051   7.097   0.535   0.296
11036TIP3   OH233052   1.335   4.483   6.144
11036TIP3    H133053   1.392   4.453   6.215
11036TIP3    H233054   1.251   4.441   6.163
11037TIP3   OH233055   7.276   1.097   0.357
11037TIP3    H133056   7.202   1.036   0.363
11037TIP3    H233057   7.252   1.156   0.285
11038TIP3   OH233058   1.664   4.975   5.903
11038TIP3    H133059   1.723   5.050   5.897
11038TIP3    H233060   1.591   5.006   5.956
11039TIP3   OH233061   1.521   4.394   6.323
11039TIP3    H133062   1.505   4.339   6.400
11039TIP3    H233063   1.616   4.401   6.317
11040TIP3   OH233064   0.740   4.445   6.136
11040TIP3    H133065   0.749   4.354   6.110
11040TIP3    H233066   0.721   4.442   6.230
11041TIP3   OH233067   0.692   4.466   6.407
11041TIP3    H133068   0.776   4.439   6.445
11041TIP3    H233069   0.684   4.558   6.430
11042TIP3   OH233070   0.307   4.157   6.630
11042TIP3    H133071   0.275   4.194   6.713
11042TIP3    H233072   0.378   4.214   6.604
11043TIP3   OH233073   4.403   7.802   0.509
11043TIP3    H133074   4.451   7.882   0.529
11043TIP3    H233075   4.454   7.733   0.550
11044TIP3   OH233076   1.430   3.535   6.659
11044TIP3    H133077   1.413   3.563   6.569
11044TIP3    H233078   1.474   3.610   6.700
11045TIP3   OH233079   0.917   4.669   6.353
11045TIP3    H133080   0.835   4.692   6.396
11045TIP3    H233081   0.932   4.739   6.290
11046TIP3   OH233082   1.077   3.737   6.759
11046TIP3    H133083   1.138   3.807   6.734
11046TIP3    H233084   1.105   3.712   6.847
11047TIP3   OH233085   7.048   0.086   0.614
11047TIP3    H133086   7.037   0.164   0.668
11047TIP3    H233087   7.111   0.032   0.662
11048TIP3   OH233088   1.247   3.432   6.836
11048TIP3    H133089   1.233   3.508   6.893
11048TIP3    H233090   1.316   3.459   6.776
11049TIP3   OH233091   0.663   4.741   6.439
11049TIP3    H133092   0.635   4.804   6.373
11049TIP3    H233093   0.639   4.782   6.523
11050TIP3   OH233094   0.756   3.445   6.685
11050TIP3    H133095   0.736   3.538   6.697
11050TIP3    H233096   0.852   3.440   6.687
11051TIP3   OH233097   4.809   7.973   0.545
11051TIP3    H133098   4.714   7.971   0.552
11051TIP3    H233099   4.831   7.902   0.485
11052TIP3   OH233100   7.321   0.120  -0.009
11052TIP3    H133101   7.248   0.060  -0.002
11052TIP3    H233102   7.391   0.079   0.042
11053TIP3   OH233103   0.285   4.335   6.378
11053TIP3    H133104   0.283   4.412   6.436
11053TIP3    H233105   0.378   4.311   6.375
11054TIP3   OH233106   0.470   3.588   6.635
11054TIP3    H133107   0.468   3.683   6.649
11054TIP3    H233108   0.408   3.573   6.563
11055TIP3   OH233109   1.632   5.097   6.869
11055TIP3    H133110   1.590   5.147   6.798
11055TIP3    H233111   1.726   5.113   6.856
11056TIP3   OH233112   3.637   7.434   0.293
11056TIP3    H133113   3.564   7.428   0.231
11056TIP3    H233114   3.659   7.343   0.313
11057TIP3   OH233115   6.474   1.047   0.979
11057TIP3    H133116   6.541   1.075   1.041
11057TIP3    H233117   6.522   1.014   0.904
11058TIP3   OH233118   0.871   4.654   6.023
11058TIP3    H133119   0.824   4.583   6.066
11058TIP3    H233120   0.948   4.612   5.985
11059TIP3   OH233121   7.172   0.996   0.694
11059TIP3    H133122   7.170   0.918   0.748
11059TIP3    H233123   7.255   1.039   0.716
11060TIP3   OH233124   1.325   4.691   5.972
11060TIP3    H133125   1.325   4.622   6.039
11060TIP3    H233126   1.417   4.700   5.947
11061TIP3   OH233127   0.523   4.235   6.236
11061TIP3    H133128   0.525   4.167   6.304
11061TIP3    H233129   0.601   4.218   6.183
11062TIP3   OH233130   6.823   0.625   0.895
11062TIP3    H133131   6.778   0.644   0.813
11062TIP3    H233132   6.856   0.535   0.884
11063TIP3   OH233133   1.070   4.368   6.075
11063TIP3    H133134   1.050   4.381   6.167
11063TIP3    H233135   1.062   4.273   6.061
11064TIP3   OH233136   7.290   0.648   0.505
11064TIP3    H133137   7.368   0.678   0.457
11064TIP3    H233138   7.224   0.715   0.486
11065TIP3   OH233139   0.815   4.063   6.537
11065TIP3    H133140   0.752   4.037   6.604
11065TIP3    H233141   0.803   3.998   6.467
11066TIP3   OH233142   6.616   0.142   0.729
11066TIP3    H133143   6.540   0.195   0.752
11066TIP3    H233144   6.675   0.203   0.684
11067TIP3   OH233145   0.842   3.892   6.310
11067TIP3    H133146   0.815   3.904   6.219
11067TIP3    H233147   0.937   3.898   6.307
11068TIP3   OH233148   7.180   0.526   0.867
11068TIP3    H133149   7.249   0.489   0.812
11068TIP3    H233150   7.176   0.468   0.943
11069TIP3   OH233151   1.628   4.186   5.994
11069TIP3    H133152   1.615   4.146   5.909
11069TIP3    H233153   1.602   4.277   5.982
11070TIP3   OH233154   3.945   8.011   0.887
11070TIP3    H133155   3.935   7.935   0.830
11070TIP3    H233156   3.886   8.076   0.851
11071TIP3   OH233157   3.938   7.754   0.767
11071TIP3    H133158   4.003   7.772   0.699
11071TIP3    H233159   3.855   7.748   0.720
11072TIP3   OH233160   6.805   0.288   0.591
11072TIP3    H133161   6.849   0.239   0.522
11072TIP3    H233162   6.751   0.352   0.544
11073TIP3   OH233163   7.392   0.223   0.929
11073TIP3    H133164   7.444   0.147   0.955
11073TIP3    H233165   7.457   0.289   0.902
11074TIP3   OH233166   7.410   0.490   0.687
11074TIP3    H133167   7.357   0.551   0.635
11074TIP3    H233168   7.499   0.501   0.653
11075TIP3   OH233169   3.985   7.499   0.859
11075TIP3    H133170   3.978   7.589   0.828
11075TIP3    H233171   3.898   7.478   0.893
11076TIP3   OH233172   7.026   0.035   0.991
11076TIP3    H133173   7.018   0.056   1.084
11076TIP3    H233174   6.935   0.031   0.960
11077TIP3   OH233175   4.372   7.970   0.796
11077TIP3    H133176   4.307   7.993   0.862
11077TIP3    H233177   4.435   7.916   0.843
11078TIP3   OH233178   4.737   7.898   1.130
11078TIP3    H133179   4.768   7.809   1.115
11078TIP3    H233180   4.706   7.899   1.220
11079TIP3   OH233181   4.175   7.325   0.952
11079TIP3    H133182   4.143   7.305   1.041
11079TIP3    H233183   4.115   7.393   0.920
11080TIP3   OH233184   0.636   4.922   6.227
11080TIP3    H133185   0.728   4.918   6.198
11080TIP3    H233186   0.600   4.998   6.182
11081TIP3   OH233187   1.896   5.168   6.855
11081TIP3    H133188   1.927   5.188   6.944
11081TIP3    H233189   1.964   5.203   6.798
11082TIP3   OH233190   7.594   1.171   0.198
11082TIP3    H133191   7.546   1.088   0.191
11082TIP3    H233192   7.665   1.152   0.259
11083TIP3   OH233193   7.633   0.874   0.781
11083TIP3    H133194   7.564   0.882   0.846
11083TIP3    H233195   7.678   0.959   0.784
11084TIP3   OH233196   1.799   4.393   6.321
11084TIP3    H133197   1.859   4.461   6.292
11084TIP3    H233198   1.842   4.354   6.397
11085TIP3   OH233199   1.924   4.252   6.524
11085TIP3    H133200   1.858   4.215   6.582
11085TIP3    H233201   1.991   4.288   6.583
11086TIP3   OH233202   1.969   4.653   6.953
11086TIP3    H133203   2.025   4.584   6.917
11086TIP3    H233204   1.974   4.724   6.889
11087TIP3   OH233205   7.448   0.934   0.207
11087TIP3    H133206   7.380   0.978   0.258
11087TIP3    H233207   7.401   0.892   0.135
11088TIP3   OH233208   1.837   4.166   6.169
11088TIP3    H133209   1.765   4.167   6.106
11088TIP3    H233210   1.823   4.244   6.223
11089TIP3   OH233211   1.681   3.810   6.118
11089TIP3    H133212   1.642   3.854   6.042
11089TIP3    H233213   1.675   3.717   6.097
11090TIP3   OH233214   1.722   4.114   6.662
11090TIP3    H133215   1.731   4.020   6.651
11090TIP3    H233216   1.704   4.126   6.755
11091TIP3   OH233217   7.660   0.530   0.578
11091TIP3    H133218   7.728   0.463   0.566
11091TIP3    H233219   7.672   0.588   0.502
11092TIP3   OH233220   7.841   0.327   0.587
11092TIP3    H133221   7.766   0.277   0.619
11092TIP3    H233222   7.916   0.269   0.600
11093TIP3   OH233223   1.654   3.534   6.073
11093TIP3    H133224   1.717   3.517   6.143
11093TIP3    H233225   1.571   3.499   6.105
11094TIP3   OH233226   1.715   3.833   6.542
11094TIP3    H133227   1.762   3.751   6.556
11094TIP3    H233228   1.759   3.874   6.467
11095TIP3   OH233229   7.540  -0.002   0.122
11095TIP3    H133230   7.622   0.017   0.076
11095TIP3    H233231   7.548   0.042   0.206
11096TIP3   OH233232   7.592   0.165   0.339
11096TIP3    H133233   7.518   0.208   0.381
11096TIP3    H233234   7.640   0.236   0.296
11097TIP3   OH233235   5.242   7.764   0.917
11097TIP3    H133236   5.328   7.737   0.886
11097TIP3    H233237   5.238   7.858   0.896
11098TIP3   OH233238   1.830   3.584   6.597
11098TIP3    H133239   1.877   3.571   6.680
11098TIP3    H233240   1.769   3.510   6.593
11099TIP3   OH233241   3.356   7.595   0.453
11099TIP3    H133242   3.405   7.516   0.476
11099TIP3    H233243   3.391   7.663   0.510
11100TIP3   OH233244   5.101   7.891   0.643
11100TIP3    H133245   5.037   7.944   0.690
11100TIP3    H233246   5.049   7.831   0.589
11101TIP3   OH233247   1.878   3.501   6.235
11101TIP3    H133248   1.926   3.440   6.180
11101TIP3    H233249   1.934   3.578   6.241
11102TIP3   OH233250   2.985   7.406   0.044
11102TIP3    H133251   3.031   7.324   0.061
11102TIP3    H233252   3.054   7.467   0.019
11103TIP3   OH233253   1.465   5.059   6.500
11103TIP3    H133254   1.523   5.051   6.424
11103TIP3    H233255   1.505   5.127   6.553
11104TIP3   OH233256   6.423   0.893   0.483
11104TIP3    H133257   6.374   0.966   0.445
11104TIP3    H233258   6.510   0.899   0.444
11105TIP3   OH233259   6.855   1.106   0.620
11105TIP3    H133260   6.884   1.110   0.711
11105TIP3    H233261   6.916   1.161   0.572
11106TIP3   OH233262   7.038   1.270   0.499
11106TIP3    H133263   7.105   1.218   0.454
11106TIP3    H233264   7.088   1.329   0.556
11107TIP3   OH233265   4.986   7.689   0.498
11107TIP3    H133266   4.918   7.690   0.430
11107TIP3    H233267   5.027   7.603   0.488
11108TIP3   OH233268   6.315   1.116   0.343
11108TIP3    H133269   6.255   1.181   0.379
11108TIP3    H233270   6.265   1.073   0.274
11109TIP3   OH233271   6.760   1.125   0.180
11109TIP3    H133272   6.703   1.142   0.104
11109TIP3    H233273   6.769   1.211   0.222
11110TIP3   OH233274   7.023   1.073   0.230
11110TIP3    H133275   6.930   1.089   0.214
11110TIP3    H233276   7.067   1.146   0.186
11111TIP3   OH233277   7.219   1.256   0.133
11111TIP3    H133278   7.212   1.342   0.093
11111TIP3    H233279   7.245   1.198   0.062
11112TIP3   OH233280   6.234   0.795   0.052
11112TIP3    H133281   6.218   0.723   0.114
11112TIP3    H233282   6.313   0.838   0.085
11113TIP3   OH233283   6.488   0.886   0.137
11113TIP3    H133284   6.507   0.793   0.121
11113TIP3    H233285   6.539   0.908   0.215
11114TIP3   OH233286   4.251   7.586   0.176
11114TIP3    H133287   4.197   7.511   0.203
11114TIP3    H233288   4.313   7.549   0.114
11115TIP3   OH233289   4.715   7.485   0.118
11115TIP3    H133290   4.756   7.527   0.043
11115TIP3    H233291   4.621   7.496   0.103
11116TIP3   OH233292   1.994   3.531   6.815
11116TIP3    H133293   2.064   3.472   6.785
11116TIP3    H233294   2.031   3.619   6.802
11117TIP3   OH233295   3.415   7.280   0.179
11117TIP3    H133296   3.322   7.259   0.172
11117TIP3    H233297   3.460   7.198   0.159
11118TIP3   OH233298   0.442   3.118   6.799
11118TIP3    H133299   0.470   3.164   6.720
11118TIP3    H233300   0.386   3.180   6.844
11119TIP3   OH233301   3.904   7.332   0.083
11119TIP3    H133302   3.939   7.368   0.002
11119TIP3    H233303   3.974   7.345   0.148
11120TIP3   OH233304   4.445   7.458   0.036
11120TIP3    H133305   4.471   7.418  -0.047
11120TIP3    H233306   4.443   7.386   0.098
11121TIP3   OH233307   1.646   3.371   6.603
11121TIP3    H133308   1.565   3.418   6.621
11121TIP3    H233309   1.633   3.285   6.643
11122TIP3   OH233310   0.562   3.261   6.589
11122TIP3    H133311   0.618   3.209   6.531
11122TIP3    H233312   0.621   3.327   6.626
11123TIP3   OH233313   1.028   3.483   6.671
11123TIP3    H133314   1.096   3.436   6.719
11123TIP3    H233315   1.039   3.575   6.696
11124TIP3   OH233316   0.903   4.881   6.169
11124TIP3    H133317   0.992   4.904   6.142
11124TIP3    H233318   0.879   4.808   6.112
11125TIP3   OH233319   1.613   5.015   6.266
11125TIP3    H133320   1.602   4.920   6.262
11125TIP3    H233321   1.565   5.047   6.189
11126TIP3   OH233322   4.789   7.636   1.065
11126TIP3    H133323   4.775   7.590   1.148
11126TIP3    H233324   4.874   7.605   1.035
11127TIP3   OH233325   7.500   1.140   0.515
11127TIP3    H133326   7.424   1.111   0.463
11127TIP3    H233327   7.488   1.234   0.525
11128TIP3   OH233328   3.114   4.555   6.202
11128TIP3    H133329   3.069   4.635   6.175
11128TIP3    H233330   3.048   4.486   6.194
11129TIP3   OH233331   3.102   4.534   6.629
11129TIP3    H133332   3.153   4.509   6.706
11129TIP3    H233333   3.068   4.451   6.595
11130TIP3   OH233334   8.067   0.390   0.032
11130TIP3    H133335   8.094   0.335   0.106
11130TIP3    H233336   8.148   0.402  -0.019
11131TIP3   OH233337   3.407   4.827   6.310
11131TIP3    H133338   3.367   4.756   6.360
11131TIP3    H233339   3.377   4.907   6.353
11132TIP3   OH233340   2.386   4.823   6.670
11132TIP3    H133341   2.373   4.728   6.672
11132TIP3    H233342   2.481   4.833   6.658
11133TIP3   OH233343   2.072   4.022   6.448
11133TIP3    H133344   2.037   4.108   6.471
11133TIP3    H233345   1.999   3.977   6.405
11134TIP3   OH233346   2.155   4.333   6.661
11134TIP3    H133347   2.204   4.255   6.689
11134TIP3    H233348   2.223   4.394   6.632
11135TIP3   OH233349   3.025   5.272   6.306
11135TIP3    H133350   3.053   5.206   6.242
11135TIP3    H233351   3.015   5.223   6.387
11136TIP3   OH233352   2.901   4.747   6.638
11136TIP3    H133353   2.943   4.666   6.608
11136TIP3    H233354   2.974   4.804   6.663
11137TIP3   OH233355   3.938   4.058   6.659
11137TIP3    H133356   3.956   4.143   6.699
11137TIP3    H233357   3.966   4.069   6.568
11138TIP3   OH233358   3.310   4.247   6.680
11138TIP3    H133359   3.347   4.160   6.677
11138TIP3    H233360   3.222   4.237   6.643
11139TIP3   OH233361   2.664   3.903   6.634
11139TIP3    H133362   2.648   3.977   6.576
11139TIP3    H233363   2.611   3.831   6.597
11140TIP3   OH233364   3.373   3.982   6.258
11140TIP3    H133365   3.428   3.989   6.336
11140TIP3    H233366   3.422   4.028   6.190
11141TIP3   OH233367   2.291   4.112   6.753
11141TIP3    H133368   2.374   4.094   6.798
11141TIP3    H233369   2.297   4.061   6.672
11142TIP3   OH233370   2.712   4.311   6.572
11142TIP3    H133371   2.806   4.295   6.571
11142TIP3    H233372   2.674   4.230   6.538
11143TIP3   OH233373   3.998   4.273   6.829
11143TIP3    H133374   3.924   4.327   6.803
11143TIP3    H233375   4.038   4.320   6.902
11144TIP3   OH233376   5.489   7.906   0.136
11144TIP3    H133377   5.437   7.942   0.064
11144TIP3    H233378   5.437   7.923   0.215
11145TIP3   OH233379   2.970   4.757   6.086
11145TIP3    H133380   2.944   4.734   5.997
11145TIP3    H233381   2.924   4.839   6.105
11146TIP3   OH233382   2.766   4.664   6.866
11146TIP3    H133383   2.708   4.735   6.895
11146TIP3    H233384   2.810   4.700   6.789
11147TIP3   OH233385   3.538   4.026   6.481
11147TIP3    H133386   3.497   4.014   6.566
11147TIP3    H233387   3.598   4.099   6.493
11148TIP3   OH233388   2.530   4.006   6.854
11148TIP3    H133389   2.584   4.080   6.883
11148TIP3    H233390   2.580   3.968   6.782
11149TIP3   OH233391   8.264   0.868   0.013
11149TIP3    H133392   8.248   0.955  -0.024
11149TIP3    H233393   8.185   0.848   0.063
11150TIP3   OH233394   1.973   4.579   6.207
11150TIP3    H133395   1.941   4.597   6.119
11150TIP3    H233396   2.000   4.664   6.241
11151TIP3   OH233397   3.423   5.081   6.442
11151TIP3    H133398   3.338   5.075   6.485
11151TIP3    H233399   3.421   5.164   6.395
11152TIP3   OH233400   3.731   3.948   6.815
11152TIP3    H133401   3.645   3.975   6.783
11152TIP3    H233402   3.793   3.981   6.749
11153TIP3   OH233403   2.982   3.587   6.799
11153TIP3    H133404   2.978   3.498   6.834
11153TIP3    H233405   2.909   3.633   6.842
11154TIP3   OH233406   3.116   5.112   6.095
11154TIP3    H133407   3.167   5.031   6.087
11154TIP3    H233408   3.177   5.181   6.068
11155TIP3   OH233409   3.279   4.895   6.059
11155TIP3    H133410   3.273   4.825   5.994
11155TIP3    H233411   3.325   4.856   6.133
11156TIP3   OH233412   3.658   4.961   6.781
11156TIP3    H133413   3.642   4.890   6.719
11156TIP3    H233414   3.637   5.041   6.732
11157TIP3   OH233415   2.937   4.383   6.059
11157TIP3    H133416   2.855   4.429   6.039
11157TIP3    H233417   2.984   4.381   5.976
11158TIP3   OH233418   2.907   4.175   5.758
11158TIP3    H133419   2.971   4.227   5.807
11158TIP3    H233420   2.959   4.110   5.710
11159TIP3   OH233421   3.848   4.624   6.656
11159TIP3    H133422   3.778   4.662   6.603
11159TIP3    H233423   3.896   4.568   6.595
11160TIP3   OH233424   3.293   4.473   6.014
11160TIP3    H133425   3.237   4.501   6.087
11160TIP3    H233426   3.372   4.441   6.056
11161TIP3   OH233427   0.695   0.486   0.020
11161TIP3    H133428   0.688   0.567   0.071
11161TIP3    H233429   0.615   0.482  -0.031
11162TIP3   OH233430   2.517   4.449   6.425
11162TIP3    H133431   2.483   4.390   6.359
11162TIP3    H233432   2.591   4.402   6.465
11163TIP3   OH233433   2.648   4.871   6.569
11163TIP3    H133434   2.626   4.855   6.477
11163TIP3    H233435   2.733   4.828   6.581
11164TIP3   OH233436   2.621   4.437   6.800
11164TIP3    H133437   2.658   4.401   6.719
11164TIP3    H233438   2.675   4.513   6.820
11165TIP3   OH233439   3.194   5.074   6.579
11165TIP3    H133440   3.169   5.152   6.628
11165TIP3    H233441   3.171   5.001   6.637
11166TIP3   OH233442   8.459   0.975   0.178
11166TIP3    H133443   8.397   1.033   0.223
11166TIP3    H233444   8.405   0.921   0.121
11167TIP3   OH233445   3.124   4.329   5.851
11167TIP3    H133446   3.184   4.387   5.898
11167TIP3    H233447   3.151   4.337   5.759
11168TIP3   OH233448   8.211   0.539   0.335
11168TIP3    H133449   8.209   0.634   0.345
11168TIP3    H233450   8.121   0.513   0.320
11169TIP3   OH233451   2.858   5.012   6.113
11169TIP3    H133452   2.947   5.050   6.111
11169TIP3    H233453   2.807   5.070   6.056
11170TIP3   OH233454   8.247   1.134   0.260
11170TIP3    H133455   8.223   1.140   0.168
11170TIP3    H233456   8.165   1.118   0.306
11171TIP3   OH233457   3.631   3.553   5.904
11171TIP3    H133458   3.556   3.577   5.958
11171TIP3    H233459   3.646   3.630   5.848
11172TIP3   OH233460   2.395   4.291   6.223
11172TIP3    H133461   2.316   4.334   6.189
11172TIP3    H233462   2.369   4.200   6.237
11173TIP3   OH233463   3.459   4.932   5.462
11173TIP3    H133464   3.456   5.024   5.435
11173TIP3    H233465   3.549   4.905   5.441
11174TIP3   OH233466   7.837   0.694   0.209
11174TIP3    H133467   7.770   0.671   0.145
11174TIP3    H233468   7.872   0.610   0.239
11175TIP3   OH233469   2.044   4.872   6.789
11175TIP3    H133470   2.138   4.862   6.770
11175TIP3    H233471   2.040   4.948   6.847
11176TIP3   OH233472   3.871   5.328   6.843
11176TIP3    H133473   3.880   5.233   6.850
11176TIP3    H233474   3.794   5.349   6.896
11177TIP3   OH233475   0.148   1.118   0.038
11177TIP3    H133476   0.141   1.209   0.067
11177TIP3    H233477   0.081   1.071   0.088
11178TIP3   OH233478   2.759   5.223   5.933
11178TIP3    H133479   2.718   5.200   5.850
11178TIP3    H233480   2.720   5.307   5.957
11179TIP3   OH233481   2.193   5.078   6.316
11179TIP3    H133482   2.240   5.071   6.399
11179TIP3    H233483   2.149   4.993   6.307
11180TIP3   OH233484   2.958   5.152   5.560
11180TIP3    H133485   3.004   5.076   5.523
11180TIP3    H233486   2.996   5.163   5.647
11181TIP3   OH233487   3.014   5.197   5.831
11181TIP3    H133488   2.927   5.201   5.871
11181TIP3    H233489   3.069   5.156   5.897
11182TIP3   OH233490   0.924   0.435   0.194
11182TIP3    H133491   0.849   0.447   0.135
11182TIP3    H233492   0.947   0.343   0.185
11183TIP3   OH233493   8.040   0.877   0.179
11183TIP3    H133494   8.089   0.867   0.260
11183TIP3    H233495   7.969   0.814   0.185
11184TIP3   OH233496   2.754   3.688   6.928
11184TIP3    H133497   2.670   3.660   6.892
11184TIP3    H233498   2.735   3.768   6.975
11185TIP3   OH233499   6.133   7.826   0.181
11185TIP3    H133500   6.201   7.798   0.243
11185TIP3    H233501   6.051   7.803   0.224
11186TIP3   OH233502   0.707   0.216   0.106
11186TIP3    H133503   0.667   0.219   0.193
11186TIP3    H233504   0.688   0.302   0.068
11187TIP3   OH233505   3.203   4.323   5.588
11187TIP3    H133506   3.152   4.325   5.508
11187TIP3    H233507   3.286   4.366   5.565
11188TIP3   OH233508   2.914   3.727   5.913
11188TIP3    H133509   2.879   3.731   6.002
11188TIP3    H233510   2.873   3.649   5.875
11189TIP3   OH233511   8.353   0.200   0.009
11189TIP3    H133512   8.363   0.243   0.094
11189TIP3    H233513   8.349   0.272  -0.054
11190TIP3   OH233514   2.569   4.098   6.466
11190TIP3    H133515   2.481   4.071   6.489
11190TIP3    H233516   2.582   4.065   6.377
11191TIP3   OH233517   3.037   4.140   6.153
11191TIP3    H133518   3.006   4.229   6.135
11191TIP3    H233519   3.110   4.128   6.093
11192TIP3   OH233520   0.428   0.458   0.333
11192TIP3    H133521   0.396   0.384   0.385
11192TIP3    H233522   0.521   0.464   0.354
11193TIP3   OH233523   3.260   4.222   6.375
11193TIP3    H133524   3.176   4.230   6.419
11193TIP3    H233525   3.256   4.137   6.331
11194TIP3   OH233526   8.151   0.232   0.243
11194TIP3    H133527   8.236   0.269   0.269
11194TIP3    H233528   8.153   0.143   0.277
11195TIP3   OH233529   2.575   3.714   5.874
11195TIP3    H133530   2.566   3.719   5.970
11195TIP3    H233531   2.497   3.759   5.841
11196TIP3   OH233532   2.124   3.755   6.743
11196TIP3    H133533   2.190   3.794   6.800
11196TIP3    H233534   2.168   3.748   6.658
11197TIP3   OH233535   2.032   3.733   6.252
11197TIP3    H133536   2.077   3.768   6.175
11197TIP3    H233537   1.970   3.801   6.277
11198TIP3   OH233538   3.280   4.459   6.840
11198TIP3    H133539   3.299   4.389   6.777
11198TIP3    H233540   3.231   4.416   6.910
11199TIP3   OH233541   2.940   3.921   6.524
11199TIP3    H133542   2.864   3.912   6.582
11199TIP3    H233543   2.975   4.008   6.544
11200TIP3   OH233544   2.333   3.969   6.524
11200TIP3    H133545   2.245   3.972   6.485
11200TIP3    H233546   2.365   3.882   6.503
11201TIP3   OH233547   2.581   3.970   6.222
11201TIP3    H133548   2.676   3.982   6.216
11201TIP3    H233549   2.549   3.992   6.134
11202TIP3   OH233550   3.415   3.991   6.737
11202TIP3    H133551   3.381   4.026   6.820
11202TIP3    H233552   3.355   3.919   6.716
11203TIP3   OH233553   2.472   4.000   5.974
11203TIP3    H133554   2.411   3.953   5.917
11203TIP3    H233555   2.529   4.047   5.913
11204TIP3   OH233556   3.589   5.681   6.947
11204TIP3    H133557   3.585   5.698   6.853
11204TIP3    H233558   3.667   5.726   6.976
11205TIP3   OH233559   8.188   0.804   0.418
11205TIP3    H133560   8.270   0.819   0.465
11205TIP3    H233561   8.121   0.807   0.486
11206TIP3   OH233562   2.480   3.727   6.504
11206TIP3    H133563   2.453   3.649   6.553
11206TIP3    H233564   2.513   3.693   6.421
11207TIP3   OH233565   2.694   4.519   5.996
11207TIP3    H133566   2.621   4.462   5.974
11207TIP3    H233567   2.670   4.557   6.081
11208TIP3   OH233568   3.578   4.778   6.581
11208TIP3    H133569   3.521   4.846   6.544
11208TIP3    H233570   3.524   4.700   6.584
11209TIP3   OH233571   3.166   3.831   5.904
11209TIP3    H133572   3.072   3.815   5.904
11209TIP3    H233573   3.174   3.926   5.915
11210TIP3   OH233574   0.278   0.857   0.065
11210TIP3    H133575   0.322   0.842   0.149
11210TIP3    H233576   0.237   0.942   0.074
11211TIP3   OH233577   3.234   4.094   5.961
11211TIP3    H133578   3.328   4.101   5.980
11211TIP3    H233579   3.213   4.175   5.914
11212TIP3   OH233580   2.390   4.537   6.655
11212TIP3    H133581   2.429   4.517   6.569
11212TIP3    H233582   2.454   4.505   6.718
11213TIP3   OH233583   2.851   4.680   5.842
11213TIP3    H133584   2.801   4.762   5.840
11213TIP3    H233585   2.796   4.620   5.893
11214TIP3   OH233586   7.935   0.478   0.355
11214TIP3    H133587   7.948   0.450   0.445
11214TIP3    H233588   7.872   0.415   0.319
11215TIP3   OH233589   0.196   0.608   0.348
11215TIP3    H133590   0.148   0.579   0.271
11215TIP3    H233591   0.283   0.568   0.338
11216TIP3   OH233592   3.256   5.143   6.899
11216TIP3    H133593   3.161   5.128   6.903
11216TIP3    H233594   3.278   5.178   6.986
11217TIP3   OH233595   3.641   4.187   5.795
11217TIP3    H133596   3.585   4.140   5.733
11217TIP3    H233597   3.646   4.276   5.759
11218TIP3   OH233598   3.908   5.051   6.855
11218TIP3    H133599   3.815   5.030   6.844
11218TIP3    H233600   3.954   4.972   6.826
11219TIP3   OH233601   3.381   4.994   5.723
11219TIP3    H133602   3.348   4.917   5.770
11219TIP3    H233603   3.402   4.961   5.636
11220TIP3   OH233604   3.351   4.625   6.516
11220TIP3    H133605   3.262   4.599   6.538
11220TIP3    H233606   3.391   4.546   6.479
11221TIP3   OH233607   2.515   4.874   6.319
11221TIP3    H133608   2.517   4.951   6.262
11221TIP3    H233609   2.423   4.850   6.324
11222TIP3   OH233610   2.071   4.155   6.021
11222TIP3    H133611   2.117   4.236   6.043
11222TIP3    H233612   1.992   4.156   6.075
11223TIP3   OH233613   2.599   4.627   6.225
11223TIP3    H133614   2.590   4.716   6.257
11223TIP3    H233615   2.576   4.572   6.300
11224TIP3   OH233616   2.793   5.196   6.773
11224TIP3    H133617   2.829   5.268   6.722
11224TIP3    H233618   2.868   5.162   6.822
11225TIP3   OH233619   2.425   5.098   6.165
11225TIP3    H133620   2.339   5.104   6.208
11225TIP3    H233621   2.460   5.187   6.170
11226TIP3   OH233622   3.146   4.846   6.733
11226TIP3    H133623   3.139   4.846   6.828
11226TIP3    H233624   3.193   4.765   6.712
11227TIP3   OH233625   3.143   4.739   5.620
11227TIP3    H133626   3.181   4.720   5.706
11227TIP3    H233627   3.059   4.694   5.620
11228TIP3   OH233628   3.405   5.355   6.785
11228TIP3    H133629   3.336   5.291   6.804
11228TIP3    H233630   3.370   5.408   6.713
11229TIP3   OH233631   3.456   5.205   5.417
11229TIP3    H133632   3.472   5.263   5.343
11229TIP3    H233633   3.386   5.247   5.466
11230TIP3   OH233634   5.331   7.989   0.347
11230TIP3    H133635   5.238   7.973   0.362
11230TIP3    H233636   5.376   7.936   0.412
11231TIP3   OH233637   3.313   4.695   5.848
11231TIP3    H133638   3.294   4.618   5.902
11231TIP3    H233639   3.406   4.686   5.826
11232TIP3   OH233640   7.879   1.078  -0.002
11232TIP3    H133641   7.934   1.014   0.044
11232TIP3    H233642   7.901   1.162   0.037
11233TIP3   OH233643   2.481   4.705   5.629
11233TIP3    H133644   2.494   4.616   5.597
11233TIP3    H233645   2.468   4.695   5.723
11234TIP3   OH233646   2.429   4.718   5.903
11234TIP3    H133647   2.503   4.689   5.957
11234TIP3    H233648   2.432   4.813   5.906
11235TIP3   OH233649   2.167   4.404   6.106
11235TIP3    H133650   2.104   4.452   6.160
11235TIP3    H233651   2.188   4.463   6.034
11236TIP3   OH233652   0.483   0.058   0.054
11236TIP3    H133653   0.570   0.090   0.078
11236TIP3    H233654   0.476  -0.027   0.096
11237TIP3   OH233655   3.217   3.774   6.173
11237TIP3    H133656   3.196   3.796   6.082
11237TIP3    H233657   3.264   3.850   6.206
11238TIP3   OH233658   2.703   4.906   5.841
11238TIP3    H133659   2.618   4.932   5.876
11238TIP3    H233660   2.724   4.974   5.777
11239TIP3   OH233661   2.854   3.978   6.263
11239TIP3    H133662   2.916   4.038   6.223
11239TIP3    H233663   2.882   3.972   6.355
11240TIP3   OH233664   0.335   0.307   0.102
11240TIP3    H133665   0.372   0.336   0.185
11240TIP3    H233666   0.371   0.219   0.089
11241TIP3   OH233667   3.033   3.698   6.368
11241TIP3    H133668   3.014   3.777   6.418
11241TIP3    H233669   3.101   3.725   6.306
11242TIP3   OH233670   2.451   4.992   5.913
11242TIP3    H133671   2.432   5.063   5.852
11242TIP3    H233672   2.442   5.031   6.000
11243TIP3   OH233673   2.548   3.700   6.155
11243TIP3    H133674   2.536   3.791   6.184
11243TIP3    H233675   2.642   3.684   6.163
11244TIP3   OH233676   0.978   0.171   0.103
11244TIP3    H133677   0.883   0.164   0.101
11244TIP3    H233678   1.005   0.167   0.011
11245TIP3   OH233679   3.469   4.390   6.425
11245TIP3    H133680   3.394   4.331   6.420
11245TIP3    H233681   3.536   4.340   6.470
11246TIP3   OH233682   2.181   4.589   5.893
11246TIP3    H133683   2.253   4.651   5.905
11246TIP3    H233684   2.214   4.526   5.829
11247TIP3   OH233685   2.100   3.878   6.031
11247TIP3    H133686   2.111   3.973   6.036
11247TIP3    H233687   2.071   3.861   5.941
11248TIP3   OH233688   3.439   5.349   6.359
11248TIP3    H133689   3.395   5.401   6.292
11248TIP3    H233690   3.532   5.361   6.342
11249TIP3   OH233691   2.491   3.611   6.882
11249TIP3    H133692   2.464   3.579   6.796
11249TIP3    H233693   2.487   3.534   6.938
11250TIP3   OH233694   2.025   4.848   6.293
11250TIP3    H133695   1.982   4.883   6.371
11250TIP3    H233696   1.981   4.891   6.220
11251TIP3   OH233697   7.890   1.383   0.415
11251TIP3    H133698   7.972   1.389   0.464
11251TIP3    H233699   7.880   1.289   0.398
11252TIP3   OH233700   8.351   1.298   0.455
11252TIP3    H133701   8.443   1.273   0.465
11252TIP3    H233702   8.319   1.244   0.383
11253TIP3   OH233703   2.643   4.906   5.529
11253TIP3    H133704   2.594   4.833   5.568
11253TIP3    H233705   2.713   4.863   5.480
11254TIP3   OH233706   0.472   1.236   0.210
11254TIP3    H133707   0.484   1.165   0.273
11254TIP3    H233708   0.547   1.294   0.224
11255TIP3   OH233709   3.079   4.938   5.439
11255TIP3    H133710   3.114   4.873   5.500
11255TIP3    H233711   3.138   4.932   5.363
11256TIP3   OH233712   7.985   0.783   0.608
11256TIP3    H133713   8.005   0.689   0.615
11256TIP3    H233714   7.900   0.786   0.564
11257TIP3   OH233715   2.311   4.401   5.742
11257TIP3    H133716   2.364   4.376   5.818
11257TIP3    H233717   2.375   4.413   5.671
11258TIP3   OH233718   0.107   0.871   0.386
11258TIP3    H133719   0.065   0.892   0.303
11258TIP3    H233720   0.148   0.786   0.371
11259TIP3   OH233721   2.892   4.620   5.577
11259TIP3    H133722   2.866   4.633   5.669
11259TIP3    H233723   2.877   4.527   5.561
11260TIP3   OH233724   3.433   4.917   6.946
11260TIP3    H133725   3.509   4.942   6.895
11260TIP3    H233726   3.365   4.980   6.922
11261TIP3   OH233727   8.103   0.528   0.604
11261TIP3    H133728   8.171   0.519   0.536
11261TIP3    H233729   8.151   0.554   0.682
11262TIP3   OH233730   2.485   4.339   5.953
11262TIP3    H133731   2.470   4.309   6.043
11262TIP3    H233732   2.537   4.269   5.913
11263TIP3   OH233733   8.401   0.366   0.238
11263TIP3    H133734   8.341   0.432   0.275
11263TIP3    H233735   8.468   0.417   0.194
11264TIP3   OH233736   2.633   4.151   5.812
11264TIP3    H133737   2.606   4.156   5.720
11264TIP3    H233738   2.729   4.156   5.809
11265TIP3   OH233739   0.477   0.787   0.365
11265TIP3    H133740   0.537   0.744   0.304
11265TIP3    H233741   0.472   0.727   0.440
11266TIP3   OH233742   3.427   4.444   5.474
11266TIP3    H133743   3.409   4.402   5.390
11266TIP3    H233744   3.402   4.536   5.461
11267TIP3   OH233745   0.071   0.190   0.363
11267TIP3    H133746   0.077   0.110   0.310
11267TIP3    H233747   0.016   0.249   0.311
11268TIP3   OH233748   5.743   7.999   0.174
11268TIP3    H133749   5.767   8.040   0.090
11268TIP3    H233750   5.653   7.970   0.160
11269TIP3   OH233751   0.091   0.510   0.109
11269TIP3    H133752   0.161   0.463   0.064
11269TIP3    H233753   0.051   0.564   0.040
11270TIP3   OH233754   0.690   0.473   0.432
11270TIP3    H133755   0.717   0.382   0.417
11270TIP3    H233756   0.764   0.526   0.402
11271TIP3   OH233757   0.704   0.726   0.176
11271TIP3    H133758   0.654   0.789   0.124
11271TIP3    H233759   0.794   0.736   0.146
11272TIP3   OH233760   8.464   0.295   0.601
11272TIP3    H133761   8.392   0.234   0.617
11272TIP3    H233762   8.491   0.277   0.511
11273TIP3   OH233763   5.868   7.767   0.259
11273TIP3    H133764   5.827   7.848   0.229
11273TIP3    H233765   5.802   7.699   0.245
11274TIP3   OH233766   0.330   0.234   0.452
11274TIP3    H133767   0.312   0.218   0.545
11274TIP3    H233768   0.247   0.219   0.408
11275TIP3   OH233769   0.592   0.202   0.351
11275TIP3    H133770   0.507   0.191   0.394
11275TIP3    H233771   0.655   0.161   0.410
11276TIP3   OH233772   0.823   0.137   0.499
11276TIP3    H133773   0.827   0.042   0.506
11276TIP3    H233774   0.812   0.168   0.589
11277TIP3   OH233775   8.299   0.083   0.648
11277TIP3    H133776   8.307   0.005   0.593
11277TIP3    H233777   8.341   0.058   0.731
11278TIP3   OH233778   5.952   7.743   0.513
11278TIP3    H133779   6.018   7.675   0.503
11278TIP3    H233780   5.914   7.752   0.425
11279TIP3   OH233781   6.045   7.980   0.615
11279TIP3    H133782   6.020   7.900   0.568
11279TIP3    H233783   5.967   8.035   0.613
11280TIP3   OH233784   2.447   5.204   5.733
11280TIP3    H133785   2.537   5.183   5.707
11280TIP3    H233786   2.410   5.247   5.657
11281TIP3   OH233787   1.904   4.581   5.927
11281TIP3    H133788   1.998   4.598   5.913
11281TIP3    H233789   1.890   4.494   5.888
11282TIP3   OH233790   1.823   5.162   6.364
11282TIP3    H133791   1.756   5.108   6.321
11282TIP3    H233792   1.865   5.102   6.426
11283TIP3   OH233793   1.961   4.999   6.541
11283TIP3    H133794   1.952   4.932   6.609
11283TIP3    H233795   2.011   5.068   6.582
11284TIP3   OH233796   3.714   5.385   6.344
11284TIP3    H133797   3.724   5.418   6.433
11284TIP3    H233798   3.775   5.438   6.292
11285TIP3   OH233799   3.718   5.432   6.626
11285TIP3    H133800   3.669   5.349   6.625
11285TIP3    H233801   3.786   5.418   6.691
11286TIP3   OH233802   0.937   1.130   0.260
11286TIP3    H133803   0.866   1.138   0.323
11286TIP3    H233804   0.983   1.214   0.264
11287TIP3   OH233805   3.589   4.652   5.815
11287TIP3    H133806   3.650   4.718   5.782
11287TIP3    H233807   3.634   4.613   5.889
11288TIP3   OH233808   3.715   4.513   6.022
11288TIP3    H133809   3.645   4.469   6.071
11288TIP3    H233810   3.779   4.537   6.088
11289TIP3   OH233811   3.703   4.902   6.361
11289TIP3    H133812   3.680   4.833   6.424
11289TIP3    H233813   3.618   4.928   6.323
11290TIP3   OH233814   3.579   5.189   6.645
11290TIP3    H133815   3.514   5.236   6.697
11290TIP3    H233816   3.530   5.154   6.571
11291TIP3   OH233817   3.631   4.427   5.658
11291TIP3    H133818   3.561   4.425   5.592
11291TIP3    H233819   3.612   4.505   5.711
11292TIP3   OH233820   3.489   4.075   5.597
11292TIP3    H133821   3.437   4.113   5.526
11292TIP3    H233822   3.480   3.980   5.585
11293TIP3   OH233823   3.514   4.369   6.150
11293TIP3    H133824   3.515   4.274   6.138
11293TIP3    H233825   3.498   4.381   6.243
11294TIP3   OH233826   2.142   4.445   6.911
11294TIP3    H133827   2.133   4.407   6.824
11294TIP3    H233828   2.235   4.438   6.931
11295TIP3   OH233829   0.957   0.767   0.076
11295TIP3    H133830   1.027   0.703   0.065
11295TIP3    H233831   0.958   0.818  -0.005
11296TIP3   OH233832   1.139   0.562   0.079
11296TIP3    H133833   1.066   0.515   0.119
11296TIP3    H233834   1.215   0.505   0.092
11297TIP3   OH233835   3.450   3.803   5.568
11297TIP3    H133836   3.513   3.780   5.636
11297TIP3    H233837   3.367   3.767   5.599
11298TIP3   OH233838   3.516   4.094   6.034
11298TIP3    H133839   3.561   4.010   6.048
11298TIP3    H233840   3.559   4.132   5.958
11299TIP3   OH233841   3.697   4.263   6.539
11299TIP3    H133842   3.775   4.289   6.490
11299TIP3    H233843   3.712   4.297   6.627
11300TIP3   OH233844   3.751   4.401   6.787
11300TIP3    H133845   3.672   4.429   6.835
11300TIP3    H233846   3.785   4.481   6.748
11301TIP3   OH233847   8.033   0.135   0.606
11301TIP3    H133848   8.129   0.130   0.612
11301TIP3    H233849   8.003   0.052   0.642
11302TIP3   OH233850   7.089   7.958   0.403
11302TIP3    H133851   7.049   7.878   0.369
11302TIP3    H233852   7.047   8.028   0.354
11303TIP3   OH233853   3.629   3.841   6.083
11303TIP3    H133854   3.674   3.827   6.166
11303TIP3    H233855   3.563   3.771   6.079
11304TIP3   OH233856   2.325   3.828   6.921
11304TIP3    H133857   2.379   3.749   6.920
11304TIP3    H233858   2.386   3.899   6.902
11305TIP3   OH233859   7.783   0.090   0.030
11305TIP3    H133860   7.831   0.084  -0.052
11305TIP3    H233861   7.832   0.153   0.083
11306TIP3   OH233862   1.239   0.100   0.236
11306TIP3    H133863   1.172   0.155   0.276
11306TIP3    H233864   1.196   0.057   0.162
11307TIP3   OH233865   3.675   3.756   5.722
11307TIP3    H133866   3.724   3.695   5.667
11307TIP3    H233867   3.731   3.833   5.729
11308TIP3   OH233868   2.099   3.585   6.471
11308TIP3    H133869   2.014   3.581   6.515
11308TIP3    H233870   2.086   3.646   6.398
11309TIP3   OH233871   3.268   5.311   5.995
11309TIP3    H133872   3.319   5.298   5.915
11309TIP3    H233873   3.309   5.387   6.037
11310TIP3   OH233874   5.197   7.699   0.306
11310TIP3    H133875   5.165   7.706   0.396
11310TIP3    H233876   5.128   7.739   0.253
11311TIP3   OH233877   8.022   1.110   0.425
11311TIP3    H133878   7.930   1.086   0.417
11311TIP3    H233879   8.043   1.095   0.517
11312TIP3   OH233880   2.564   5.154   6.918
11312TIP3    H133881   2.514   5.229   6.887
11312TIP3    H233882   2.649   5.162   6.876
11313TIP3   OH233883   0.133   1.384   0.120
11313TIP3    H133884   0.171   1.376   0.207
11313TIP3    H233885   0.196   1.437   0.070
11314TIP3   OH233886   3.156   5.544   6.930
11314TIP3    H133887   3.218   5.490   6.881
11314TIP3    H233888   3.212   5.600   6.984
11315TIP3   OH233889   6.786   7.886   0.075
11315TIP3    H133890   6.706   7.897   0.024
11315TIP3    H233891   6.812   7.795   0.059
11316TIP3   OH233892   7.894   1.392   0.027
11316TIP3    H133893   7.803   1.413   0.004
11316TIP3    H233894   7.918   1.457   0.092
11317TIP3   OH233895   2.457   5.387   6.816
11317TIP3    H133896   2.374   5.393   6.863
11317TIP3    H233897   2.436   5.412   6.726
11318TIP3   OH233898   2.873   5.404   6.607
11318TIP3    H133899   2.801   5.416   6.544
11318TIP3    H233900   2.884   5.491   6.647
11319TIP3   OH233901   3.138   5.340   6.657
11319TIP3    H133902   3.046   5.358   6.637
11319TIP3    H233903   3.187   5.406   6.609
11320TIP3   OH233904   3.340   5.515   6.559
11320TIP3    H133905   3.335   5.601   6.518
11320TIP3    H233906   3.371   5.457   6.489
11321TIP3   OH233907   2.134   5.178   6.687
11321TIP3    H133908   2.159   5.152   6.776
11321TIP3    H233909   2.206   5.147   6.632
11322TIP3   OH233910   2.339   5.065   6.549
11322TIP3    H133911   2.351   4.980   6.591
11322TIP3    H233912   2.426   5.104   6.550
11323TIP3   OH233913   2.608   5.149   6.567
11323TIP3    H133914   2.626   5.056   6.552
11323TIP3    H233915   2.662   5.172   6.643
11324TIP3   OH233916   3.228   3.790   6.698
11324TIP3    H133917   3.137   3.765   6.684
11324TIP3    H233918   3.275   3.752   6.624
11325TIP3   OH233919   3.676   3.704   6.540
11325TIP3    H133920   3.714   3.754   6.468
11325TIP3    H233921   3.584   3.730   6.541
11326TIP3   OH233922   3.789   3.781   6.303
11326TIP3    H133923   3.859   3.722   6.274
11326TIP3    H233924   3.825   3.869   6.288
11327TIP3   OH233925   2.408   3.498   6.644
11327TIP3    H133926   2.319   3.465   6.654
11327TIP3    H233927   2.462   3.419   6.639
11328TIP3   OH233928   2.213   3.394   6.297
11328TIP3    H133929   2.247   3.446   6.224
11328TIP3    H233930   2.181   3.458   6.360
11329TIP3   OH233931   2.885   3.538   6.542
11329TIP3    H133932   2.930   3.596   6.481
11329TIP3    H233933   2.921   3.562   6.628
11330TIP3   OH233934   3.392   3.675   6.508
11330TIP3    H133935   3.407   3.640   6.420
11330TIP3    H233936   3.390   3.597   6.564
11331TIP3   OH233937   3.441   3.630   6.088
11331TIP3    H133938   3.362   3.678   6.112
11331TIP3    H233939   3.428   3.543   6.126
11332TIP3   OH233940   1.903   4.973   6.080
11332TIP3    H133941   1.827   4.940   6.033
11332TIP3    H233942   1.906   5.066   6.059
11333TIP3   OH233943   2.333   3.536   6.073
11333TIP3    H133944   2.378   3.477   6.012
11333TIP3    H233945   2.402   3.593   6.106
11334TIP3   OH233946   2.823   3.722   6.176
11334TIP3    H133947   2.886   3.680   6.234
11334TIP3    H233948   2.830   3.815   6.198
11335TIP3   OH233949   2.704   5.132   5.665
11335TIP3    H133950   2.788   5.158   5.626
11335TIP3    H233951   2.673   5.060   5.610
11336TIP3   OH233952   3.411   5.263   5.762
11336TIP3    H133953   3.405   5.168   5.753
11336TIP3    H233954   3.368   5.298   5.684
11337TIP3   OH233955   5.488   7.852   0.532
11337TIP3    H133956   5.426   7.784   0.560
11337TIP3    H233957   5.571   7.825   0.571
11338TIP3   OH233958   5.729   7.802   0.667
11338TIP3    H133959   5.804   7.797   0.607
11338TIP3    H233960   5.737   7.725   0.722
11339TIP3   OH233961   2.039   5.000   5.732
11339TIP3    H133962   2.038   4.981   5.826
11339TIP3    H233963   2.111   4.947   5.698
11340TIP3   OH233964   6.537   7.877   0.497
11340TIP3    H133965   6.555   7.852   0.588
11340TIP3    H233966   6.620   7.866   0.452
11341TIP3   OH233967   3.626   5.406   6.951
11341TIP3    H133968   3.550   5.378   6.899
11341TIP3    H233969   3.616   5.500   6.960
11342TIP3   OH233970   4.901   4.790   5.695
11342TIP3    H133971   4.867   4.878   5.677
11342TIP3    H233972   4.831   4.731   5.667
11343TIP3   OH233973   4.886   4.786   6.121
11343TIP3    H133974   4.942   4.770   6.196
11343TIP3    H233975   4.846   4.701   6.102
11344TIP3   OH233976   4.205   4.683   6.489
11344TIP3    H133977   4.171   4.593   6.496
11344TIP3    H233978   4.276   4.677   6.425
11345TIP3   OH233979   5.190   5.087   5.777
11345TIP3    H133980   5.165   5.028   5.848
11345TIP3    H233981   5.268   5.132   5.809
11346TIP3   OH233982   4.185   5.090   6.182
11346TIP3    H133983   4.178   4.995   6.168
11346TIP3    H233984   4.277   5.111   6.166
11347TIP3   OH233985   3.864   4.279   5.950
11347TIP3    H133986   3.823   4.364   5.972
11347TIP3    H233987   3.796   4.232   5.901
11348TIP3   OH233988   3.939   4.549   6.189
11348TIP3    H133989   3.948   4.496   6.268
11348TIP3    H233990   4.008   4.518   6.131
11349TIP3   OH233991   4.826   5.509   5.817
11349TIP3    H133992   4.852   5.449   5.747
11349TIP3    H233993   4.832   5.457   5.897
11350TIP3   OH233994   4.693   5.010   6.129
11350TIP3    H133995   4.737   4.930   6.100
11350TIP3    H233996   4.765   5.071   6.147
11351TIP3   OH233997   5.740   4.328   6.135
11351TIP3    H133998   5.755   4.414   6.175
11351TIP3    H233999   5.764   4.340   6.043
11352TIP3   OH234000   5.114   4.499   6.156
11352TIP3    H134001   5.149   4.414   6.182
11352TIP3    H234002   5.076   4.484   6.069
11353TIP3   OH234003   4.491   4.147   6.100
11353TIP3    H134004   4.460   4.231   6.065
11353TIP3    H234005   4.418   4.087   6.085
11354TIP3   OH234006   5.166   4.259   5.752
11354TIP3    H134007   5.231   4.253   5.822
11354TIP3    H234008   5.214   4.294   5.677
11355TIP3   OH234009   4.516   4.574   6.064
11355TIP3    H134010   4.610   4.559   6.070
11355TIP3    H234011   4.481   4.492   6.028
11356TIP3   OH234012   5.794   4.547   6.306
11356TIP3    H134013   5.710   4.591   6.292
11356TIP3    H234014   5.831   4.589   6.383
11357TIP3   OH234015   4.445   4.193   6.536
11357TIP3    H134016   4.434   4.272   6.482
11357TIP3    H234017   4.382   4.203   6.607
11358TIP3   OH234018   4.763   5.000   5.582
11358TIP3    H134019   4.743   4.983   5.490
11358TIP3    H234020   4.723   5.085   5.600
11359TIP3   OH234021   4.537   4.927   6.341
11359TIP3    H134022   4.489   5.000   6.380
11359TIP3    H234023   4.586   4.967   6.269
11360TIP3   OH234024   5.330   4.279   5.971
11360TIP3    H134025   5.287   4.259   6.055
11360TIP3    H234026   5.386   4.354   5.990
11361TIP3   OH234027   4.390   5.129   6.470
11361TIP3    H134028   4.360   5.214   6.438
11361TIP3    H234029   4.326   5.105   6.537
11362TIP3   OH234030   3.766   4.834   5.693
11362TIP3    H134031   3.734   4.845   5.604
11362TIP3    H234032   3.793   4.922   5.720
11363TIP3   OH234033   5.537   4.212   6.299
11363TIP3    H134034   5.451   4.238   6.267
11363TIP3    H234035   5.599   4.243   6.233
11364TIP3   OH234036   4.795   3.861   6.298
11364TIP3    H134037   4.781   3.768   6.317
11364TIP3    H234038   4.720   3.905   6.337
11365TIP3   OH234039   4.906   5.375   5.581
11365TIP3    H134040   4.957   5.294   5.573
11365TIP3    H234041   4.968   5.444   5.557
11366TIP3   OH234042   5.061   5.156   5.537
11366TIP3    H134043   5.067   5.080   5.479
11366TIP3    H234044   5.105   5.128   5.617
11367TIP3   OH234045   5.436   5.237   6.280
11367TIP3    H134046   5.424   5.165   6.219
11367TIP3    H234047   5.414   5.315   6.229
11368TIP3   OH234048   4.726   4.633   5.542
11368TIP3    H134049   4.645   4.682   5.523
11368TIP3    H234050   4.773   4.632   5.459
11369TIP3   OH234051   4.700   4.438   5.231
11369TIP3    H134052   4.765   4.488   5.281
11369TIP3    H234053   4.751   4.374   5.182
11370TIP3   OH234054   5.624   4.899   6.163
11370TIP3    H134055   5.537   4.938   6.155
11370TIP3    H234056   5.658   4.895   6.074
11371TIP3   OH234057   5.084   4.728   5.502
11371TIP3    H134058   5.030   4.754   5.577
11371TIP3    H234059   5.167   4.701   5.542
11372TIP3   OH234060   5.313   4.752   6.446
11372TIP3    H134061   5.310   4.836   6.491
11372TIP3    H234062   5.232   4.749   6.395
11373TIP3   OH234063   4.315   4.705   5.912
11373TIP3    H134064   4.279   4.644   5.847
11373TIP3    H234065   4.388   4.657   5.951
11374TIP3   OH234066   4.436   5.133   6.063
11374TIP3    H134067   4.411   5.115   5.973
11374TIP3    H234068   4.523   5.094   6.072
11375TIP3   OH234069   4.408   4.688   6.291
11375TIP3    H134070   4.446   4.653   6.211
11375TIP3    H234071   4.458   4.768   6.308
11376TIP3   OH234072   4.874   5.348   6.053
11376TIP3    H134073   4.923   5.418   6.097
11376TIP3    H234074   4.902   5.268   6.098
11377TIP3   OH234075   4.596   5.246   6.612
11377TIP3    H134076   4.534   5.303   6.657
11377TIP3    H234077   4.541   5.188   6.559
11378TIP3   OH234078   4.917   4.584   5.338
11378TIP3    H134079   4.976   4.642   5.386
11378TIP3    H234080   4.943   4.594   5.246
11379TIP3   OH234081   4.342   4.766   6.733
11379TIP3    H134082   4.339   4.858   6.758
11379TIP3    H234083   4.285   4.760   6.656
11380TIP3   OH234084   4.654   5.259   5.596
11380TIP3    H134085   4.740   5.301   5.600
11380TIP3    H234086   4.602   5.316   5.541
11381TIP3   OH234087   4.376   5.400   6.688
11381TIP3    H134088   4.355   5.411   6.595
11381TIP3    H234089   4.291   5.389   6.731
11382TIP3   OH234090   5.430   3.811   5.395
11382TIP3    H134091   5.353   3.833   5.447
11382TIP3    H234092   5.443   3.887   5.339
11383TIP3   OH234093   4.191   4.544   5.714
11383TIP3    H134094   4.112   4.585   5.679
11383TIP3    H234095   4.164   4.455   5.736
11384TIP3   OH234096   5.249   5.187   4.948
11384TIP3    H134097   5.250   5.279   4.922
11384TIP3    H234098   5.337   5.155   4.931
11385TIP3   OH234099   3.929   5.120   6.303
11385TIP3    H134100   4.014   5.141   6.265
11385TIP3    H234101   3.889   5.206   6.320
11386TIP3   OH234102   5.677   5.600   6.340
11386TIP3    H134103   5.681   5.504   6.345
11386TIP3    H234104   5.595   5.623   6.383
11387TIP3   OH234105   4.781   5.380   6.463
11387TIP3    H134106   4.773   5.472   6.487
11387TIP3    H234107   4.717   5.335   6.517
11388TIP3   OH234108   4.551   5.477   5.418
11388TIP3    H134109   4.510   5.455   5.335
11388TIP3    H234110   4.513   5.561   5.443
11389TIP3   OH234111   3.990   5.339   5.807
11389TIP3    H134112   4.033   5.328   5.892
11389TIP3    H234113   3.943   5.257   5.794
11390TIP3   OH234114   4.759   5.408   5.051
11390TIP3    H134115   4.811   5.337   5.015
11390TIP3    H234116   4.792   5.421   5.140
11391TIP3   OH234117   4.808   5.455   5.321
11391TIP3    H134118   4.720   5.458   5.359
11391TIP3    H234119   4.862   5.413   5.387
11392TIP3   OH234120   5.555   4.715   6.615
11392TIP3    H134121   5.476   4.726   6.562
11392TIP3    H234122   5.576   4.622   6.609
11393TIP3   OH234123   4.557   3.957   6.422
11393TIP3    H134124   4.475   3.920   6.389
11393TIP3    H234125   4.534   4.046   6.450
11394TIP3   OH234126   5.097   4.066   6.619
11394TIP3    H134127   5.164   4.041   6.683
11394TIP3    H234128   5.014   4.049   6.663
11395TIP3   OH234129   5.325   4.488   6.536
11395TIP3    H134130   5.282   4.485   6.621
11395TIP3    H234131   5.306   4.576   6.503
11396TIP3   OH234132   4.992   4.594   5.077
11396TIP3    H134133   4.948   4.587   4.993
11396TIP3    H234134   5.077   4.632   5.056
11397TIP3   OH234135   4.707   3.982   5.390
11397TIP3    H134136   4.670   3.989   5.478
11397TIP3    H234137   4.669   3.901   5.354
11398TIP3   OH234138   4.508   4.469   6.439
11398TIP3    H134139   4.461   4.479   6.522
11398TIP3    H234140   4.474   4.539   6.384
11399TIP3   OH234141   4.387   4.359   5.951
11399TIP3    H134142   4.296   4.338   5.973
11399TIP3    H234143   4.399   4.322   5.863
11400TIP3   OH234144   4.857   4.432   5.676
11400TIP3    H134145   4.808   4.503   5.636
11400TIP3    H234146   4.915   4.401   5.607
11401TIP3   OH234147   5.042   4.700   6.753
11401TIP3    H134148   5.015   4.631   6.813
11401TIP3    H234149   5.135   4.714   6.772
11402TIP3   OH234150   5.021   4.446   5.904
11402TIP3    H134151   4.955   4.471   5.839
11402TIP3    H234152   5.066   4.371   5.864
11403TIP3   OH234153   4.361   4.478   6.665
11403TIP3    H134154   4.333   4.554   6.716
11403TIP3    H234155   4.319   4.404   6.708
11404TIP3   OH234156   4.371   3.966   5.364
11404TIP3    H134157   4.362   3.974   5.459
11404TIP3    H234158   4.294   4.012   5.329
11405TIP3   OH234159   3.907   4.011   6.230
11405TIP3    H134160   3.962   4.053   6.297
11405TIP3    H234161   3.944   4.041   6.147
11406TIP3   OH234162   3.830   3.989   5.738
11406TIP3    H134163   3.875   4.024   5.662
11406TIP3    H234164   3.768   4.058   5.763
11407TIP3   OH234165   5.058   4.699   6.329
11407TIP3    H134166   5.083   4.633   6.264
11407TIP3    H234167   5.016   4.649   6.399
11408TIP3   OH234168   4.746   4.142   5.995
11408TIP3    H134169   4.663   4.144   6.043
11408TIP3    H234170   4.813   4.142   6.063
11409TIP3   OH234171   4.139   4.255   5.986
11409TIP3    H134172   4.044   4.255   5.971
11409TIP3    H234173   4.163   4.163   5.987
11410TIP3   OH234174   4.395   4.231   5.704
11410TIP3    H134175   4.489   4.243   5.692
11410TIP3    H234176   4.356   4.251   5.619
11411TIP3   OH234177   5.191   4.238   6.214
11411TIP3    H134178   5.170   4.257   6.305
11411TIP3    H234179   5.122   4.178   6.185
11412TIP3   OH234180   4.275   4.257   5.459
11412TIP3    H134181   4.211   4.209   5.406
11412TIP3    H234182   4.329   4.303   5.395
11413TIP3   OH234183   5.384   5.942   6.434
11413TIP3    H134184   5.381   5.947   6.339
11413TIP3    H234185   5.463   5.991   6.458
11414TIP3   OH234186   4.344   5.025   6.842
11414TIP3    H134187   4.420   5.051   6.893
11414TIP3    H234188   4.269   5.050   6.896
11415TIP3   OH234189   4.788   4.515   6.110
11415TIP3    H134190   4.851   4.466   6.058
11415TIP3    H234191   4.787   4.472   6.196
11416TIP3   OH234192   4.268   3.995   6.003
11416TIP3    H134193   4.241   3.917   6.052
11416TIP3    H234194   4.297   3.962   5.918
11417TIP3   OH234195   4.769   4.414   6.374
11417TIP3    H134196   4.681   4.443   6.396
11417TIP3    H234197   4.826   4.469   6.428
11418TIP3   OH234198   4.488   4.774   5.485
11418TIP3    H134199   4.414   4.717   5.464
11418TIP3    H234200   4.464   4.814   5.569
11419TIP3   OH234201   5.373   5.002   6.125
11419TIP3    H134202   5.399   5.062   6.054
11419TIP3    H234203   5.293   4.961   6.093
11420TIP3   OH234204   4.960   4.087   5.394
11420TIP3    H134205   4.866   4.067   5.389
11420TIP3    H234206   4.963   4.182   5.402
11421TIP3   OH234207   4.898   5.111   6.483
11421TIP3    H134208   4.958   5.106   6.558
11421TIP3    H234209   4.865   5.201   6.485
11422TIP3   OH234210   5.020   4.353   5.460
11422TIP3    H134211   5.115   4.358   5.468
11422TIP3    H234212   4.996   4.428   5.407
11423TIP3   OH234213   4.205   4.821   6.139
11423TIP3    H134214   4.229   4.788   6.052
11423TIP3    H234215   4.261   4.772   6.200
11424TIP3   OH234216   4.647   4.933   5.331
11424TIP3    H134217   4.599   5.016   5.328
11424TIP3    H234218   4.591   4.875   5.383
11425TIP3   OH234219   4.005   4.801   6.811
11425TIP3    H134220   4.063   4.755   6.872
11425TIP3    H234221   3.966   4.731   6.758
11426TIP3   OH234222   4.812   4.856   6.799
11426TIP3    H134223   4.741   4.798   6.770
11426TIP3    H234224   4.892   4.815   6.765
11427TIP3   OH234225   5.054   5.392   6.392
11427TIP3    H134226   4.958   5.386   6.389
11427TIP3    H234227   5.073   5.438   6.474
11428TIP3   OH234228   5.442   4.449   5.294
11428TIP3    H134229   5.386   4.400   5.234
11428TIP3    H234230   5.445   4.537   5.256
11429TIP3   OH234231   5.691   5.320   6.350
11429TIP3    H134232   5.597   5.302   6.352
11429TIP3    H234233   5.720   5.284   6.266
11430TIP3   OH234234   5.173   5.257   5.208
11430TIP3    H134235   5.145   5.182   5.262
11430TIP3    H234236   5.193   5.219   5.123
11431TIP3   OH234237   5.146   4.884   6.007
11431TIP3    H134238   5.054   4.862   6.022
11431TIP3    H234239   5.182   4.806   5.964
11432TIP3   OH234240   4.307   5.133   5.812
11432TIP3    H134241   4.312   5.211   5.757
11432TIP3    H234242   4.223   5.093   5.789
11433TIP3   OH234243   3.863   4.412   5.507
11433TIP3    H134244   3.910   4.492   5.530
11433TIP3    H234245   3.785   4.414   5.562
11434TIP3   OH234246   4.395   4.885   5.714
11434TIP3    H134247   4.395   4.973   5.750
11434TIP3    H234248   4.371   4.829   5.788
11435TIP3   OH234249   4.586   5.447   6.260
11435TIP3    H134250   4.624   5.518   6.208
11435TIP3    H234251   4.661   5.404   6.301
11436TIP3   OH234252   4.221   5.356   5.654
11436TIP3    H134253   4.136   5.362   5.697
11436TIP3    H234254   4.255   5.445   5.656
11437TIP3   OH234255   4.941   5.118   6.207
11437TIP3    H134256   4.934   5.109   6.302
11437TIP3    H234257   5.018   5.066   6.184
11438TIP3   OH234258   4.941   4.997   5.111
11438TIP3    H134259   4.983   4.978   5.195
11438TIP3    H234260   4.858   4.950   5.114
11439TIP3   OH234261   5.178   5.660   6.307
11439TIP3    H134262   5.131   5.578   6.288
11439TIP3    H234263   5.173   5.710   6.225
11440TIP3   OH234264   5.255   5.461   4.907
11440TIP3    H134265   5.282   5.527   4.844
11440TIP3    H234266   5.181   5.501   4.953
11441TIP3   OH234267   4.270   4.231   6.760
11441TIP3    H134268   4.175   4.240   6.765
11441TIP3    H234269   4.292   4.164   6.825
11442TIP3   OH234270   5.108   4.948   5.334
11442TIP3    H134271   5.091   4.872   5.389
11442TIP3    H234272   5.201   4.940   5.311
11443TIP3   OH234273   4.285   4.959   5.113
11443TIP3    H134274   4.295   4.869   5.083
11443TIP3    H234275   4.270   4.952   5.208
11444TIP3   OH234276   4.231   4.976   5.388
11444TIP3    H134277   4.306   4.950   5.440
11444TIP3    H234278   4.232   5.072   5.391
11445TIP3   OH234279   3.965   4.659   5.596
11445TIP3    H134280   3.899   4.706   5.648
11445TIP3    H234281   3.986   4.718   5.525
11446TIP3   OH234282   5.129   4.299   6.475
11446TIP3    H134283   5.208   4.342   6.506
11446TIP3    H234284   5.120   4.221   6.529
11447TIP3   OH234285   5.020   4.040   5.661
11447TIP3    H134286   4.997   4.059   5.570
11447TIP3    H234287   5.061   4.120   5.693
11448TIP3   OH234288   4.500   5.161   5.325
11448TIP3    H134289   4.416   5.189   5.361
11448TIP3    H234290   4.522   5.228   5.260
11449TIP3   OH234291   4.674   4.237   5.743
11449TIP3    H134292   4.735   4.306   5.717
11449TIP3    H234293   4.697   4.217   5.834
11450TIP3   OH234294   4.968   4.534   6.529
11450TIP3    H134295   4.995   4.578   6.610
11450TIP3    H234296   5.020   4.453   6.528
11451TIP3   OH234297   4.832   3.934   5.834
11451TIP3    H134298   4.809   4.010   5.887
11451TIP3    H234299   4.901   3.965   5.775
11452TIP3   OH234300   4.251   5.251   5.401
11452TIP3    H134301   4.230   5.322   5.340
11452TIP3    H234302   4.239   5.290   5.488
11453TIP3   OH234303   4.343   3.960   5.643
11453TIP3    H134304   4.332   4.050   5.672
11453TIP3    H234305   4.437   3.943   5.650
11454TIP3   OH234306   5.592   4.447   6.527
11454TIP3    H134307   5.497   4.445   6.534
11454TIP3    H234308   5.611   4.420   6.438
11455TIP3   OH234309   5.246   4.633   5.905
11455TIP3    H134310   5.170   4.576   5.915
11455TIP3    H234311   5.314   4.594   5.960
11456TIP3   OH234312   3.986   4.844   5.384
11456TIP3    H134313   4.058   4.906   5.392
11456TIP3    H234314   4.017   4.781   5.319
11457TIP3   OH234315   3.894   4.134   5.515
11457TIP3    H134316   3.907   4.229   5.520
11457TIP3    H234317   3.837   4.121   5.439
11458TIP3   OH234318   5.227   5.655   5.875
11458TIP3    H134319   5.179   5.692   5.801
11458TIP3    H234320   5.319   5.664   5.851
11459TIP3   OH234321   4.304   3.863   6.376
11459TIP3    H134322   4.265   3.840   6.291
11459TIP3    H234323   4.277   3.792   6.434
11460TIP3   OH234324   3.820   5.114   5.764
11460TIP3    H134325   3.761   5.142   5.833
11460TIP3    H234326   3.784   5.152   5.684
11461TIP3   OH234327   4.022   5.653   6.838
11461TIP3    H134328   4.102   5.663   6.889
11461TIP3    H234329   4.014   5.558   6.825
11462TIP3   OH234330   4.482   5.562   6.885
11462TIP3    H134331   4.574   5.538   6.895
11462TIP3    H234332   4.450   5.509   6.812
11463TIP3   OH234333   4.444   5.161   5.010
11463TIP3    H134334   4.395   5.088   5.048
11463TIP3    H234335   4.518   5.120   4.966
11464TIP3   OH234336   5.095   5.503   6.642
11464TIP3    H134337   5.111   5.432   6.703
11464TIP3    H234338   5.172   5.560   6.650
11465TIP3   OH234339   4.896   5.203   4.933
11465TIP3    H134340   4.928   5.139   4.996
11465TIP3    H234341   4.952   5.192   4.856
11466TIP3   OH234342   1.294   1.050   0.086
11466TIP3    H134343   1.313   0.956   0.096
11466TIP3    H234344   1.211   1.052   0.040
11467TIP3   OH234345   4.106   4.653   5.230
11467TIP3    H134346   4.159   4.628   5.306
11467TIP3    H234347   4.170   4.666   5.160
11468TIP3   OH234348   4.743   5.130   6.815
11468TIP3    H134349   4.704   5.154   6.731
11468TIP3    H234350   4.780   5.043   6.801
11469TIP3   OH234351   4.688   4.875   5.067
11469TIP3    H134352   4.663   4.886   5.159
11469TIP3    H234353   4.667   4.784   5.047
11470TIP3   OH234354   5.216   5.170   6.434
11470TIP3    H134355   5.293   5.194   6.383
11470TIP3    H234356   5.152   5.239   6.415
11471TIP3   OH234357   1.398   0.788   0.087
11471TIP3    H134358   1.469   0.774   0.025
11471TIP3    H234359   1.443   0.806   0.170
11472TIP3   OH234360   4.282   4.592   5.441
11472TIP3    H134361   4.265   4.559   5.529
11472TIP3    H234362   4.333   4.522   5.399
11473TIP3   OH234363   4.611   4.680   6.708
11473TIP3    H134364   4.520   4.707   6.712
11473TIP3    H234365   4.640   4.704   6.620
11474TIP3   OH234366   4.427   4.409   5.287
11474TIP3    H134367   4.396   4.411   5.197
11474TIP3    H234368   4.522   4.415   5.281
11475TIP3   OH234369   5.105   5.051   6.790
11475TIP3    H134370   5.167   5.009   6.730
11475TIP3    H234371   5.099   4.991   6.864
11476TIP3   OH234372   5.220   4.702   4.965
11476TIP3    H134373   5.213   4.657   4.881
11476TIP3    H234374   5.197   4.793   4.945
11477TIP3   OH234375   4.704   4.440   6.802
11477TIP3    H134376   4.703   4.370   6.736
11477TIP3    H234377   4.671   4.517   6.755
11478TIP3   OH234378   4.710   4.241   6.596
11478TIP3    H134379   4.743   4.281   6.516
11478TIP3    H234380   4.617   4.224   6.577
11479TIP3   OH234381   4.719   4.772   6.477
11479TIP3    H134382   4.807   4.803   6.454
11479TIP3    H234383   4.660   4.829   6.428
11480TIP3   OH234384   5.311   4.732   6.848
11480TIP3    H134385   5.351   4.645   6.852
11480TIP3    H234386   5.381   4.790   6.821
11481TIP3   OH234387   5.337   4.992   6.598
11481TIP3    H134388   5.284   5.054   6.548
11481TIP3    H234389   5.426   5.006   6.566
11482TIP3   OH234390   1.754   0.530   0.102
11482TIP3    H134391   1.682   0.469   0.117
11482TIP3    H234392   1.782   0.513   0.012
11483TIP3   OH234393   4.830   4.010   6.691
11483TIP3    H134394   4.790   4.090   6.657
11483TIP3    H234395   4.764   3.942   6.677
11484TIP3   OH234396   4.960   4.482   6.900
11484TIP3    H134397   4.946   4.471   6.994
11484TIP3    H234398   4.876   4.462   6.860
11485TIP3   OH234399   5.208   4.444   6.774
11485TIP3    H134400   5.128   4.443   6.827
11485TIP3    H234401   5.277   4.417   6.835
11486TIP3   OH234402   2.606   0.394  -0.014
11486TIP3    H134403   2.619   0.300  -0.007
11486TIP3    H234404   2.601   0.425   0.076
11487TIP3   OH234405   1.587   0.309   0.161
11487TIP3    H134406   1.603   0.228   0.113
11487TIP3    H234407   1.636   0.300   0.242
11488TIP3   OH234408   4.906   4.003   6.952
11488TIP3    H134409   4.972   3.934   6.948
11488TIP3    H234410   4.873   4.010   6.862
11489TIP3   OH234411   2.162   0.200   0.173
11489TIP3    H134412   2.136   0.133   0.110
11489TIP3    H234413   2.091   0.265   0.169
11490TIP3   OH234414   4.245   5.463   5.219
11490TIP3    H134415   4.334   5.440   5.192
11490TIP3    H234416   4.206   5.504   5.141
11491TIP3   OH234417   3.713   4.833   5.413
11491TIP3    H134418   3.807   4.848   5.401
11491TIP3    H234419   3.696   4.750   5.368
11492TIP3   OH234420   3.612   5.432   5.843
11492TIP3    H134421   3.550   5.373   5.800
11492TIP3    H234422   3.661   5.377   5.903
11493TIP3   OH234423   3.751   5.286   6.030
11493TIP3    H134424   3.703   5.243   6.102
11493TIP3    H234425   3.812   5.345   6.074
11494TIP3   OH234426   5.490   5.718   5.834
11494TIP3    H134427   5.528   5.709   5.922
11494TIP3    H234428   5.565   5.712   5.775
11495TIP3   OH234429   5.527   5.693   6.117
11495TIP3    H134430   5.470   5.616   6.112
11495TIP3    H234431   5.599   5.666   6.174
11496TIP3   OH234432   5.571   5.389   6.693
11496TIP3    H134433   5.498   5.400   6.755
11496TIP3    H234434   5.612   5.475   6.689
11497TIP3   OH234435   5.383   4.908   5.298
11497TIP3    H134436   5.443   4.975   5.266
11497TIP3    H234437   5.429   4.868   5.371
11498TIP3   OH234438   5.511   4.763   5.497
11498TIP3    H134439   5.442   4.725   5.552
11498TIP3    H234440   5.573   4.801   5.560
11499TIP3   OH234441   5.374   5.462   6.102
11499TIP3    H134442   5.292   5.486   6.059
11499TIP3    H234443   5.413   5.396   6.046
11500TIP3   OH234444   5.427   4.682   5.144
11500TIP3    H134445   5.358   4.681   5.078
11500TIP3    H234446   5.410   4.760   5.195
11501TIP3   OH234447   5.299   4.327   5.102
11501TIP3    H134448   5.306   4.373   5.018
11501TIP3    H234449   5.270   4.239   5.079
11502TIP3   OH234450   5.309   4.627   5.635
11502TIP3    H134451   5.315   4.532   5.622
11502TIP3    H234452   5.292   4.637   5.728
11503TIP3   OH234453   3.979   4.772   6.354
11503TIP3    H134454   3.964   4.696   6.297
11503TIP3    H234455   4.053   4.746   6.409
11504TIP3   OH234456   5.589   5.040   6.493
11504TIP3    H134457   5.658   4.976   6.475
11504TIP3    H234458   5.583   5.093   6.413
11505TIP3   OH234459   5.773   4.833   6.497
11505TIP3    H134460   5.697   4.793   6.540
11505TIP3    H234461   5.846   4.775   6.517
11506TIP3   OH234462   5.247   4.057   5.055
11506TIP3    H134463   5.307   4.036   5.127
11506TIP3    H234464   5.162   4.024   5.084
11507TIP3   OH234465   5.310   4.349   5.525
11507TIP3    H134466   5.356   4.266   5.535
11507TIP3    H234467   5.354   4.391   5.451
11508TIP3   OH234468   5.464   4.513   6.044
11508TIP3    H134469   5.543   4.535   5.994
11508TIP3    H234470   5.479   4.555   6.129
11509TIP3   OH234471   5.536   4.662   6.276
11509TIP3    H134472   5.459   4.690   6.325
11509TIP3    H234473   5.570   4.743   6.236
11510TIP3   OH234474   1.316   0.351   0.117
11510TIP3    H134475   1.412   0.353   0.124
11510TIP3    H234476   1.291   0.272   0.165
11511TIP3   OH234477   5.997   4.262   6.812
11511TIP3    H134478   6.059   4.203   6.769
11511TIP3    H234479   5.957   4.312   6.741
11512TIP3   OH234480   5.426   4.098   5.571
11512TIP3    H134481   5.471   4.082   5.654
11512TIP3    H234482   5.362   4.027   5.564
11513TIP3   OH234483   4.074   4.117   6.422
11513TIP3    H134484   4.167   4.101   6.410
11513TIP3    H234485   4.066   4.212   6.428
11514TIP3   OH234486   5.847   4.375   6.615
11514TIP3    H134487   5.763   4.418   6.633
11514TIP3    H234488   5.825   4.300   6.560
11515TIP3   OH234489   5.475   4.013   5.214
11515TIP3    H134490   5.524   3.954   5.157
11515TIP3    H234491   5.526   4.094   5.215
11516TIP3   OH234492   3.891   3.824   5.947
11516TIP3    H134493   3.810   3.828   5.999
11516TIP3    H234494   3.881   3.892   5.880
11517TIP3   OH234495   5.058   5.578   5.484
11517TIP3    H134496   5.106   5.560   5.403
11517TIP3    H234497   5.117   5.633   5.535
11518TIP3   OH234498   4.131   3.916   6.798
11518TIP3    H134499   4.076   3.913   6.877
11518TIP3    H234500   4.074   3.956   6.732
11519TIP3   OH234501   4.143   5.374   6.839
11519TIP3    H134502   4.051   5.347   6.835
11519TIP3    H234503   4.172   5.348   6.926
11520TIP3   OH234504   4.355   5.404   6.408
11520TIP3    H134505   4.310   5.481   6.373
11520TIP3    H234506   4.441   5.406   6.366
11521TIP3   OH234507   4.763   5.648   6.545
11521TIP3    H134508   4.802   5.640   6.632
11521TIP3    H234509   4.827   5.699   6.494
11522TIP3   OH234510   4.954   5.801   6.415
11522TIP3    H134511   5.018   5.745   6.371
11522TIP3    H234512   5.007   5.860   6.469
11523TIP3   OH234513   5.757   4.135   6.502
11523TIP3    H134514   5.672   4.138   6.457
11523TIP3    H234515   5.785   4.044   6.494
11524TIP3   OH234516   4.003   5.634   6.399
11524TIP3    H134517   3.914   5.669   6.394
11524TIP3    H234518   4.033   5.659   6.486
11525TIP3   OH234519   4.258   5.640   6.294
11525TIP3    H134520   4.169   5.645   6.329
11525TIP3    H234521   4.249   5.665   6.202
11526TIP3   OH234522   4.674   5.657   6.102
11526TIP3    H134523   4.615   5.669   6.027
11526TIP3    H234524   4.686   5.745   6.138
11527TIP3   OH234525   4.947   5.602   6.140
11527TIP3    H134526   4.853   5.612   6.122
11527TIP3    H234527   4.989   5.665   6.081
11528TIP3   OH234528   5.161   5.821   6.075
11528TIP3    H134529   5.141   5.902   6.028
11528TIP3    H234530   5.185   5.759   6.006
11529TIP3   OH234531   3.934   5.460   6.184
11529TIP3    H134532   3.973   5.512   6.254
11529TIP3    H234533   4.008   5.418   6.141
11530TIP3   OH234534   4.131   5.328   6.051
11530TIP3    H134535   4.148   5.240   6.084
11530TIP3    H234536   4.218   5.367   6.041
11531TIP3   OH234537   4.400   5.412   6.053
11531TIP3    H134538   4.421   5.321   6.034
11531TIP3    H234539   4.456   5.434   6.128
11532TIP3   OH234540   4.973   4.062   6.149
11532TIP3    H134541   4.928   3.990   6.194
11532TIP3    H234542   5.038   4.018   6.094
11533TIP3   OH234543   5.468   3.964   6.029
11533TIP3    H134544   5.506   4.013   5.956
11533TIP3    H234545   5.376   3.989   6.030
11534TIP3   OH234546   5.584   4.041   5.793
11534TIP3    H134547   5.653   3.981   5.764
11534TIP3    H234548   5.621   4.128   5.781
11535TIP3   OH234549   4.204   3.759   6.138
11535TIP3    H134550   4.115   3.726   6.146
11535TIP3    H234551   4.258   3.680   6.131
11536TIP3   OH234552   4.024   3.644   5.780
11536TIP3    H134553   4.052   3.699   5.707
11536TIP3    H234554   3.983   3.705   5.841
11537TIP3   OH234555   4.679   3.795   6.029
11537TIP3    H134556   4.725   3.840   5.959
11537TIP3    H234557   4.707   3.840   6.109
11538TIP3   OH234558   5.180   3.942   6.010
11538TIP3    H134559   5.188   3.909   5.920
11538TIP3    H234560   5.184   3.863   6.065
11539TIP3   OH234561   5.239   3.889   5.577
11539TIP3    H134562   5.159   3.937   5.600
11539TIP3    H234563   5.225   3.802   5.615
11540TIP3   OH234564   3.702   5.234   5.548
11540TIP3    H134565   3.619   5.201   5.514
11540TIP3    H234566   3.705   5.325   5.518
11541TIP3   OH234567   4.133   3.789   5.554
11541TIP3    H134568   4.180   3.732   5.493
11541TIP3    H234569   4.200   3.847   5.590
11542TIP3   OH234570   4.619   3.984   5.653
11542TIP3    H134571   4.680   3.935   5.708
11542TIP3    H234572   4.633   4.075   5.678
11543TIP3   OH234573   4.501   5.387   5.149
11543TIP3    H134574   4.585   5.413   5.112
11543TIP3    H234575   4.470   5.316   5.093
11544TIP3   OH234576   5.201   5.525   5.250
11544TIP3    H134577   5.197   5.430   5.242
11544TIP3    H234578   5.160   5.558   5.171
11545TIP3   OH234579   1.612   0.034   0.083
11545TIP3    H134580   1.565  -0.007   0.156
11545TIP3    H234581   1.704   0.030   0.108
11546TIP3   OH234582   7.531   8.035   0.198
11546TIP3    H134583   7.597   8.044   0.129
11546TIP3    H234584   7.558   7.957   0.247
11547TIP3   OH234585   3.813   5.228   5.203
11547TIP3    H134586   3.817   5.235   5.298
11547TIP3    H234587   3.892   5.181   5.179
11548TIP3   OH234588   2.669   0.123  -0.008
11548TIP3    H134589   2.687   0.095   0.082
11548TIP3    H234590   2.754   0.118  -0.051
11549TIP3   OH234591   5.425   5.667   6.439
11549TIP3    H134592   5.347   5.640   6.392
11549TIP3    H234593   5.416   5.762   6.449
11550TIP3   OH234594   6.705   5.039   5.205
11550TIP3    H134595   6.684   5.132   5.191
11550TIP3    H234596   6.642   4.992   5.150
11551TIP3   OH234597   6.708   5.062   5.606
11551TIP3    H134598   6.758   5.035   5.683
11551TIP3    H234599   6.663   4.982   5.577
11552TIP3   OH234600   6.009   4.912   5.936
11552TIP3    H134601   6.040   4.858   6.009
11552TIP3    H234602   6.089   4.934   5.887
11553TIP3   OH234603   6.962   5.331   5.267
11553TIP3    H134604   6.948   5.257   5.325
11553TIP3    H234605   7.017   5.391   5.317
11554TIP3   OH234606   5.987   5.348   5.645
11554TIP3    H134607   5.974   5.253   5.648
11554TIP3    H234608   6.081   5.359   5.633
11555TIP3   OH234609   5.671   4.536   5.433
11555TIP3    H134610   5.636   4.623   5.453
11555TIP3    H234611   5.600   4.491   5.388
11556TIP3   OH234612   5.735   4.842   5.643
11556TIP3    H134613   5.790   4.768   5.669
11556TIP3    H234614   5.795   4.902   5.599
11557TIP3   OH234615   6.595   5.802   5.281
11557TIP3    H134616   6.633   5.732   5.227
11557TIP3    H234617   6.552   5.756   5.354
11558TIP3   OH234618   6.485   5.245   5.591
11558TIP3    H134619   6.452   5.218   5.505
11558TIP3    H234620   6.570   5.201   5.598
11559TIP3   OH234621   7.530   4.584   5.628
11559TIP3    H134622   7.549   4.666   5.673
11559TIP3    H234623   7.573   4.593   5.543
11560TIP3   OH234624   6.910   4.753   5.635
11560TIP3    H134625   6.942   4.667   5.661
11560TIP3    H234626   6.868   4.739   5.550
11561TIP3   OH234627   6.266   4.412   5.598
11561TIP3    H134628   6.244   4.486   5.542
11561TIP3    H234629   6.211   4.340   5.567
11562TIP3   OH234630   6.960   4.517   5.249
11562TIP3    H134631   7.025   4.508   5.319
11562TIP3    H234632   7.010   4.552   5.175
11563TIP3   OH234633   5.891   4.626   5.728
11563TIP3    H134634   5.974   4.610   5.772
11563TIP3    H234635   5.897   4.577   5.646
11564TIP3   OH234636   6.314   4.825   5.545
11564TIP3    H134637   6.408   4.809   5.549
11564TIP3    H234638   6.278   4.745   5.507
11565TIP3   OH234639   7.588   4.802   5.792
11565TIP3    H134640   7.509   4.852   5.774
11565TIP3    H234641   7.625   4.843   5.871
11566TIP3   OH234642   6.244   4.417   6.055
11566TIP3    H134643   6.196   4.451   5.980
11566TIP3    H234644   6.188   4.434   6.130
11567TIP3   OH234645   6.601   5.263   5.071
11567TIP3    H134646   6.554   5.190   5.030
11567TIP3    H234647   6.536   5.332   5.079
11568TIP3   OH234648   6.347   5.194   5.827
11568TIP3    H134649   6.289   5.263   5.857
11568TIP3    H234650   6.390   5.230   5.749
11569TIP3   OH234651   7.134   4.529   5.461
11569TIP3    H134652   7.087   4.512   5.543
11569TIP3    H234653   7.184   4.609   5.479
11570TIP3   OH234654   6.138   4.521   5.822
11570TIP3    H134655   6.194   4.596   5.845
11570TIP3    H234656   6.183   4.479   5.748
11571TIP3   OH234657   6.184   5.393   5.930
11571TIP3    H134658   6.166   5.481   5.898
11571TIP3    H234659   6.107   5.370   5.982
11572TIP3   OH234660   5.561   5.090   5.183
11572TIP3    H134661   5.530   5.099   5.093
11572TIP3    H234662   5.588   5.178   5.209
11573TIP3   OH234663   6.965   5.595   5.394
11573TIP3    H134664   6.899   5.566   5.331
11573TIP3    H234665   6.988   5.683   5.366
11574TIP3   OH234666   7.326   4.463   5.785
11574TIP3    H134667   7.240   4.494   5.755
11574TIP3    H234668   7.388   4.497   5.721
11575TIP3   OH234669   6.589   4.111   5.784
11575TIP3    H134670   6.578   4.019   5.807
11575TIP3    H234671   6.513   4.154   5.823
11576TIP3   OH234672   6.712   5.631   5.101
11576TIP3    H134673   6.756   5.549   5.078
11576TIP3    H234674   6.764   5.698   5.057
11577TIP3   OH234675   6.837   5.401   5.030
11577TIP3    H134676   6.763   5.341   5.026
11577TIP3    H234677   6.892   5.366   5.099
11578TIP3   OH234678   6.459   4.730   4.748
11578TIP3    H134679   6.472   4.793   4.818
11578TIP3    H234680   6.545   4.687   4.738
11579TIP3   OH234681   6.898   5.024   5.001
11579TIP3    H134682   6.830   5.025   5.068
11579TIP3    H234683   6.972   4.980   5.042
11580TIP3   OH234684   7.112   5.004   5.938
11580TIP3    H134685   7.106   5.089   5.983
11580TIP3    H234686   7.031   4.999   5.888
11581TIP3   OH234687   6.110   4.968   5.414
11581TIP3    H134688   6.063   4.916   5.350
11581TIP3    H234689   6.182   4.912   5.444
11582TIP3   OH234690   6.251   5.398   5.557
11582TIP3    H134691   6.238   5.339   5.483
11582TIP3    H234692   6.339   5.378   5.589
11583TIP3   OH234693   6.229   4.950   5.776
11583TIP3    H134694   6.260   4.918   5.691
11583TIP3    H234695   6.272   5.035   5.787
11584TIP3   OH234696   6.849   5.566   5.674
11584TIP3    H134697   6.793   5.642   5.655
11584TIP3    H234698   6.800   5.517   5.740
11585TIP3   OH234699   6.377   5.488   6.103
11585TIP3    H134700   6.316   5.549   6.146
11585TIP3    H234701   6.321   5.438   6.043
11586TIP3   OH234702   6.746   4.789   4.806
11586TIP3    H134703   6.697   4.855   4.855
11586TIP3    H234704   6.757   4.826   4.719
11587TIP3   OH234705   6.141   5.034   6.242
11587TIP3    H134706   6.143   5.129   6.257
11587TIP3    H234707   6.047   5.013   6.237
11588TIP3   OH234708   6.463   5.508   5.090
11588TIP3    H134709   6.544   5.558   5.096
11588TIP3    H234710   6.405   5.561   5.035
11589TIP3   OH234711   6.172   5.656   6.180
11589TIP3    H134712   6.146   5.663   6.088
11589TIP3    H234713   6.090   5.638   6.227
11590TIP3   OH234714   7.216   4.066   4.889
11590TIP3    H134715   7.138   4.077   4.942
11590TIP3    H234716   7.228   4.151   4.845
11591TIP3   OH234717   5.972   4.815   5.230
11591TIP3    H134718   5.904   4.859   5.180
11591TIP3    H234719   5.968   4.724   5.201
11592TIP3   OH234720   7.042   5.442   4.432
11592TIP3    H134721   7.041   5.536   4.414
11592TIP3    H234722   7.132   5.415   4.413
11593TIP3   OH234723   5.751   5.209   6.105
11593TIP3    H134724   5.673   5.218   6.052
11593TIP3    H234725   5.780   5.119   6.091
11594TIP3   OH234726   5.643   5.393   5.742
11594TIP3    H134727   5.702   5.323   5.715
11594TIP3    H234728   5.579   5.350   5.799
11595TIP3   OH234729   7.451   5.829   5.822
11595TIP3    H134730   7.465   5.743   5.862
11595TIP3    H234731   7.376   5.865   5.868
11596TIP3   OH234732   6.551   5.631   5.943
11596TIP3    H134733   6.558   5.721   5.976
11596TIP3    H234734   6.491   5.588   6.004
11597TIP3   OH234735   6.358   5.734   4.907
11597TIP3    H134736   6.307   5.705   4.832
11597TIP3    H234737   6.316   5.816   4.935
11598TIP3   OH234738   5.784   5.596   5.288
11598TIP3    H134739   5.826   5.588   5.374
11598TIP3    H234740   5.734   5.515   5.279
11599TIP3   OH234741   6.548   5.665   4.531
11599TIP3    H134742   6.599   5.591   4.497
11599TIP3    H234743   6.583   5.680   4.619
11600TIP3   OH234744   6.609   5.711   4.797
11600TIP3    H134745   6.525   5.712   4.843
11600TIP3    H234746   6.671   5.674   4.860
11601TIP3   OH234747   7.373   4.985   6.087
11601TIP3    H134748   7.292   4.997   6.037
11601TIP3    H234749   7.391   4.891   6.083
11602TIP3   OH234750   5.969   5.382   6.102
11602TIP3    H134751   6.014   5.364   6.185
11602TIP3    H234752   5.893   5.324   6.103
11603TIP3   OH234753   6.352   4.202   5.910
11603TIP3    H134754   6.269   4.169   5.876
11603TIP3    H234755   6.329   4.282   5.957
11604TIP3   OH234756   6.891   4.321   6.107
11604TIP3    H134757   6.959   4.296   6.170
11604TIP3    H234758   6.809   4.305   6.153
11605TIP3   OH234759   7.122   4.739   6.026
11605TIP3    H134760   7.079   4.736   6.112
11605TIP3    H234761   7.108   4.829   5.996
11606TIP3   OH234762   6.780   4.820   4.531
11606TIP3    H134763   6.748   4.822   4.441
11606TIP3    H234764   6.860   4.873   4.529
11607TIP3   OH234765   6.515   4.231   4.882
11607TIP3    H134766   6.473   4.243   4.967
11607TIP3    H234767   6.471   4.155   4.844
11608TIP3   OH234768   6.296   4.727   5.923
11608TIP3    H134769   6.247   4.736   6.004
11608TIP3    H234770   6.278   4.807   5.874
11609TIP3   OH234771   6.175   4.612   5.437
11609TIP3    H134772   6.084   4.593   5.460
11609TIP3    H234773   6.185   4.580   5.347
11610TIP3   OH234774   6.643   4.702   5.151
11610TIP3    H134775   6.599   4.774   5.105
11610TIP3    H234776   6.703   4.666   5.085
11611TIP3   OH234777   6.836   4.954   6.239
11611TIP3    H134778   6.808   4.887   6.301
11611TIP3    H234779   6.930   4.966   6.258
11612TIP3   OH234780   6.806   4.708   5.385
11612TIP3    H134781   6.742   4.738   5.321
11612TIP3    H234782   6.849   4.634   5.342
11613TIP3   OH234783   6.126   4.750   6.137
11613TIP3    H134784   6.119   4.818   6.204
11613TIP3    H234785   6.103   4.669   6.183
11614TIP3   OH234786   6.168   4.222   4.849
11614TIP3    H134787   6.159   4.231   4.944
11614TIP3    H234788   6.090   4.265   4.813
11615TIP3   OH234789   5.714   4.265   5.725
11615TIP3    H134790   5.785   4.305   5.777
11615TIP3    H234791   5.747   4.265   5.635
11616TIP3   OH234792   5.626   4.249   5.222
11616TIP3    H134793   5.667   4.283   5.142
11616TIP3    H234794   5.566   4.318   5.249
11617TIP3   OH234795   6.862   4.950   5.816
11617TIP3    H134796   6.885   4.884   5.750
11617TIP3    H234797   6.818   4.900   5.885
11618TIP3   OH234798   6.534   4.405   5.489
11618TIP3    H134799   6.453   4.406   5.540
11618TIP3    H234800   6.603   4.400   5.554
11619TIP3   OH234801   5.935   4.487   5.497
11619TIP3    H134802   5.846   4.494   5.462
11619TIP3    H234803   5.962   4.398   5.476
11620TIP3   OH234804   6.192   4.492   5.192
11620TIP3    H134805   6.286   4.504   5.175
11620TIP3    H234806   6.151   4.505   5.107
11621TIP3   OH234807   6.986   4.494   5.697
11621TIP3    H134808   6.966   4.512   5.789
11621TIP3    H234809   6.917   4.433   5.669
11622TIP3   OH234810   6.066   4.496   4.952
11622TIP3    H134811   5.998   4.451   4.900
11622TIP3    H234812   6.112   4.550   4.888
11623TIP3   OH234813   7.185   6.204   5.939
11623TIP3    H134814   7.219   6.241   5.858
11623TIP3    H234815   7.248   6.230   6.006
11624TIP3   OH234816   6.121   5.299   6.335
11624TIP3    H134817   6.200   5.323   6.382
11624TIP3    H234818   6.051   5.308   6.399
11625TIP3   OH234819   6.585   4.772   5.597
11625TIP3    H134820   6.648   4.724   5.544
11625TIP3    H234821   6.585   4.727   5.681
11626TIP3   OH234822   6.078   4.238   5.479
11626TIP3    H134823   6.049   4.162   5.530
11626TIP3    H234824   6.094   4.203   5.391
11627TIP3   OH234825   6.560   4.668   5.862
11627TIP3    H134826   6.472   4.699   5.884
11627TIP3    H234827   6.618   4.723   5.915
11628TIP3   OH234828   7.096   5.370   5.572
11628TIP3    H134829   7.189   5.353   5.556
11628TIP3    H234830   7.053   5.286   5.555
11629TIP3   OH234831   6.760   4.345   4.847
11629TIP3    H134832   6.669   4.319   4.860
11629TIP3    H234833   6.764   4.435   4.879
11630TIP3   OH234834   6.738   5.426   5.932
11630TIP3    H134835   6.734   5.390   6.020
11630TIP3    H234836   6.672   5.496   5.932
11631TIP3   OH234837   6.826   4.587   4.962
11631TIP3    H134838   6.920   4.601   4.979
11631TIP3    H234839   6.802   4.659   4.904
11632TIP3   OH234840   5.983   5.069   5.637
11632TIP3    H134841   6.023   5.041   5.554
11632TIP3    H234842   6.030   5.019   5.704
11633TIP3   OH234843   6.476   5.183   4.765
11633TIP3    H134844   6.417   5.247   4.805
11633TIP3    H234845   6.479   5.111   4.827
11634TIP3   OH234846   5.879   4.953   6.265
11634TIP3    H134847   5.868   4.933   6.358
11634TIP3    H234848   5.796   4.928   6.225
11635TIP3   OH234849   6.604   5.110   6.279
11635TIP3    H134850   6.533   5.052   6.251
11635TIP3    H234851   6.683   5.067   6.247
11636TIP3   OH234852   7.234   4.693   4.780
11636TIP3    H134853   7.205   4.638   4.708
11636TIP3    H234854   7.229   4.783   4.746
11637TIP3   OH234855   7.443   5.543   5.847
11637TIP3    H134856   7.352   5.572   5.839
11637TIP3    H234857   7.469   5.520   5.758
11638TIP3   OH234858   6.966   5.505   4.701
11638TIP3    H134859   6.937   5.434   4.758
11638TIP3    H234860   6.984   5.463   4.617
11639TIP3   OH234861   6.954   5.147   5.480
11639TIP3    H134862   6.866   5.128   5.513
11639TIP3    H234863   6.984   5.064   5.444
11640TIP3   OH234864   6.067   5.368   5.237
11640TIP3    H134865   6.067   5.455   5.196
11640TIP3    H234866   5.975   5.352   5.260
11641TIP3   OH234867   5.661   4.670   4.995
11641TIP3    H134868   5.707   4.751   5.017
11641TIP3    H234869   5.581   4.674   5.047
11642TIP3   OH234870   6.250   5.206   5.367
11642TIP3    H134871   6.199   5.256   5.303
11642TIP3    H234872   6.204   5.122   5.373
11643TIP3   OH234873   6.377   5.709   5.741
11643TIP3    H134874   6.420   5.779   5.693
11643TIP3    H234875   6.445   5.674   5.799
11644TIP3   OH234876   6.007   5.623   5.129
11644TIP3    H134877   5.923   5.625   5.176
11644TIP3    H234878   6.042   5.711   5.138
11645TIP3   OH234879   6.714   5.246   4.605
11645TIP3    H134880   6.782   5.222   4.668
11645TIP3    H234881   6.632   5.224   4.649
11646TIP3   OH234882   6.975   5.890   5.762
11646TIP3    H134883   6.896   5.838   5.750
11646TIP3    H234884   6.975   5.951   5.688
11647TIP3   OH234885   7.054   5.719   4.398
11647TIP3    H134886   7.091   5.787   4.343
11647TIP3    H234887   6.977   5.759   4.438
11648TIP3   OH234888   6.069   4.495   6.259
11648TIP3    H134889   5.974   4.504   6.262
11648TIP3    H234890   6.091   4.442   6.335
11649TIP3   OH234891   6.917   5.176   4.772
11649TIP3    H134892   6.893   5.127   4.851
11649TIP3    H234893   7.012   5.171   4.768
11650TIP3   OH234894   5.803   5.585   5.906
11650TIP3    H134895   5.758   5.509   5.868
11650TIP3    H234896   5.866   5.548   5.968
11651TIP3   OH234897   6.067   5.216   4.604
11651TIP3    H134898   6.082   5.126   4.576
11651TIP3    H234899   6.053   5.210   4.698
11652TIP3   OH234900   6.017   5.242   4.874
11652TIP3    H134901   6.081   5.212   4.938
11652TIP3    H234902   6.022   5.337   4.878
11653TIP3   OH234903   5.759   4.919   5.082
11653TIP3    H134904   5.692   4.964   5.134
11653TIP3    H234905   5.776   4.978   5.008
11654TIP3   OH234906   6.926   4.552   5.959
11654TIP3    H134907   7.005   4.596   5.992
11654TIP3    H234908   6.916   4.475   6.014
11655TIP3   OH234909   6.812   4.304   5.142
11655TIP3    H134910   6.789   4.329   5.053
11655TIP3    H234911   6.854   4.382   5.179
11656TIP3   OH234912   6.305   5.401   4.826
11656TIP3    H134913   6.221   5.429   4.860
11656TIP3    H234914   6.330   5.468   4.763
11657TIP3   OH234915   6.475   4.496   5.228
11657TIP3    H134916   6.529   4.571   5.202
11657TIP3    H234917   6.496   4.483   5.321
11658TIP3   OH234918   6.762   4.789   6.014
11658TIP3    H134919   6.785   4.833   6.096
11658TIP3    H234920   6.813   4.707   6.016
11659TIP3   OH234921   6.627   4.198   5.324
11659TIP3    H134922   6.601   4.275   5.375
11659TIP3    H234923   6.693   4.231   5.263
11660TIP3   OH234924   6.057   5.513   4.884
11660TIP3    H134925   6.033   5.582   4.821
11660TIP3    H234926   6.037   5.551   4.969
11661TIP3   OH234927   6.138   4.218   5.130
11661TIP3    H134928   6.125   4.309   5.155
11661TIP3    H234929   6.233   4.205   5.136
11662TIP3   OH234930   7.391   4.712   6.013
11662TIP3    H134931   7.296   4.705   6.024
11662TIP3    H234932   7.407   4.692   5.921
11663TIP3   OH234933   7.032   4.891   5.388
11663TIP3    H134934   6.952   4.839   5.395
11663TIP3    H234935   7.093   4.848   5.447
11664TIP3   OH234936   5.775   5.106   4.873
11664TIP3    H134937   5.846   5.169   4.879
11664TIP3    H234938   5.804   5.043   4.807
11665TIP3   OH234939   5.680   4.393   4.994
11665TIP3    H134940   5.696   4.487   5.001
11665TIP3    H234941   5.610   4.386   4.929
11666TIP3   OH234942   7.029   5.852   5.323
11666TIP3    H134943   6.985   5.905   5.257
11666TIP3    H234944   7.122   5.870   5.310
11667TIP3   OH234945   6.091   4.116   5.867
11667TIP3    H134946   6.061   4.085   5.782
11667TIP3    H234947   6.079   4.040   5.925
11668TIP3   OH234948   5.619   5.369   5.254
11668TIP3    H134949   5.562   5.395   5.327
11668TIP3    H234950   5.578   5.408   5.177
11669TIP3   OH234951   5.803   5.907   6.331
11669TIP3    H134952   5.887   5.905   6.376
11669TIP3    H234953   5.780   5.814   6.320
11670TIP3   OH234954   6.281   5.817   6.374
11670TIP3    H134955   6.373   5.793   6.375
11670TIP3    H234956   6.244   5.765   6.303
11671TIP3   OH234957   6.244   5.395   4.500
11671TIP3    H134958   6.179   5.339   4.542
11671TIP3    H234959   6.316   5.335   4.480
11672TIP3   OH234960   6.898   5.784   6.136
11672TIP3    H134961   6.908   5.701   6.182
11672TIP3    H234962   6.983   5.827   6.145
11673TIP3   OH234963   6.685   5.453   4.424
11673TIP3    H134964   6.705   5.385   4.489
11673TIP3    H234965   6.752   5.442   4.357
11674TIP3   OH234966   5.911   5.301   6.519
11674TIP3    H134967   5.928   5.208   6.531
11674TIP3    H234968   5.828   5.306   6.472
11675TIP3   OH234969   5.905   4.915   4.726
11675TIP3    H134970   5.955   4.888   4.803
11675TIP3    H234971   5.970   4.926   4.657
11676TIP3   OH234972   6.538   5.384   6.299
11676TIP3    H134973   6.489   5.406   6.220
11676TIP3    H234974   6.569   5.295   6.284
11677TIP3   OH234975   6.408   5.144   4.505
11677TIP3    H134976   6.424   5.158   4.598
11677TIP3    H234977   6.410   5.049   4.495
11678TIP3   OH234978   6.032   5.047   6.531
11678TIP3    H134979   6.103   5.033   6.469
11678TIP3    H234980   6.075   5.068   6.613
11679TIP3   OH234981   6.082   4.848   4.925
11679TIP3    H134982   6.133   4.865   5.004
11679TIP3    H234983   6.129   4.779   4.879
11680TIP3   OH234984   6.400   4.934   6.190
11680TIP3    H134985   6.311   4.969   6.199
11680TIP3    H234986   6.428   4.963   6.103
11681TIP3   OH234987   6.200   4.651   4.772
11681TIP3    H134988   6.171   4.659   4.681
11681TIP3    H234989   6.294   4.670   4.768
11682TIP3   OH234990   6.907   5.303   6.288
11682TIP3    H134991   6.963   5.252   6.229
11682TIP3    H234992   6.893   5.245   6.363
11683TIP3   OH234993   7.012   4.954   4.451
11683TIP3    H134994   6.998   4.919   4.363
11683TIP3    H234995   6.985   5.046   4.445
11684TIP3   OH234996   6.501   4.699   6.289
11684TIP3    H134997   6.500   4.629   6.224
11684TIP3    H234998   6.465   4.775   6.243
11685TIP3   OH234999   6.505   4.497   6.089
11685TIP3    H135000   6.532   4.535   6.005
11685TIP3    H235001   6.413   4.473   6.077
11686TIP3   OH235002   6.516   5.030   5.965
11686TIP3    H135003   6.603   5.048   5.928
11686TIP3    H235004   6.458   5.090   5.918
11687TIP3   OH235005   7.107   4.982   6.336
11687TIP3    H135006   7.143   4.894   6.338
11687TIP3    H235007   7.182   5.039   6.323
11688TIP3   OH235008   7.132   5.256   6.072
11688TIP3    H135009   7.079   5.327   6.034
11688TIP3    H235010   7.219   5.269   6.035
11689TIP3   OH235011   6.382   4.781   6.532
11689TIP3    H135012   6.310   4.721   6.550
11689TIP3    H235013   6.408   4.761   6.442
11690TIP3   OH235014   6.627   4.267   6.189
11690TIP3    H135015   6.586   4.347   6.156
11690TIP3    H235016   6.561   4.199   6.175
11691TIP3   OH235017   6.754   4.741   6.392
11691TIP3    H135018   6.742   4.730   6.487
11691TIP3    H235019   6.669   4.721   6.354
11692TIP3   OH235020   6.999   4.699   6.263
11692TIP3    H135021   6.920   4.698   6.317
11692TIP3    H235022   7.069   4.669   6.321
11693TIP3   OH235023   7.237   4.653   6.404
11693TIP3    H135024   7.250   4.559   6.413
11693TIP3    H235025   7.230   4.686   6.493
11694TIP3   OH235026   6.211   4.566   6.597
11694TIP3    H135027   6.216   4.478   6.560
11694TIP3    H235028   6.249   4.558   6.684
11695TIP3   OH235029   6.694   4.244   6.454
11695TIP3    H135030   6.764   4.179   6.445
11695TIP3    H235031   6.662   4.257   6.365
11696TIP3   OH235032   6.788   4.462   6.595
11696TIP3    H135033   6.756   4.390   6.540
11696TIP3    H235034   6.717   4.525   6.597
11697TIP3   OH235035   6.049   5.727   4.704
11697TIP3    H135036   6.135   5.695   4.676
11697TIP3    H235037   6.012   5.768   4.625
11698TIP3   OH235038   5.501   5.083   4.910
11698TIP3    H135039   5.591   5.101   4.885
11698TIP3    H235040   5.478   5.004   4.861
11699TIP3   OH235041   5.404   5.688   5.342
11699TIP3    H135042   5.342   5.629   5.299
11699TIP3    H235043   5.452   5.632   5.402
11700TIP3   OH235044   5.559   5.542   5.517
11700TIP3    H135045   5.561   5.472   5.582
11700TIP3    H235046   5.608   5.614   5.557
11701TIP3   OH235047   7.298   5.916   5.324
11701TIP3    H135048   7.309   5.915   5.419
11701TIP3    H235049   7.320   6.005   5.298
11702TIP3   OH235050   7.321   5.921   5.595
11702TIP3    H135051   7.380   5.890   5.664
11702TIP3    H235052   7.314   6.015   5.611
11703TIP3   OH235053   7.352   5.641   6.151
11703TIP3    H135054   7.282   5.647   6.216
11703TIP3    H235055   7.401   5.723   6.161
11704TIP3   OH235056   7.195   5.152   4.773
11704TIP3    H135057   7.253   5.225   4.749
11704TIP3    H235058   7.236   5.114   4.850
11705TIP3   OH235059   7.317   5.002   4.974
11705TIP3    H135060   7.247   4.973   5.031
11705TIP3    H235061   7.379   5.046   5.032
11706TIP3   OH235062   7.335   5.445   5.400
11706TIP3    H135063   7.350   5.366   5.348
11706TIP3    H235064   7.347   5.517   5.338
11707TIP3   OH235065   7.131   5.692   5.636
11707TIP3    H135066   7.088   5.755   5.693
11707TIP3    H235067   7.203   5.741   5.596
11708TIP3   OH235068   7.222   4.924   4.624
11708TIP3    H135069   7.149   4.929   4.562
11708TIP3    H235070   7.212   5.002   4.678
11709TIP3   OH235071   7.155   4.568   4.540
11709TIP3    H135072   7.093   4.627   4.498
11709TIP3    H235073   7.115   4.482   4.534
11710TIP3   OH235074   7.113   4.884   5.123
11710TIP3    H135075   7.104   4.791   5.105
11710TIP3    H235076   7.087   4.893   5.215
11711TIP3   OH235077   5.739   4.888   5.919
11711TIP3    H135078   5.713   4.898   5.828
11711TIP3    H235079   5.833   4.904   5.920
11712TIP3   OH235080   7.382   5.302   5.967
11712TIP3    H135081   7.406   5.239   5.900
11712TIP3    H235082   7.402   5.388   5.928
11713TIP3   OH235083   7.621   5.107   6.020
11713TIP3    H135084   7.529   5.085   6.036
11713TIP3    H235085   7.667   5.023   6.030
11714TIP3   OH235086   7.032   4.311   4.555
11714TIP3    H135087   7.039   4.309   4.650
11714TIP3    H235088   6.943   4.281   4.537
11715TIP3   OH235089   7.105   4.610   5.019
11715TIP3    H135090   7.144   4.523   5.029
11715TIP3    H235091   7.149   4.648   4.943
11716TIP3   OH235092   7.256   4.775   5.519
11716TIP3    H135093   7.324   4.808   5.461
11716TIP3    H235094   7.274   4.815   5.604
11717TIP3   OH235095   7.325   4.910   5.752
11717TIP3    H135096   7.251   4.936   5.806
11717TIP3    H235097   7.364   4.993   5.723
11718TIP3   OH235098   5.947   4.624   6.540
11718TIP3    H135099   6.041   4.622   6.555
11718TIP3    H235100   5.914   4.542   6.578
11719TIP3   OH235101   7.791   4.518   6.300
11719TIP3    H135102   7.855   4.461   6.257
11719TIP3    H235103   7.751   4.567   6.228
11720TIP3   OH235104   7.193   4.353   5.062
11720TIP3    H135105   7.259   4.338   5.130
11720TIP3    H235106   7.134   4.278   5.068
11721TIP3   OH235107   5.925   4.340   5.892
11721TIP3    H135108   5.980   4.262   5.893
11721TIP3    H235109   5.986   4.411   5.871
11722TIP3   OH235110   5.700   4.611   5.938
11722TIP3    H135111   5.757   4.590   5.864
11722TIP3    H235112   5.705   4.706   5.946
11723TIP3   OH235113   7.641   4.626   6.101
11723TIP3    H135114   7.559   4.672   6.118
11723TIP3    H235115   7.616   4.550   6.048
11724TIP3   OH235116   5.694   4.108   5.446
11724TIP3    H135117   5.608   4.099   5.487
11724TIP3    H235118   5.678   4.165   5.370
11725TIP3   OH235119   6.847   5.819   4.963
11725TIP3    H135120   6.903   5.809   4.886
11725TIP3    H235121   6.887   5.890   5.014
11726TIP3   OH235122   5.920   4.167   6.270
11726TIP3    H135123   5.869   4.164   6.351
11726TIP3    H235124   5.865   4.216   6.209
11727TIP3   OH235125   5.953   5.622   6.349
11727TIP3    H135126   5.860   5.606   6.332
11727TIP3    H235127   5.963   5.609   6.443
11728TIP3   OH235128   6.153   5.668   5.898
11728TIP3    H135129   6.095   5.738   5.867
11728TIP3    H235130   6.234   5.681   5.848
11729TIP3   OH235131   6.562   5.898   6.030
11729TIP3    H135132   6.599   5.893   6.118
11729TIP3    H235133   6.627   5.947   5.980
11730TIP3   OH235134   6.754   6.050   5.899
11730TIP3    H135135   6.824   5.997   5.861
11730TIP3    H235136   6.799   6.114   5.955
11731TIP3   OH235137   7.549   4.386   5.994
11731TIP3    H135138   7.463   4.384   5.952
11731TIP3    H235139   7.580   4.296   5.987
11732TIP3   OH235140   5.822   5.972   5.913
11732TIP3    H135141   5.727   5.978   5.902
11732TIP3    H235142   5.838   6.005   6.002
11733TIP3   OH235143   6.051   5.901   5.784
11733TIP3    H135144   5.970   5.920   5.830
11733TIP3    H235145   6.032   5.919   5.692
11734TIP3   OH235146   6.478   5.908   5.576
11734TIP3    H135147   6.403   5.924   5.519
11734TIP3    H235148   6.494   5.993   5.618
11735TIP3   OH235149   6.743   5.820   5.614
11735TIP3    H135150   6.651   5.842   5.599
11735TIP3    H235151   6.791   5.889   5.568
11736TIP3   OH235152   6.928   6.019   5.525
11736TIP3    H135153   6.930   6.110   5.497
11736TIP3    H235154   6.964   5.970   5.451
11737TIP3   OH235155   5.733   5.713   5.671
11737TIP3    H135156   5.759   5.692   5.761
11737TIP3    H235157   5.798   5.669   5.617
11738TIP3   OH235158   5.925   5.586   5.525
11738TIP3    H135159   5.935   5.501   5.568
11738TIP3    H235160   6.013   5.622   5.523
11739TIP3   OH235161   6.198   5.668   5.532
11739TIP3    H135162   6.213   5.574   5.517
11739TIP3    H235163   6.246   5.687   5.612
11740TIP3   OH235164   6.764   4.317   5.634
11740TIP3    H135165   6.722   4.245   5.681
11740TIP3    H235166   6.831   4.274   5.580
11741TIP3   OH235167   7.273   4.223   5.494
11741TIP3    H135168   7.309   4.277   5.424
11741TIP3    H235169   7.183   4.253   5.504
11742TIP3   OH235170   7.393   4.306   5.252
11742TIP3    H135171   7.461   4.244   5.226
11742TIP3    H235172   7.433   4.392   5.240
11743TIP3   OH235173   6.004   4.013   5.625
11743TIP3    H135174   5.914   3.982   5.633
11743TIP3    H235175   6.056   3.933   5.617
11744TIP3   OH235176   5.831   3.919   5.283
11744TIP3    H135177   5.851   3.969   5.204
11744TIP3    H235178   5.788   3.983   5.341
11745TIP3   OH235179   6.482   4.049   5.520
11745TIP3    H135180   6.526   4.101   5.452
11745TIP3    H235181   6.518   4.083   5.602
11746TIP3   OH235182   6.978   4.203   5.498
11746TIP3    H135183   6.980   4.169   5.408
11746TIP3    H235184   6.983   4.125   5.553
11747TIP3   OH235185   7.022   4.135   5.070
11747TIP3    H135186   6.942   4.184   5.091
11747TIP3    H235187   7.007   4.049   5.110
11748TIP3   OH235188   5.500   5.490   5.038
11748TIP3    H135189   5.417   5.452   5.008
11748TIP3    H235190   5.498   5.580   5.007
11749TIP3   OH235191   5.927   4.049   5.042
11749TIP3    H135192   5.973   3.991   4.981
11749TIP3    H235193   5.995   4.107   5.075
11750TIP3   OH235194   6.414   4.244   5.140
11750TIP3    H135195   6.472   4.194   5.197
11750TIP3    H235196   6.430   4.335   5.164
11751TIP3   OH235197   6.297   5.625   4.640
11751TIP3    H135198   6.378   5.654   4.599
11751TIP3    H235199   6.269   5.551   4.586
11752TIP3   OH235200   6.997   5.776   4.733
11752TIP3    H135201   6.991   5.681   4.727
11752TIP3    H235202   6.954   5.809   4.655
11753TIP3   OH235203   6.223   4.295   6.512
11753TIP3    H135204   6.189   4.227   6.570
11753TIP3    H235205   6.316   4.302   6.536
11754TIP3   OH235206   6.474   4.301   6.630
11754TIP3    H135207   6.551   4.277   6.579
11754TIP3    H235208   6.465   4.231   6.694
11755TIP3   OH235209   5.606   5.487   4.697
11755TIP3    H135210   5.600   5.476   4.792
11755TIP3    H235211   5.686   5.440   4.673
11756TIP3   OH235212   7.299   4.383   6.419
11756TIP3    H135213   7.316   4.356   6.509
11756TIP3    H235214   7.384   4.379   6.376
11757TIP3   OH235215   7.209   5.930   5.913
11757TIP3    H135216   7.127   5.907   5.870
11757TIP3    H235217   7.206   6.025   5.921
11758TIP3   OH235218   8.518   5.276   4.686
11758TIP3    H135219   8.505   5.366   4.715
11758TIP3    H235220   8.434   5.252   4.646
11759TIP3   OH235221   8.492   5.280   5.061
11759TIP3    H135222   8.504   5.276   5.156
11759TIP3    H235223   8.423   5.215   5.043
11760TIP3   OH235224   0.275   5.583   4.820
11760TIP3    H135225   0.186   5.566   4.790
11760TIP3    H235226   0.283   5.679   4.816
11761TIP3   OH235227   7.780   5.590   5.159
11761TIP3    H135228   7.762   5.496   5.155
11761TIP3    H235229   7.869   5.599   5.125
11762TIP3   OH235230   7.463   4.764   4.925
11762TIP3    H135231   7.430   4.852   4.943
11762TIP3    H235232   7.393   4.722   4.877
11763TIP3   OH235233   7.529   5.105   5.119
11763TIP3    H135234   7.577   5.033   5.159
11763TIP3    H235235   7.590   5.178   5.119
11764TIP3   OH235236   8.379   6.040   4.798
11764TIP3    H135237   8.386   5.984   4.720
11764TIP3    H235238   8.411   5.985   4.870
11765TIP3   OH235239   8.276   5.532   5.070
11765TIP3    H135240   8.311   5.499   4.987
11765TIP3    H235241   8.350   5.576   5.112
11766TIP3   OH235242   0.157   5.032   5.133
11766TIP3    H135243   0.170   4.939   5.153
11766TIP3    H235244   0.095   5.031   5.060
11767TIP3   OH235245   8.028   4.679   5.102
11767TIP3    H135246   8.009   4.751   5.041
11767TIP3    H235247   7.982   4.604   5.064
11768TIP3   OH235248   0.177   4.795   4.721
11768TIP3    H135249   0.238   4.775   4.792
11768TIP3    H235250   0.185   4.889   4.707
11769TIP3   OH235251   7.683   4.894   5.209
11769TIP3    H135252   7.755   4.870   5.267
11769TIP3    H235253   7.698   4.843   5.129
11770TIP3   OH235254   8.096   5.090   5.020
11770TIP3    H135255   8.187   5.070   5.041
11770TIP3    H235256   8.061   5.007   4.986
11771TIP3   OH235257   8.027   4.673   5.554
11771TIP3    H135258   7.976   4.714   5.484
11771TIP3    H235259   7.972   4.682   5.632
11772TIP3   OH235260   8.141   5.447   5.302
11772TIP3    H135261   8.088   5.519   5.339
11772TIP3    H235262   8.180   5.485   5.223
11773TIP3   OH235263   7.913   4.780   5.328
11773TIP3    H135264   7.967   4.857   5.346
11773TIP3    H235265   7.954   4.739   5.253
11774TIP3   OH235266   7.973   5.637   5.428
11774TIP3    H135267   7.941   5.717   5.387
11774TIP3    H235268   7.895   5.595   5.464
11775TIP3   OH235269   7.365   5.348   4.664
11775TIP3    H135270   7.327   5.367   4.578
11775TIP3    H235271   7.388   5.434   4.700
11776TIP3   OH235272   0.249   5.855   4.833
11776TIP3    H135273   0.172   5.859   4.889
11776TIP3    H235274   0.278   5.945   4.825
11777TIP3   OH235275   8.338   4.371   5.274
11777TIP3    H135276   8.333   4.280   5.303
11777TIP3    H235277   8.261   4.413   5.312
11778TIP3   OH235278  -0.021   5.883   4.593
11778TIP3    H135279  -0.038   5.797   4.630
11778TIP3    H235280   0.073   5.895   4.602
11779TIP3   OH235281   0.131   5.645   4.488
11779TIP3    H135282   0.063   5.615   4.549
11779TIP3    H235283   0.198   5.684   4.543
11780TIP3   OH235284   0.604   5.753   5.208
11780TIP3    H135285   0.654   5.671   5.209
11780TIP3    H235286   0.525   5.731   5.160
11781TIP3   OH235287   8.306   5.181   4.525
11781TIP3    H135288   8.228   5.235   4.514
11781TIP3    H235289   8.328   5.152   4.437
11782TIP3   OH235290   8.266   4.890   4.277
11782TIP3    H135291   8.331   4.954   4.306
11782TIP3    H235292   8.307   4.845   4.203
11783TIP3   OH235293   0.178   5.286   4.456
11783TIP3    H135294   0.115   5.302   4.526
11783TIP3    H235295   0.209   5.197   4.471
11784TIP3   OH235296   0.281   5.276   5.505
11784TIP3    H135297   0.350   5.342   5.493
11784TIP3    H235298   0.213   5.301   5.443
11785TIP3   OH235299   7.895   5.226   4.890
11785TIP3    H135300   7.861   5.167   4.822
11785TIP3    H235301   7.970   5.180   4.927
11786TIP3   OH235302   8.020   5.629   5.027
11786TIP3    H135303   7.999   5.626   4.934
11786TIP3    H235304   8.110   5.595   5.032
11787TIP3   OH235305   8.013   5.207   5.255
11787TIP3    H135306   8.046   5.175   5.172
11787TIP3    H235307   8.060   5.289   5.270
11788TIP3   OH235308   0.058   5.858   5.031
11788TIP3    H135309   0.048   5.929   5.094
11788TIP3    H235310   0.024   5.781   5.076
11789TIP3   OH235311   8.175   5.754   5.572
11789TIP3    H135312   8.116   5.814   5.618
11789TIP3    H235313   8.117   5.699   5.519
11790TIP3   OH235314   8.483   5.062   4.326
11790TIP3    H135315   8.478   5.157   4.329
11790TIP3    H235316   8.536   5.043   4.249
11791TIP3   OH235317   7.964   5.915   5.652
11791TIP3    H135318   7.939   5.927   5.560
11791TIP3    H235319   7.883   5.886   5.695
11792TIP3   OH235320   7.778   5.065   4.687
11792TIP3    H135321   7.703   5.110   4.648
11792TIP3    H235322   7.741   4.984   4.723
11793TIP3   OH235323   0.414   5.660   3.788
11793TIP3    H135324   0.418   5.753   3.766
11793TIP3    H235325   0.419   5.615   3.704
11794TIP3   OH235326   7.526   5.463   5.597
11794TIP3    H135327   7.466   5.478   5.524
11794TIP3    H235328   7.514   5.371   5.620
11795TIP3   OH235329   7.410   5.668   5.253
11795TIP3    H135330   7.504   5.679   5.266
11795TIP3    H235331   7.372   5.751   5.282
11796TIP3   OH235332   8.374   5.891   5.447
11796TIP3    H135333   8.383   5.961   5.512
11796TIP3    H235334   8.305   5.834   5.482
11797TIP3   OH235335   8.154   6.029   4.348
11797TIP3    H135336   8.083   6.002   4.289
11797TIP3    H235337   8.119   6.106   4.393
11798TIP3   OH235338   7.578   5.845   4.772
11798TIP3    H135339   7.623   5.832   4.855
11798TIP3    H235340   7.530   5.763   4.758
11799TIP3   OH235341   8.324   5.966   4.052
11799TIP3    H135342   8.363   5.891   4.007
11799TIP3    H235343   8.362   5.965   4.139
11800TIP3   OH235344   8.413   5.964   4.322
11800TIP3    H135345   8.320   5.986   4.329
11800TIP3    H235346   8.440   5.945   4.411
11801TIP3   OH235347   7.761   5.566   5.695
11801TIP3    H135348   7.759   5.659   5.716
11801TIP3    H235349   7.683   5.552   5.640
11802TIP3   OH235350   8.113   4.464   5.399
11802TIP3    H135351   8.026   4.437   5.368
11802TIP3    H235352   8.096   4.543   5.450
11803TIP3   OH235353   0.065   4.629   5.635
11803TIP3    H135354   0.100   4.590   5.716
11803TIP3    H235355  -0.029   4.636   5.651
11804TIP3   OH235356   0.496   5.122   5.631
11804TIP3    H135357   0.428   5.055   5.620
11804TIP3    H235358   0.496   5.169   5.548
11805TIP3   OH235359   0.141   5.093   4.110
11805TIP3    H135360   0.110   5.094   4.019
11805TIP3    H235361   0.217   5.152   4.110
11806TIP3   OH235362   8.236   4.506   4.348
11806TIP3    H135363   8.225   4.514   4.443
11806TIP3    H235364   8.216   4.415   4.329
11807TIP3   OH235365   8.074   4.989   5.411
11807TIP3    H135366   8.030   4.996   5.496
11807TIP3    H235367   8.047   5.067   5.364
11808TIP3   OH235368   7.958   4.873   4.922
11808TIP3    H135369   7.869   4.848   4.945
11808TIP3    H235370   7.969   4.842   4.832
11809TIP3   OH235371   8.411   4.960   4.652
11809TIP3    H135372   8.374   5.037   4.610
11809TIP3    H235373   8.469   4.922   4.586
11810TIP3   OH235374   0.105   5.224   5.765
11810TIP3    H135375   0.095   5.141   5.811
11810TIP3    H235376   0.199   5.241   5.766
11811TIP3   OH235377   0.027   4.955   4.903
11811TIP3    H135378  -0.016   4.990   4.824
11811TIP3    H235379   0.053   4.866   4.879
11812TIP3   OH235380   7.938   4.982   5.653
11812TIP3    H135381   7.876   5.040   5.697
11812TIP3    H235382   7.922   4.896   5.692
11813TIP3   OH235383   7.910   4.461   4.338
11813TIP3    H135384   7.937   4.494   4.424
11813TIP3    H235385   7.859   4.533   4.300
11814TIP3   OH235386   7.524   4.540   5.202
11814TIP3    H135387   7.582   4.570   5.271
11814TIP3    H235388   7.512   4.616   5.145
11815TIP3   OH235389   0.076   5.221   5.318
11815TIP3    H135390   0.120   5.163   5.257
11815TIP3    H235391   0.052   5.164   5.392
11816TIP3   OH235392   8.271   4.748   4.984
11816TIP3    H135393   8.197   4.725   5.040
11816TIP3    H235394   8.342   4.693   5.016
11817TIP3   OH235395   7.729   4.739   4.986
11817TIP3    H135396   7.638   4.739   4.955
11817TIP3    H235397   7.759   4.649   4.973
11818TIP3   OH235398   7.963   4.752   4.676
11818TIP3    H135399   8.058   4.764   4.667
11818TIP3    H235400   7.929   4.765   4.587
11819TIP3   OH235401   0.160   4.752   5.150
11819TIP3    H135402   0.141   4.760   5.243
11819TIP3    H235403   0.255   4.743   5.145
11820TIP3   OH235404   7.850   4.746   4.425
11820TIP3    H135405   7.781   4.720   4.364
11820TIP3    H235406   7.904   4.807   4.376
11821TIP3   OH235407   8.348   5.028   5.104
11821TIP3    H135408   8.392   4.973   5.038
11821TIP3    H235409   8.356   4.979   5.185
11822TIP3   OH235410   7.871   4.493   4.965
11822TIP3    H135411   7.846   4.416   5.016
11822TIP3    H235412   7.904   4.458   4.882
11823TIP3   OH235413   8.343   4.926   5.372
11823TIP3    H135414   8.253   4.960   5.382
11823TIP3    H235415   8.396   4.986   5.424
11824TIP3   OH235416   8.075   5.315   4.448
11824TIP3    H135417   8.004   5.255   4.427
11824TIP3    H235418   8.052   5.349   4.535
11825TIP3   OH235419   0.448   5.493   5.166
11825TIP3    H135420   0.493   5.446   5.096
11825TIP3    H235421   0.358   5.503   5.135
11826TIP3   OH235422   8.474   4.637   4.302
11826TIP3    H135423   8.384   4.612   4.326
11826TIP3    H235424   8.497   4.707   4.362
11827TIP3   OH235425   8.470   5.601   5.470
11827TIP3    H135426   8.518   5.571   5.547
11827TIP3    H235427   8.466   5.696   5.479
11828TIP3   OH235428   0.070   4.844   4.449
11828TIP3    H135429   0.163   4.856   4.469
11828TIP3    H235430   0.045   4.925   4.404
11829TIP3   OH235431   7.777   5.309   5.129
11829TIP3    H135432   7.808   5.289   5.041
11829TIP3    H235433   7.843   5.269   5.187
11830TIP3   OH235434   8.274   5.508   4.250
11830TIP3    H135435   8.214   5.580   4.270
11830TIP3    H235436   8.242   5.435   4.303
11831TIP3   OH235437   7.732   5.241   5.809
11831TIP3    H135438   7.709   5.195   5.890
11831TIP3    H235439   7.662   5.216   5.747
11832TIP3   OH235440   8.373   5.367   5.771
11832TIP3    H135441   8.315   5.303   5.730
11832TIP3    H235442   8.461   5.338   5.748
11833TIP3   OH235443   0.158   5.843   5.391
11833TIP3    H135444   0.073   5.870   5.357
11833TIP3    H235445   0.179   5.909   5.457
11834TIP3   OH235446   0.348   5.714   4.135
11834TIP3    H135447   0.288   5.753   4.199
11834TIP3    H235448   0.345   5.620   4.152
11835TIP3   OH235449   0.194   5.471   5.063
11835TIP3    H135450   0.120   5.412   5.048
11835TIP3    H235451   0.218   5.502   4.975
11836TIP3   OH235452   7.902   5.650   4.771
11836TIP3    H135453   7.910   5.730   4.720
11836TIP3    H235454   7.808   5.630   4.771
11837TIP3   OH235455   7.467   4.902   4.497
11837TIP3    H135456   7.510   4.986   4.510
11837TIP3    H235457   7.383   4.911   4.544
11838TIP3   OH235458   7.993   5.398   4.693
11838TIP3    H135459   7.978   5.489   4.718
11838TIP3    H235460   7.961   5.346   4.767
11839TIP3   OH235461   8.174   5.968   5.243
11839TIP3    H135462   8.207   6.032   5.179
11839TIP3    H235463   8.252   5.939   5.290
11840TIP3   OH235464   7.807   5.891   4.621
11840TIP3    H135465   7.722   5.883   4.664
11840TIP3    H235466   7.827   5.984   4.624
11841TIP3   OH235467   0.002   5.629   5.196
11841TIP3    H135468  -0.007   5.610   5.289
11841TIP3    H235469   0.076   5.576   5.167
11842TIP3   OH235470   8.485   5.547   4.067
11842TIP3    H135471   8.555   5.537   4.131
11842TIP3    H235472   8.404   5.537   4.117
11843TIP3   OH235473   7.864   4.729   5.766
11843TIP3    H135474   7.770   4.741   5.772
11843TIP3    H235475   7.886   4.674   5.841
11844TIP3   OH235476   0.176   5.502   4.258
11844TIP3    H135477   0.156   5.411   4.282
11844TIP3    H235478   0.147   5.553   4.334
11845TIP3   OH235479   7.624   5.862   5.376
11845TIP3    H135480   7.719   5.852   5.374
11845TIP3    H235481   7.609   5.947   5.418
11846TIP3   OH235482   7.862   5.477   4.088
11846TIP3    H135483   7.896   5.394   4.056
11846TIP3    H235484   7.853   5.464   4.182
11847TIP3   OH235485   7.828   5.487   4.362
11847TIP3    H135486   7.914   5.464   4.397
11847TIP3    H235487   7.824   5.582   4.369
11848TIP3   OH235488   7.553   5.168   4.562
11848TIP3    H135489   7.489   5.215   4.616
11848TIP3    H235490   7.575   5.229   4.492
11849TIP3   OH235491   0.145   4.801   5.411
11849TIP3    H135492   0.191   4.884   5.422
11849TIP3    H235493   0.083   4.797   5.484
11850TIP3   OH235494   0.028   4.587   4.619
11850TIP3    H135495   0.078   4.561   4.541
11850TIP3    H235496   0.068   4.669   4.647
11851TIP3   OH235497   8.086   5.696   4.312
11851TIP3    H135498   7.999   5.712   4.350
11851TIP3    H235499   8.100   5.770   4.252
11852TIP3   OH235500   8.234   4.762   4.713
11852TIP3    H135501   8.296   4.830   4.684
11852TIP3    H235502   8.246   4.759   4.808
11853TIP3   OH235503   0.039   5.059   5.542
11853TIP3    H135504   0.024   5.132   5.602
11853TIP3    H235505   0.118   5.017   5.577
11854TIP3   OH235506   8.384   4.479   4.821
11854TIP3    H135507   8.418   4.525   4.898
11854TIP3    H235508   8.432   4.517   4.747
11855TIP3   OH235509   7.826   5.762   4.377
11855TIP3    H135510   7.804   5.827   4.310
11855TIP3    H235511   7.818   5.809   4.459
11856TIP3   OH235512   7.930   4.480   4.644
11856TIP3    H135513   7.926   4.574   4.665
11856TIP3    H235514   8.024   4.462   4.634
11857TIP3   OH235515   0.261   5.201   4.935
11857TIP3    H135516   0.177   5.240   4.911
11857TIP3    H235517   0.247   5.165   5.023
11858TIP3   OH235518   7.576   5.365   4.360
11858TIP3    H135519   7.650   5.425   4.371
11858TIP3    H235520   7.605   5.301   4.296
11859TIP3   OH235521   7.454   4.616   4.501
11859TIP3    H135522   7.475   4.709   4.504
11859TIP3    H235523   7.359   4.612   4.511
11860TIP3   OH235524   0.319   6.129   4.835
11860TIP3    H135525   0.286   6.184   4.764
11860TIP3    H235526   0.411   6.153   4.843
11861TIP3   OH235527   7.856   4.375   5.359
11861TIP3    H135528   7.838   4.342   5.271
11861TIP3    H235529   7.855   4.298   5.415
11862TIP3   OH235530   7.410   5.620   4.748
11862TIP3    H135531   7.361   5.653   4.824
11862TIP3    H235532   7.368   5.662   4.673
11863TIP3   OH235533   7.613   6.110   5.730
11863TIP3    H135534   7.670   6.117   5.807
11863TIP3    H235535   7.534   6.158   5.755
11864TIP3   OH235536   8.031   6.101   5.843
11864TIP3    H135537   8.126   6.098   5.854
11864TIP3    H235538   8.014   6.038   5.774
11865TIP3   OH235539   8.056   5.641   3.989
11865TIP3    H135540   7.979   5.600   4.031
11865TIP3    H235541   8.117   5.568   3.975
11866TIP3   OH235542   8.412   5.754   3.911
11866TIP3    H135543   8.428   5.686   3.976
11866TIP3    H235544   8.499   5.775   3.877
11867TIP3   OH235545   7.715   5.482   5.997
11867TIP3    H135546   7.750   5.437   6.074
11867TIP3    H235547   7.623   5.497   6.018
11868TIP3   OH235548   7.688   5.163   4.217
11868TIP3    H135549   7.745   5.147   4.292
11868TIP3    H235550   7.747   5.176   4.143
11869TIP3   OH235551   8.315   5.637   5.779
11869TIP3    H135552   8.278   5.656   5.692
11869TIP3    H235553   8.346   5.546   5.771
11870TIP3   OH235554   0.268   5.592   5.367
11870TIP3    H135555   0.317   5.592   5.285
11870TIP3    H235556   0.211   5.668   5.361
11871TIP3   OH235557   7.874   5.118   4.421
11871TIP3    H135558   7.859   5.090   4.512
11871TIP3    H235559   7.920   5.045   4.380
11872TIP3   OH235560   8.207   5.178   5.645
11872TIP3    H135561   8.113   5.194   5.633
11872TIP3    H235562   8.247   5.213   5.566
11873TIP3   OH235563   7.994   4.917   4.274
11873TIP3    H135564   7.974   4.929   4.181
11873TIP3    H235565   8.089   4.908   4.277
11874TIP3   OH235566   0.127   5.553   5.694
11874TIP3    H135567   0.217   5.540   5.663
11874TIP3    H235568   0.136   5.572   5.787
11875TIP3   OH235569   8.280   4.949   5.774
11875TIP3    H135570   8.280   4.876   5.712
11875TIP3    H235571   8.252   5.025   5.722
11876TIP3   OH235572   8.287   4.746   5.578
11876TIP3    H135573   8.315   4.791   5.499
11876TIP3    H235574   8.193   4.730   5.565
11877TIP3   OH235575   8.327   5.298   5.439
11877TIP3    H135576   8.413   5.321   5.404
11877TIP3    H235577   8.267   5.357   5.394
11878TIP3   OH235578   0.382   5.301   5.793
11878TIP3    H135579   0.420   5.233   5.737
11878TIP3    H235580   0.362   5.373   5.733
11879TIP3   OH235581   0.389   5.532   5.599
11879TIP3    H135582   0.346   5.554   5.517
11879TIP3    H235583   0.483   5.545   5.582
11880TIP3   OH235584   8.167   5.044   6.012
11880TIP3    H135585   8.103   4.977   6.035
11880TIP3    H235586   8.198   5.019   5.925
11881TIP3   OH235587   8.323   4.507   5.722
11881TIP3    H135588   8.284   4.582   5.677
11881TIP3    H235589   8.276   4.431   5.688
11882TIP3   OH235590   0.034   4.982   5.869
11882TIP3    H135591   0.025   4.965   5.963
11882TIP3    H235592  -0.053   4.967   5.833
11883TIP3   OH235593   0.259   4.951   5.718
11883TIP3    H135594   0.175   4.949   5.763
11883TIP3    H235595   0.324   4.932   5.786
11884TIP3   OH235596   0.376   4.919   5.974
11884TIP3    H135597   0.414   4.831   5.969
11884TIP3    H235598   0.450   4.977   5.990
11885TIP3   OH235599   8.011   4.823   6.087
11885TIP3    H135600   8.020   4.736   6.048
11885TIP3    H235601   8.052   4.814   6.173
11886TIP3   OH235602   8.471   4.507   5.949
11886TIP3    H135603   8.516   4.422   5.951
11886TIP3    H235604   8.417   4.503   5.870
11887TIP3   OH235605   0.064   4.716   6.108
11887TIP3    H135606   0.055   4.650   6.039
11887TIP3    H235607  -0.006   4.779   6.090
11888TIP3   OH235608   7.814   5.961   4.181
11888TIP3    H135609   7.902   5.936   4.152
11888TIP3    H235610   7.781   6.017   4.111
11889TIP3   OH235611   7.302   5.354   4.379
11889TIP3    H135612   7.396   5.369   4.374
11889TIP3    H235613   7.289   5.267   4.339
11890TIP3   OH235614   7.197   5.940   4.828
11890TIP3    H135615   7.134   5.883   4.783
11890TIP3    H235616   7.245   5.881   4.887
11891TIP3   OH235617   7.346   5.784   4.999
11891TIP3    H135618   7.341   5.715   5.065
11891TIP3    H235619   7.398   5.853   5.040
11892TIP3   OH235620   0.371   6.031   5.111
11892TIP3    H135621   0.466   6.038   5.119
11892TIP3    H235622   0.352   6.067   5.024
11893TIP3   OH235623   0.498   5.061   4.691
11893TIP3    H135624   0.594   5.050   4.690
11893TIP3    H235625   0.484   5.143   4.644
11894TIP3   OH235626   7.748   4.867   6.024
11894TIP3    H135627   7.842   4.864   6.041
11894TIP3    H235628   7.714   4.787   6.063
11895TIP3   OH235629   7.705   4.603   5.406
11895TIP3    H135630   7.756   4.522   5.397
11895TIP3    H235631   7.766   4.673   5.383
11896TIP3   OH235632   0.152   6.124   4.446
11896TIP3    H135633   0.192   6.115   4.359
11896TIP3    H235634   0.224   6.154   4.502
11897TIP3   OH235635   7.707   4.422   5.764
11897TIP3    H135636   7.657   4.415   5.846
11897TIP3    H235637   7.650   4.469   5.704
11898TIP3   OH235638   7.738   5.827   5.792
11898TIP3    H135639   7.654   5.867   5.772
11898TIP3    H235640   7.749   5.837   5.886
11899TIP3   OH235641   7.926   5.918   5.373
11899TIP3    H135642   7.885   5.999   5.342
11899TIP3    H235643   8.013   5.919   5.334
11900TIP3   OH235644   7.603   6.128   5.448
11900TIP3    H135645   7.517   6.169   5.433
11900TIP3    H235646   7.615   6.134   5.543
11901TIP3   OH235647   7.826   6.163   5.286
11901TIP3    H135648   7.748   6.166   5.342
11901TIP3    H235649   7.796   6.199   5.202
11902TIP3   OH235650   8.272   6.148   5.051
11902TIP3    H135651   8.277   6.139   4.956
11902TIP3    H235652   8.264   6.242   5.066
11903TIP3   OH235653   0.010   6.089   5.177
11903TIP3    H135654  -0.074   6.108   5.134
11903TIP3    H235655   0.072   6.148   5.136
11904TIP3   OH235656   0.153   6.262   5.017
11904TIP3    H135657   0.176   6.352   4.995
11904TIP3    H235658   0.204   6.208   4.956
11905TIP3   OH235659   7.530   5.959   5.133
11905TIP3    H135660   7.542   5.933   5.225
11905TIP3    H235661   7.597   5.909   5.086
11906TIP3   OH235662   7.716   5.812   5.007
11906TIP3    H135663   7.726   5.731   5.057
11906TIP3    H235664   7.802   5.854   5.013
11907TIP3   OH235665   7.969   5.898   5.059
11907TIP3    H135666   7.999   5.809   5.045
11907TIP3    H235667   8.037   5.939   5.113
11908TIP3   OH235668   8.471   4.582   5.058
11908TIP3    H135669   8.492   4.505   5.110
11908TIP3    H235670   8.536   4.647   5.084
11909TIP3   OH235671   7.807   4.264   5.109
11909TIP3    H135672   7.718   4.230   5.119
11909TIP3    H235673   7.862   4.186   5.104
11910TIP3   OH235674   8.244   4.324   5.009
11910TIP3    H135675   8.272   4.393   4.949
11910TIP3    H235676   8.277   4.352   5.095
11911TIP3   OH235677   0.492   4.426   4.997
11911TIP3    H135678   0.419   4.459   4.944
11911TIP3    H235679   0.454   4.354   5.048
11912TIP3   OH235680   7.293   5.750   4.539
11912TIP3    H135681   7.211   5.712   4.509
11912TIP3    H235682   7.295   5.838   4.500
11913TIP3   OH235683   7.711   4.354   4.552
11913TIP3    H135684   7.741   4.273   4.510
11913TIP3    H235685   7.788   4.389   4.595
11914TIP3   OH235686   8.200   4.509   4.618
11914TIP3    H135687   8.254   4.460   4.680
11914TIP3    H235688   8.215   4.601   4.640
11915TIP3   OH235689   8.067   5.889   4.109
11915TIP3    H135690   8.150   5.930   4.084
11915TIP3    H235691   8.064   5.809   4.056
11916TIP3   OH235692   0.285   6.081   4.200
11916TIP3    H135693   0.272   5.986   4.207
11916TIP3    H235694   0.260   6.101   4.110
11917TIP3   OH235695   8.016   4.551   5.994
11917TIP3    H135696   7.981   4.486   6.055
11917TIP3    H235697   8.108   4.560   6.018
11918TIP3   OH235698   8.260   4.560   6.123
11918TIP3    H135699   8.341   4.547   6.074
11918TIP3    H235700   8.259   4.488   6.187
11919TIP3   OH235701   7.398   5.742   4.176
11919TIP3    H135702   7.407   5.761   4.269
11919TIP3    H235703   7.478   5.696   4.153
11920TIP3   OH235704   0.929   6.074   6.349
11920TIP3    H135705   0.897   6.164   6.339
11920TIP3    H235706   0.855   6.019   6.323
11921TIP3   OH235707   0.971   6.073   6.745
11921TIP3    H135708   1.015   6.057   6.828
11921TIP3    H235709   0.923   5.992   6.727
11922TIP3   OH235710   1.214   6.393   6.440
11922TIP3    H135711   1.205   6.326   6.508
11922TIP3    H235712   1.236   6.473   6.488
11923TIP3   OH235713   0.881   6.884   6.428
11923TIP3    H135714   0.892   6.803   6.379
11923TIP3    H235715   0.885   6.858   6.520
11924TIP3   OH235716   0.777   6.251   6.839
11924TIP3    H135717   0.826   6.192   6.781
11924TIP3    H235718   0.817   6.337   6.825
11925TIP3   OH235719   1.784   5.632   6.796
11925TIP3    H135720   1.802   5.716   6.838
11925TIP3    H235721   1.816   5.643   6.706
11926TIP3   OH235722   1.184   5.799   6.818
11926TIP3    H135723   1.217   5.712   6.841
11926TIP3    H235724   1.136   5.786   6.736
11927TIP3   OH235725   1.214   5.555   6.414
11927TIP3    H135726   1.280   5.548   6.483
11927TIP3    H235727   1.261   5.593   6.340
11928TIP3   OH235728   7.514   1.840   0.027
11928TIP3    H135729   7.428   1.880   0.014
11928TIP3    H235730   7.548   1.881   0.106
11929TIP3   OH235731   0.822   6.300   6.231
11929TIP3    H135732   0.796   6.291   6.140
11929TIP3    H235733   0.901   6.355   6.229
11930TIP3   OH235734   1.383   5.573   6.626
11930TIP3    H135735   1.339   5.553   6.709
11930TIP3    H235736   1.437   5.650   6.646
11931TIP3   OH235737   1.255   6.636   6.583
11931TIP3    H135738   1.162   6.631   6.607
11931TIP3    H235739   1.264   6.722   6.543
11932TIP3   OH235740   1.583   5.521   6.962
11932TIP3    H135741   1.498   5.547   6.928
11932TIP3    H235742   1.645   5.549   6.894
11933TIP3   OH235743   6.532   1.139   0.008
11933TIP3    H135744   6.522   1.048   0.035
11933TIP3    H235745   6.474   1.188   0.066
11934TIP3   OH235746   0.944   6.667   6.263
11934TIP3    H135747   0.978   6.577   6.257
11934TIP3    H235748   1.010   6.721   6.220
11935TIP3   OH235749   1.068   6.421   6.210
11935TIP3    H135750   1.111   6.372   6.140
11935TIP3    H235751   1.124   6.408   6.286
11936TIP3   OH235752   1.539   6.519   6.904
11936TIP3    H135753   1.512   6.453   6.841
11936TIP3    H235754   1.518   6.603   6.862
11937TIP3   OH235755   0.752   5.908   6.195
11937TIP3    H135756   0.669   5.869   6.169
11937TIP3    H235757   0.802   5.916   6.114
11938TIP3   OH235758   0.779   5.721   5.905
11938TIP3    H135759   0.849   5.771   5.947
11938TIP3    H235760   0.825   5.661   5.846
11939TIP3   OH235761   1.667   6.193   6.798
11939TIP3    H135762   1.581   6.234   6.797
11939TIP3    H235763   1.701   6.208   6.709
11940TIP3   OH235764   1.133   6.033   6.172
11940TIP3    H135765   1.073   6.050   6.245
11940TIP3    H235766   1.214   6.005   6.214
11941TIP3   OH235767   7.022   2.004   0.111
11941TIP3    H135768   7.046   2.096   0.103
11941TIP3    H235769   6.928   2.002   0.092
11942TIP3   OH235770   0.993   6.648   6.655
11942TIP3    H135771   0.957   6.727   6.696
11942TIP3    H235772   0.957   6.576   6.708
11943TIP3   OH235773   0.974   5.885   6.006
11943TIP3    H135774   1.028   5.946   6.057
11943TIP3    H235775   1.004   5.897   5.916
11944TIP3   OH235776   1.470   5.113   6.045
11944TIP3    H135777   1.396   5.133   6.103
11944TIP3    H235778   1.484   5.193   5.996
11945TIP3   OH235779   1.318   6.492   5.594
11945TIP3    H135780   1.316   6.584   5.571
11945TIP3    H235781   1.406   6.463   5.568
11946TIP3   OH235782   7.407   2.917   0.000
11946TIP3    H135783   7.418   2.824   0.020
11946TIP3    H235784   7.325   2.941   0.044
11947TIP3   OH235785   0.809   6.723   5.711
11947TIP3    H135786   0.862   6.648   5.682
11947TIP3    H235787   0.827   6.731   5.804
11948TIP3   OH235788   0.867   6.774   5.989
11948TIP3    H135789   0.817   6.728   6.055
11948TIP3    H235790   0.953   6.788   6.029
11949TIP3   OH235791   7.289   2.005   0.299
11949TIP3    H135792   7.196   2.014   0.280
11949TIP3    H235793   7.306   1.911   0.298
11950TIP3   OH235794   6.822   1.343   0.334
11950TIP3    H135795   6.891   1.333   0.399
11950TIP3    H235796   6.741   1.341   0.384
11951TIP3   OH235797   7.040   1.767   0.244
11951TIP3    H135798   7.033   1.808   0.330
11951TIP3    H235799   7.030   1.839   0.182
11952TIP3   OH235800   1.052   5.881   5.745
11952TIP3    H135801   1.001   5.883   5.664
11952TIP3    H235802   1.133   5.926   5.723
11953TIP3   OH235803   0.756   5.291   6.050
11953TIP3    H135804   0.730   5.299   6.141
11953TIP3    H235805   0.713   5.212   6.019
11954TIP3   OH235806   0.921   5.745   6.343
11954TIP3    H135807   0.862   5.808   6.301
11954TIP3    H235808   0.973   5.709   6.271
11955TIP3   OH235809   6.758   1.874   0.445
11955TIP3    H135810   6.722   1.866   0.533
11955TIP3    H235811   6.811   1.954   0.447
11956TIP3   OH235812   1.076   5.743   6.571
11956TIP3    H135813   1.013   5.772   6.504
11956TIP3    H235814   1.120   5.668   6.531
11957TIP3   OH235815   6.752   1.978   0.044
11957TIP3    H135816   6.791   1.921  -0.022
11957TIP3    H235817   6.716   1.918   0.110
11958TIP3   OH235818   0.801   5.465   6.673
11958TIP3    H135819   0.733   5.492   6.734
11958TIP3    H235820   0.877   5.444   6.728
11959TIP3   OH235821   1.242   5.531   6.861
11959TIP3    H135822   1.230   5.543   6.955
11959TIP3    H235823   1.172   5.472   6.835
11960TIP3   OH235824   7.055   3.288   0.079
11960TIP3    H135825   7.074   3.275  -0.014
11960TIP3    H235826   7.139   3.274   0.123
11961TIP3   OH235827   0.873   5.812   6.766
11961TIP3    H135828   0.922   5.758   6.704
11961TIP3    H235829   0.849   5.751   6.836
11962TIP3   OH235830   6.450   1.694   0.081
11962TIP3    H135831   6.395   1.772   0.078
11962TIP3    H235832   6.530   1.722   0.126
11963TIP3   OH235833   1.437   6.334   6.730
11963TIP3    H135834   1.469   6.380   6.652
11963TIP3    H235835   1.356   6.292   6.702
11964TIP3   OH235836   1.010   5.394   6.052
11964TIP3    H135837   0.916   5.376   6.051
11964TIP3    H235838   1.016   5.488   6.068
11965TIP3   OH235839   6.571   2.374   0.180
11965TIP3    H135840   6.607   2.435   0.245
11965TIP3    H235841   6.477   2.391   0.181
11966TIP3   OH235842   1.073   5.654   6.124
11966TIP3    H135843   1.168   5.660   6.138
11966TIP3    H235844   1.051   5.734   6.075
11967TIP3   OH235845   0.660   6.244   6.002
11967TIP3    H135846   0.607   6.323   6.013
11967TIP3    H235847   0.623   6.182   6.064
11968TIP3   OH235848   6.587   2.198   0.591
11968TIP3    H135849   6.509   2.214   0.538
11968TIP3    H235850   6.649   2.157   0.531
11969TIP3   OH235851   6.763   2.580   0.250
11969TIP3    H135852   6.717   2.630   0.182
11969TIP3    H235853   6.835   2.637   0.276
11970TIP3   OH235854   1.477   5.752   5.953
11970TIP3    H135855   1.421   5.706   5.890
11970TIP3    H235856   1.483   5.841   5.919
11971TIP3   OH235857   7.449   2.650   0.068
11971TIP3    H135858   7.371   2.626   0.118
11971TIP3    H235859   7.443   2.597  -0.012
11972TIP3   OH235860   1.224   6.553   5.851
11972TIP3    H135861   1.197   6.474   5.898
11972TIP3    H235862   1.257   6.521   5.767
11973TIP3   OH235863   1.208   6.194   6.640
11973TIP3    H135864   1.119   6.173   6.668
11973TIP3    H235865   1.245   6.112   6.610
11974TIP3   OH235866   0.983   6.445   6.858
11974TIP3    H135867   0.957   6.414   6.945
11974TIP3    H235868   1.078   6.440   6.859
11975TIP3   OH235869   0.997   6.296   5.766
11975TIP3    H135870   1.034   6.274   5.851
11975TIP3    H235871   0.911   6.254   5.765
11976TIP3   OH235872   1.231   6.908   6.886
11976TIP3    H135873   1.153   6.855   6.901
11976TIP3    H235874   1.204   6.974   6.823
11977TIP3   OH235875   1.309   6.769   5.568
11977TIP3    H135876   1.357   6.850   5.548
11977TIP3    H235877   1.226   6.799   5.606
11978TIP3   OH235878   1.154   6.246   5.997
11978TIP3    H135879   1.138   6.172   6.055
11978TIP3    H235880   1.247   6.240   5.975
11979TIP3   OH235881   6.860   1.567   0.182
11979TIP3    H135882   6.928   1.621   0.224
11979TIP3    H235883   6.849   1.494   0.242
11980TIP3   OH235884   1.067   5.338   6.322
11980TIP3    H135885   1.041   5.360   6.233
11980TIP3    H235886   1.107   5.418   6.356
11981TIP3   OH235887   0.760   5.530   6.408
11981TIP3    H135888   0.809   5.610   6.386
11981TIP3    H235889   0.768   5.524   6.503
11982TIP3   OH235890   6.679   1.771   0.208
11982TIP3    H135891   6.704   1.800   0.296
11982TIP3    H235892   6.736   1.696   0.190
11983TIP3   OH235893   0.882   5.242   6.509
11983TIP3    H135894   0.855   5.322   6.555
11983TIP3    H235895   0.947   5.272   6.446
11984TIP3   OH235896   7.308   1.729   0.244
11984TIP3    H135897   7.214   1.725   0.259
11984TIP3    H235898   7.321   1.688   0.159
11985TIP3   OH235899   1.297   5.935   6.567
11985TIP3    H135900   1.219   5.882   6.582
11985TIP3    H235901   1.365   5.895   6.622
11986TIP3   OH235902   1.283   6.903   6.508
11986TIP3    H135903   1.238   6.938   6.432
11986TIP3    H235904   1.376   6.914   6.488
11987TIP3   OH235905   6.724   2.842   0.378
11987TIP3    H135906   6.766   2.798   0.452
11987TIP3    H235907   6.780   2.918   0.360
11988TIP3   OH235908   0.946   6.511   5.600
11988TIP3    H135909   0.979   6.444   5.660
11988TIP3    H235910   0.999   6.501   5.521
11989TIP3   OH235911   0.740   6.189   5.741
11989TIP3    H135912   0.705   6.205   5.828
11989TIP3    H235913   0.721   6.097   5.723
11990TIP3   OH235914   6.913   2.520   0.001
11990TIP3    H135915   7.002   2.495  -0.023
11990TIP3    H235916   6.902   2.486   0.090
11991TIP3   OH235917   0.547   5.755   6.044
11991TIP3    H135918   0.481   5.750   5.974
11991TIP3    H235919   0.627   5.724   6.003
11992TIP3   OH235920   6.758   2.421   0.505
11992TIP3    H135921   6.758   2.333   0.469
11992TIP3    H235922   6.735   2.410   0.597
11993TIP3   OH235923   1.269   6.004   5.627
11993TIP3    H135924   1.255   5.963   5.542
11993TIP3    H235925   1.249   6.096   5.613
11994TIP3   OH235926   6.394   1.495   0.279
11994TIP3    H135927   6.410   1.551   0.204
11994TIP3    H235928   6.357   1.553   0.346
11995TIP3   OH235929   6.489   2.069   0.109
11995TIP3    H135930   6.578   2.061   0.076
11995TIP3    H235931   6.447   2.130   0.049
11996TIP3   OH235932   7.046   1.933   0.458
11996TIP3    H135933   7.024   1.919   0.550
11996TIP3    H235934   7.090   2.018   0.456
11997TIP3   OH235935   7.081   2.261   0.089
11997TIP3    H135936   7.005   2.292   0.138
11997TIP3    H235937   7.154   2.313   0.123
11998TIP3   OH235938   6.541   1.280   0.367
11998TIP3    H135939   6.498   1.359   0.335
11998TIP3    H235940   6.475   1.211   0.358
11999TIP3   OH235941   6.644   1.828   0.686
11999TIP3    H135942   6.693   1.795   0.761
11999TIP3    H235943   6.575   1.763   0.672
12000TIP3   OH235944   6.913   1.632   0.483
12000TIP3    H135945   6.869   1.716   0.472
12000TIP3    H235946   6.999   1.653   0.519
12001TIP3   OH235947   7.176   1.672   0.603
12001TIP3    H135948   7.180   1.577   0.616
12001TIP3    H235949   7.171   1.709   0.691
12002TIP3   OH235950   6.629   1.264   0.624
12002TIP3    H135951   6.696   1.195   0.625
12002TIP3    H235952   6.593   1.261   0.536
12003TIP3   OH235953   6.718   1.475   0.765
12003TIP3    H135954   6.685   1.405   0.708
12003TIP3    H235955   6.640   1.523   0.791
12004TIP3   OH235956   1.545   6.961   6.461
12004TIP3    H135957   1.566   6.982   6.552
12004TIP3    H235958   1.608   7.010   6.409
12005TIP3   OH235959   1.577   6.979   6.728
12005TIP3    H135960   1.527   6.898   6.740
12005TIP3    H235961   1.652   6.969   6.786
12006TIP3   OH235962   7.292   2.631   0.294
12006TIP3    H135963   7.252   2.579   0.363
12006TIP3    H235964   7.353   2.689   0.340
12007TIP3   OH235965   1.426   6.213   5.964
12007TIP3    H135966   1.485   6.281   5.932
12007TIP3    H235967   1.474   6.171   6.035
12008TIP3   OH235968   1.557   6.064   6.159
12008TIP3    H135969   1.490   6.027   6.217
12008TIP3    H235970   1.622   6.102   6.219
12009TIP3   OH235971   1.622   6.474   6.578
12009TIP3    H135972   1.673   6.403   6.538
12009TIP3    H235973   1.627   6.545   6.514
12010TIP3   OH235974   1.430   6.744   6.774
12010TIP3    H135975   1.361   6.791   6.821
12010TIP3    H235976   1.384   6.696   6.705
12011TIP3   OH235977   1.472   5.986   5.812
12011TIP3    H135978   1.404   5.988   5.745
12011TIP3    H235979   1.459   6.067   5.861
12012TIP3   OH235980   1.329   5.634   5.757
12012TIP3    H135981   1.295   5.676   5.678
12012TIP3    H235982   1.316   5.540   5.741
12013TIP3   OH235983   1.357   5.927   6.299
12013TIP3    H135984   1.365   5.832   6.286
12013TIP3    H235985   1.342   5.937   6.393
12014TIP3   OH235986   7.334   2.349   0.160
12014TIP3    H135987   7.397   2.283   0.130
12014TIP3    H235988   7.317   2.403   0.083
12015TIP3   OH235989   7.508   2.124   0.192
12015TIP3    H135990   7.427   2.089   0.229
12015TIP3    H235991   7.577   2.066   0.225
12016TIP3   OH235992   1.297   5.359   5.740
12016TIP3    H135993   1.359   5.337   5.810
12016TIP3    H235994   1.214   5.323   5.770
12017TIP3   OH235995   1.356   5.650   6.188
12017TIP3    H135996   1.402   5.567   6.198
12017TIP3    H235997   1.398   5.692   6.113
12018TIP3   OH235998   1.512   5.808   6.700
12018TIP3    H135999   1.592   5.828   6.650
12018TIP3    H236000   1.527   5.847   6.786
12019TIP3   OH236001   1.596   5.955   6.922
12019TIP3    H136002   1.514   5.972   6.970
12019TIP3    H236003   1.619   6.039   6.883
12020TIP3   OH236004   7.707   1.550   0.526
12020TIP3    H136005   7.772   1.492   0.486
12020TIP3    H236006   7.670   1.599   0.452
12021TIP3   OH236007   1.470   5.397   6.231
12021TIP3    H136008   1.517   5.385   6.314
12021TIP3    H236009   1.406   5.327   6.229
12022TIP3   OH236010   7.559   1.662   0.327
12022TIP3    H136011   7.473   1.704   0.324
12022TIP3    H236012   7.548   1.581   0.278
12023TIP3   OH236013   1.545   5.313   5.867
12023TIP3    H136014   1.629   5.269   5.869
12023TIP3    H236015   1.567   5.406   5.869
12024TIP3   OH236016   1.104   6.837   6.122
12024TIP3    H136017   1.170   6.834   6.052
12024TIP3    H236018   1.138   6.901   6.184
12025TIP3   OH236019   6.658   3.060   0.038
12025TIP3    H136020   6.738   3.031   0.083
12025TIP3    H236021   6.630   3.138   0.086
12026TIP3   OH236022   7.473   1.418   0.226
12026TIP3    H136023   7.385   1.412   0.187
12026TIP3    H236024   7.509   1.330   0.218
12027TIP3   OH236025   0.943   6.918   6.736
12027TIP3    H136026   0.925   6.953   6.823
12027TIP3    H236027   1.003   6.981   6.697
12028TIP3   OH236028   1.198   7.096   6.685
12028TIP3    H136029   1.183   7.176   6.634
12028TIP3    H236030   1.224   7.031   6.619
12029TIP3   OH236031   1.017   5.355   6.805
12029TIP3    H136032   0.978   5.281   6.851
12029TIP3    H236033   1.084   5.316   6.749
12030TIP3   OH236034   1.515   5.264   6.684
12030TIP3    H136035   1.554   5.316   6.614
12030TIP3    H236036   1.424   5.294   6.689
12031TIP3   OH236037   1.633   5.346   6.448
12031TIP3    H136038   1.701   5.284   6.423
12031TIP3    H236039   1.673   5.432   6.438
12032TIP3   OH236040   0.745   5.082   6.698
12032TIP3    H136041   0.784   5.135   6.629
12032TIP3    H236042   0.792   5.107   6.777
12033TIP3   OH236043   1.225   5.239   6.671
12033TIP3    H136044   1.239   5.202   6.583
12033TIP3    H236045   1.231   5.163   6.729
12034TIP3   OH236046   1.284   5.186   6.236
12034TIP3    H136047   1.206   5.235   6.261
12034TIP3    H236048   1.274   5.101   6.279
12035TIP3   OH236049   0.686   5.290   6.308
12035TIP3    H136050   0.730   5.244   6.380
12035TIP3    H236051   0.692   5.382   6.333
12036TIP3   OH236052   1.262   6.820   5.896
12036TIP3    H136053   1.254   6.726   5.885
12036TIP3    H236054   1.213   6.857   5.822
12037TIP3   OH236055   7.224   1.406   0.656
12037TIP3    H136056   7.245   1.376   0.744
12037TIP3    H236057   7.308   1.404   0.610
12038TIP3   OH236058   7.128   2.988   0.064
12038TIP3    H136059   7.047   2.954   0.026
12038TIP3    H236060   7.109   3.080   0.081
12039TIP3   OH236061   2.749   6.356   5.847
12039TIP3    H136062   2.717   6.442   5.818
12039TIP3    H236063   2.680   6.295   5.820
12040TIP3   OH236064   2.747   6.347   6.264
12040TIP3    H136065   2.796   6.326   6.343
12040TIP3    H236066   2.700   6.266   6.242
12041TIP3   OH236067   2.042   6.210   6.611
12041TIP3    H136068   2.080   6.156   6.680
12041TIP3    H236069   2.117   6.233   6.555
12042TIP3   OH236070   3.009   6.654   5.939
12042TIP3    H136071   2.997   6.587   6.006
12042TIP3    H236072   3.031   6.733   5.989
12043TIP3   OH236073   2.028   6.643   6.311
12043TIP3    H136074   2.010   6.549   6.313
12043TIP3    H236075   2.122   6.649   6.293
12044TIP3   OH236076   1.713   5.836   6.092
12044TIP3    H136077   1.681   5.924   6.112
12044TIP3    H236078   1.639   5.793   6.048
12045TIP3   OH236079   1.787   6.143   6.300
12045TIP3    H136080   1.840   6.068   6.326
12045TIP3    H236081   1.848   6.203   6.258
12046TIP3   OH236082   2.662   7.088   5.950
12046TIP3    H136083   2.689   7.025   5.884
12046TIP3    H236084   2.657   7.038   6.031
12047TIP3   OH236085   2.542   6.570   6.268
12047TIP3    H136086   2.583   6.492   6.232
12047TIP3    H236087   2.615   6.624   6.299
12048TIP3   OH236088   3.574   5.890   6.282
12048TIP3    H136089   3.594   5.975   6.323
12048TIP3    H236090   3.599   5.902   6.190
12049TIP3   OH236091   2.957   6.056   6.307
12049TIP3    H136092   2.993   5.971   6.333
12049TIP3    H236093   2.921   6.041   6.220
12050TIP3   OH236094   2.309   5.717   6.266
12050TIP3    H136095   2.289   5.790   6.207
12050TIP3    H236096   2.255   5.645   6.233
12051TIP3   OH236097   3.007   5.815   5.899
12051TIP3    H136098   3.072   5.808   5.969
12051TIP3    H236099   3.056   5.849   5.824
12052TIP3   OH236100   1.934   5.928   6.394
12052TIP3    H136101   2.018   5.912   6.438
12052TIP3    H236102   1.940   5.877   6.313
12053TIP3   OH236103   2.354   6.127   6.211
12053TIP3    H136104   2.449   6.112   6.215
12053TIP3    H236105   2.319   6.047   6.173
12054TIP3   OH236106   3.639   6.107   6.453
12054TIP3    H136107   3.550   6.143   6.447
12054TIP3    H236108   3.674   6.142   6.534
12055TIP3   OH236109   2.291   5.717   6.716
12055TIP3    H136110   2.242   5.752   6.643
12055TIP3    H236111   2.236   5.733   6.793
12056TIP3   OH236112   2.648   6.571   5.702
12056TIP3    H136113   2.607   6.542   5.621
12056TIP3    H236114   2.592   6.641   5.735
12057TIP3   OH236115   2.387   6.491   6.483
12057TIP3    H136116   2.332   6.562   6.518
12057TIP3    H236117   2.433   6.530   6.409
12058TIP3   OH236118   3.168   5.838   6.119
12058TIP3    H136119   3.129   5.814   6.203
12058TIP3    H236120   3.225   5.912   6.139
12059TIP3   OH236121   2.180   5.824   6.488
12059TIP3    H136122   2.235   5.899   6.510
12059TIP3    H236123   2.225   5.782   6.415
12060TIP3   OH236124   2.232   6.694   6.590
12060TIP3    H136125   2.215   6.782   6.556
12060TIP3    H236126   2.155   6.674   6.643
12061TIP3   OH236127   1.615   6.391   5.878
12061TIP3    H136128   1.673   6.351   5.814
12061TIP3    H236129   1.653   6.478   5.893
12062TIP3   OH236130   3.048   6.902   6.081
12062TIP3    H136131   2.961   6.894   6.119
12062TIP3    H236132   3.046   6.985   6.034
12063TIP3   OH236133   3.373   5.780   6.452
12063TIP3    H136134   3.287   5.800   6.417
12063TIP3    H236135   3.434   5.808   6.384
12064TIP3   OH236136   2.634   5.409   6.445
12064TIP3    H136137   2.626   5.317   6.469
12064TIP3    H236138   2.557   5.451   6.484
12065TIP3   OH236139   2.750   6.939   5.731
12065TIP3    H136140   2.801   6.859   5.724
12065TIP3    H236141   2.809   7.008   5.702
12066TIP3   OH236142   2.891   6.710   5.695
12066TIP3    H136143   2.820   6.646   5.690
12066TIP3    H236144   2.941   6.683   5.772
12067TIP3   OH236145   3.284   6.789   6.423
12067TIP3    H136146   3.265   6.715   6.366
12067TIP3    H236147   3.269   6.866   6.369
12068TIP3   OH236148   2.582   6.190   5.699
12068TIP3    H136149   2.501   6.240   5.685
12068TIP3    H236150   2.623   6.186   5.613
12069TIP3   OH236151   2.538   5.996   5.383
12069TIP3    H136152   2.603   6.045   5.434
12069TIP3    H236153   2.589   5.930   5.336
12070TIP3   OH236154   3.464   6.450   6.288
12070TIP3    H136155   3.379   6.494   6.287
12070TIP3    H236156   3.499   6.463   6.200
12071TIP3   OH236157   2.927   6.285   5.651
12071TIP3    H136158   2.874   6.314   5.725
12071TIP3    H236159   3.010   6.257   5.691
12072TIP3   OH236160   3.158   6.311   6.597
12072TIP3    H136161   3.153   6.394   6.645
12072TIP3    H236162   3.075   6.307   6.548
12073TIP3   OH236163   2.148   6.269   6.066
12073TIP3    H136164   2.105   6.221   5.995
12073TIP3    H236165   2.219   6.213   6.094
12074TIP3   OH236166   2.284   6.688   6.196
12074TIP3    H136167   2.255   6.670   6.107
12074TIP3    H236168   2.370   6.647   6.203
12075TIP3   OH236169   2.256   6.255   6.436
12075TIP3    H136170   2.292   6.219   6.355
12075TIP3    H236171   2.305   6.336   6.450
12076TIP3   OH236172   2.811   6.895   6.213
12076TIP3    H136173   2.798   6.972   6.268
12076TIP3    H236174   2.795   6.821   6.272
12077TIP3   OH236175   2.431   6.792   6.755
12077TIP3    H136176   2.370   6.851   6.799
12077TIP3    H236177   2.376   6.740   6.697
12078TIP3   OH236178   2.761   6.140   5.486
12078TIP3    H136179   2.819   6.199   5.533
12078TIP3    H236180   2.787   6.148   5.394
12079TIP3   OH236181   2.187   6.341   6.897
12079TIP3    H136182   2.189   6.435   6.916
12079TIP3    H236183   2.094   6.321   6.884
12080TIP3   OH236184   2.508   6.805   5.755
12080TIP3    H136185   2.585   6.861   5.751
12080TIP3    H236186   2.444   6.847   5.698
12081TIP3   OH236187   2.225   6.953   6.837
12081TIP3    H136188   2.194   6.960   6.747
12081TIP3    H236189   2.146   6.936   6.889
12082TIP3   OH236190   3.274   5.369   5.546
12082TIP3    H136191   3.195   5.389   5.596
12082TIP3    H236192   3.285   5.445   5.488
12083TIP3   OH236193   2.010   6.142   5.859
12083TIP3    H136194   1.957   6.202   5.806
12083TIP3    H236195   1.957   6.062   5.863
12084TIP3   OH236196   3.091   6.743   5.099
12084TIP3    H136197   3.089   6.837   5.078
12084TIP3    H236198   3.181   6.716   5.077
12085TIP3   OH236199   1.819   6.507   6.779
12085TIP3    H136200   1.748   6.491   6.716
12085TIP3    H236201   1.852   6.419   6.799
12086TIP3   OH236202   1.670   6.699   6.422
12086TIP3    H136203   1.765   6.713   6.426
12086TIP3    H236204   1.633   6.780   6.459
12087TIP3   OH236205   3.514   7.159   6.488
12087TIP3    H136206   3.521   7.064   6.498
12087TIP3    H236207   3.434   7.182   6.535
12088TIP3   OH236208   2.619   6.935   6.615
12088TIP3    H136209   2.610   7.026   6.644
12088TIP3    H236210   2.552   6.888   6.664
12089TIP3   OH236211   2.397   7.046   5.567
12089TIP3    H136212   2.337   7.017   5.498
12089TIP3    H236213   2.358   7.128   5.599
12090TIP3   OH236214   1.835   6.902   5.953
12090TIP3    H136215   1.883   6.891   6.035
12090TIP3    H236216   1.788   6.819   5.942
12091TIP3   OH236217   2.592   6.964   5.198
12091TIP3    H136218   2.644   6.891   5.164
12091TIP3    H236219   2.626   6.977   5.287
12092TIP3   OH236220   2.648   7.011   5.466
12092TIP3    H136221   2.561   7.018   5.505
12092TIP3    H236222   2.702   6.970   5.534
12093TIP3   OH236223   3.401   6.269   6.759
12093TIP3    H136224   3.320   6.278   6.710
12093TIP3    H236225   3.421   6.175   6.758
12094TIP3   OH236226   2.016   6.696   6.762
12094TIP3    H136227   2.062   6.684   6.845
12094TIP3    H236228   1.944   6.633   6.764
12095TIP3   OH236229   2.396   5.501   6.572
12095TIP3    H136230   2.312   5.469   6.539
12095TIP3    H236231   2.375   5.582   6.618
12096TIP3   OH236232   2.937   5.622   6.770
12096TIP3    H136233   3.007   5.597   6.830
12096TIP3    H236234   2.856   5.605   6.817
12097TIP3   OH236235   3.161   6.046   6.688
12097TIP3    H136236   3.120   6.043   6.774
12097TIP3    H236237   3.145   6.135   6.656
12098TIP3   OH236238   2.839   6.139   5.225
12098TIP3    H136239   2.795   6.134   5.140
12098TIP3    H236240   2.922   6.183   5.207
12099TIP3   OH236241   2.542   5.547   5.538
12099TIP3    H136242   2.506   5.553   5.626
12099TIP3    H236243   2.509   5.464   5.504
12100TIP3   OH236244   2.336   6.033   6.582
12100TIP3    H136245   2.289   6.041   6.665
12100TIP3    H236246   2.315   6.114   6.535
12101TIP3   OH236247   2.215   5.914   6.100
12101TIP3    H136248   2.125   5.893   6.124
12101TIP3    H236249   2.225   5.882   6.011
12102TIP3   OH236250   2.700   5.983   5.831
12102TIP3    H136251   2.654   6.056   5.792
12102TIP3    H236252   2.757   5.950   5.762
12103TIP3   OH236253   2.881   6.257   6.903
12103TIP3    H136254   2.854   6.188   6.964
12103TIP3    H236255   2.973   6.272   6.923
12104TIP3   OH236256   2.866   6.003   6.054
12104TIP3    H136257   2.797   6.024   5.991
12104TIP3    H236258   2.913   5.929   6.016
12105TIP3   OH236259   2.172   6.048   6.803
12105TIP3    H136260   2.190   6.111   6.873
12105TIP3    H236261   2.154   5.966   6.848
12106TIP3   OH236262   2.207   5.525   5.515
12106TIP3    H136263   2.199   5.531   5.610
12106TIP3    H236264   2.133   5.576   5.481
12107TIP3   OH236265   1.770   5.568   6.384
12107TIP3    H136266   1.832   5.606   6.446
12107TIP3    H236267   1.811   5.581   6.298
12108TIP3   OH236268   1.666   5.561   5.887
12108TIP3    H136269   1.709   5.596   5.809
12108TIP3    H236270   1.606   5.631   5.914
12109TIP3   OH236271   2.903   6.256   6.481
12109TIP3    H136272   2.929   6.189   6.417
12109TIP3    H236273   2.859   6.207   6.551
12110TIP3   OH236274   2.579   5.704   6.154
12110TIP3    H136275   2.502   5.705   6.210
12110TIP3    H236276   2.653   5.696   6.215
12111TIP3   OH236277   1.976   5.787   6.164
12111TIP3    H136278   1.889   5.791   6.124
12111TIP3    H236279   2.008   5.699   6.141
12112TIP3   OH236280   2.230   5.786   5.857
12112TIP3    H136281   2.324   5.799   5.845
12112TIP3    H236282   2.191   5.807   5.772
12113TIP3   OH236283   3.033   5.793   6.364
12113TIP3    H136284   3.011   5.811   6.455
12113TIP3    H236285   2.967   5.732   6.334
12114TIP3   OH236286   2.113   5.809   5.610
12114TIP3    H136287   2.046   5.768   5.557
12114TIP3    H236288   2.169   5.856   5.547
12115TIP3   OH236289   3.225   7.495   6.583
12115TIP3    H136290   3.221   7.509   6.488
12115TIP3    H236291   3.305   7.540   6.610
12116TIP3   OH236292   7.835   2.597   0.058
12116TIP3    H136293   7.916   2.620   0.103
12116TIP3    H236294   7.768   2.599   0.127
12117TIP3   OH236295   2.629   6.074   6.259
12117TIP3    H136296   2.694   6.025   6.209
12117TIP3    H236297   2.627   6.032   6.345
12118TIP3   OH236298   2.122   5.541   6.146
12118TIP3    H136299   2.095   5.464   6.196
12118TIP3    H236300   2.152   5.506   6.062
12119TIP3   OH236301   2.601   5.974   6.525
12119TIP3    H136302   2.514   6.006   6.548
12119TIP3    H236303   2.660   6.027   6.578
12120TIP3   OH236304   2.361   6.346   5.654
12120TIP3    H136305   2.290   6.285   5.633
12120TIP3    H236306   2.334   6.386   5.737
12121TIP3   OH236307   3.226   6.585   6.246
12121TIP3    H136308   3.261   6.633   6.171
12121TIP3    H236309   3.147   6.544   6.214
12122TIP3   OH236310   2.798   5.644   5.542
12122TIP3    H136311   2.705   5.624   5.536
12122TIP3    H236312   2.802   5.739   5.552
12123TIP3   OH236313   2.745   6.669   6.650
12123TIP3    H136314   2.794   6.658   6.732
12123TIP3    H236315   2.703   6.754   6.658
12124TIP3   OH236316   2.859   5.909   5.611
12124TIP3    H136317   2.955   5.914   5.619
12124TIP3    H236318   2.836   5.986   5.560
12125TIP3   OH236319   2.027   6.359   6.295
12125TIP3    H136320   2.061   6.339   6.208
12125TIP3    H236321   2.093   6.323   6.355
12126TIP3   OH236322   2.493   6.500   5.475
12126TIP3    H136323   2.444   6.582   5.477
12126TIP3    H236324   2.444   6.442   5.534
12127TIP3   OH236325   1.914   6.272   6.909
12127TIP3    H136326   1.919   6.236   6.997
12127TIP3    H236327   1.842   6.225   6.868
12128TIP3   OH236328   2.648   6.411   6.943
12128TIP3    H136329   2.580   6.351   6.912
12128TIP3    H236330   2.730   6.371   6.913
12129TIP3   OH236331   2.889   6.956   6.536
12129TIP3    H136332   2.795   6.941   6.543
12129TIP3    H236333   2.913   6.994   6.621
12130TIP3   OH236334   3.279   6.001   5.432
12130TIP3    H136335   3.221   5.955   5.370
12130TIP3    H236336   3.284   6.090   5.398
12131TIP3   OH236337   3.529   6.882   6.510
12131TIP3    H136338   3.436   6.862   6.510
12131TIP3    H236339   3.561   6.847   6.426
12132TIP3   OH236340   3.015   6.814   5.365
12132TIP3    H136341   2.986   6.745   5.425
12132TIP3    H236342   3.032   6.768   5.283
12133TIP3   OH236343   2.997   6.450   6.144
12133TIP3    H136344   2.907   6.428   6.167
12133TIP3    H236345   3.033   6.370   6.105
12134TIP3   OH236346   2.140   6.681   5.949
12134TIP3    H136347   2.138   6.758   5.892
12134TIP3    H236348   2.051   6.647   5.945
12135TIP3   OH236349   1.702   5.975   5.653
12135TIP3    H136350   1.741   6.062   5.650
12135TIP3    H236351   1.628   5.984   5.713
12136TIP3   OH236352   2.278   6.447   5.893
12136TIP3    H136353   2.240   6.534   5.905
12136TIP3    H236354   2.232   6.392   5.956
12137TIP3   OH236355   2.431   7.008   6.410
12137TIP3    H136356   2.468   7.081   6.359
12137TIP3    H236357   2.506   6.973   6.459
12138TIP3   OH236358   2.062   6.911   5.797
12138TIP3    H136359   1.977   6.914   5.841
12138TIP3    H236360   2.096   7.000   5.803
12139TIP3   OH236361   2.782   6.669   6.377
12139TIP3    H136362   2.772   6.664   6.472
12139TIP3    H236363   2.850   6.605   6.356
12140TIP3   OH236364   2.771   6.552   5.255
12140TIP3    H136365   2.826   6.526   5.329
12140TIP3    H236366   2.687   6.510   5.271
12141TIP3   OH236367   3.043   7.170   6.422
12141TIP3    H136368   2.972   7.108   6.438
12141TIP3    H236369   3.010   7.226   6.351
12142TIP3   OH236370   3.094   7.018   5.060
12142TIP3    H136371   3.120   7.083   4.995
12142TIP3    H236372   3.020   7.057   5.106
12143TIP3   OH236373   7.788   1.787  -0.017
12143TIP3    H136374   7.693   1.794  -0.012
12143TIP3    H236375   7.811   1.731   0.057
12144TIP3   OH236376   2.952   6.473   5.445
12144TIP3    H136377   2.934   6.417   5.521
12144TIP3    H236378   3.047   6.477   5.440
12145TIP3   OH236379   1.858   6.903   6.569
12145TIP3    H136380   1.910   6.840   6.619
12145TIP3    H236381   1.872   6.986   6.614
12146TIP3   OH236382   2.131   6.519   5.278
12146TIP3    H136383   2.145   6.430   5.244
12146TIP3    H236384   2.120   6.507   5.372
12147TIP3   OH236385   2.967   5.856   6.624
12147TIP3    H136386   3.046   5.899   6.656
12147TIP3    H236387   2.958   5.778   6.679
12148TIP3   OH236388   2.857   5.597   5.810
12148TIP3    H136389   2.836   5.614   5.719
12148TIP3    H236390   2.900   5.677   5.840
12149TIP3   OH236391   2.348   6.729   5.479
12149TIP3    H136392   2.259   6.741   5.511
12149TIP3    H236393   2.361   6.801   5.416
12150TIP3   OH236394   2.510   5.794   5.900
12150TIP3    H136395   2.573   5.862   5.873
12150TIP3    H236396   2.533   5.776   5.991
12151TIP3   OH236397   2.805   6.090   6.678
12151TIP3    H136398   2.832   6.133   6.760
12151TIP3    H236399   2.856   6.009   6.676
12152TIP3   OH236400   2.669   5.494   5.986
12152TIP3    H136401   2.646   5.572   6.038
12152TIP3    H236402   2.738   5.524   5.927
12153TIP3   OH236403   2.098   6.821   5.536
12153TIP3    H136404   2.069   6.897   5.486
12153TIP3    H236405   2.079   6.845   5.627
12154TIP3   OH236406   2.180   5.515   5.796
12154TIP3    H136407   2.171   5.606   5.822
12154TIP3    H236408   2.275   5.498   5.799
12155TIP3   OH236409   3.426   5.994   6.671
12155TIP3    H136410   3.331   6.001   6.682
12155TIP3    H236411   3.437   5.940   6.592
12156TIP3   OH236412   3.088   6.193   6.054
12156TIP3    H136413   3.011   6.137   6.064
12156TIP3    H236414   3.155   6.152   6.108
12157TIP3   OH236415   1.733   5.700   5.661
12157TIP3    H136416   1.745   5.794   5.674
12157TIP3    H236417   1.693   5.693   5.574
12158TIP3   OH236418   3.068   7.170   5.998
12158TIP3    H136419   3.025   7.221   5.929
12158TIP3    H236420   3.161   7.183   5.982
12159TIP3   OH236421   2.132   5.418   6.534
12159TIP3    H136422   2.104   5.386   6.448
12159TIP3    H236423   2.123   5.342   6.592
12160TIP3   OH236424   1.681   6.673   5.922
12160TIP3    H136425   1.616   6.696   5.989
12160TIP3    H236426   1.641   6.702   5.839
12161TIP3   OH236427   7.535   3.191   0.021
12161TIP3    H136428   7.622   3.174   0.058
12161TIP3    H236429   7.492   3.106   0.019
12162TIP3   OH236430   8.017   3.106   0.080
12162TIP3    H136431   8.104   3.068   0.092
12162TIP3    H236432   7.977   3.053   0.010
12163TIP3   OH236433   2.286   6.710   5.157
12163TIP3    H136434   2.238   6.644   5.205
12163TIP3    H236435   2.361   6.664   5.120
12164TIP3   OH236436   2.945   7.059   6.785
12164TIP3    H136437   2.955   6.988   6.848
12164TIP3    H236438   3.021   7.116   6.800
12165TIP3   OH236439   2.727   6.757   5.079
12165TIP3    H136440   2.755   6.692   5.143
12165TIP3    H236441   2.788   6.748   5.006
12166TIP3   OH236442   7.634   2.568   0.257
12166TIP3    H136443   7.657   2.476   0.242
12166TIP3    H236444   7.565   2.586   0.193
12167TIP3   OH236445   1.915   6.218   5.370
12167TIP3    H136446   1.886   6.236   5.459
12167TIP3    H236447   2.011   6.224   5.374
12168TIP3   OH236448   2.580   6.686   6.962
12168TIP3    H136449   2.537   6.709   6.880
12168TIP3    H236450   2.615   6.599   6.948
12169TIP3   OH236451   2.503   6.437   5.208
12169TIP3    H136452   2.487   6.448   5.301
12169TIP3    H236453   2.490   6.344   5.192
12170TIP3   OH236454   3.061   6.732   6.580
12170TIP3    H136455   3.138   6.759   6.530
12170TIP3    H236456   2.994   6.797   6.559
12171TIP3   OH236457   7.762   2.328   0.240
12171TIP3    H136458   7.833   2.310   0.178
12171TIP3    H236459   7.807   2.346   0.323
12172TIP3   OH236460   2.174   6.158   5.604
12172TIP3    H136461   2.109   6.133   5.670
12172TIP3    H236462   2.191   6.077   5.555
12173TIP3   OH236463   2.440   6.230   6.848
12173TIP3    H136464   2.355   6.274   6.857
12173TIP3    H236465   2.473   6.259   6.763
12174TIP3   OH236466   2.265   5.952   5.433
12174TIP3    H136467   2.234   5.964   5.343
12174TIP3    H236468   2.360   5.964   5.428
12175TIP3   OH236469   0.106   2.600  -0.005
12175TIP3    H136470   0.174   2.562  -0.060
12175TIP3    H236471   0.103   2.545   0.073
12176TIP3   OH236472   3.062   6.262   5.113
12176TIP3    H136473   3.049   6.220   5.029
12176TIP3    H236474   3.034   6.353   5.099
12177TIP3   OH236475   2.542   6.000   6.956
12177TIP3    H136476   2.545   5.929   6.892
12177TIP3    H236477   2.508   6.075   6.907
12178TIP3   OH236478   2.551   5.801   6.754
12178TIP3    H136479   2.579   5.838   6.670
12178TIP3    H236480   2.460   5.775   6.739
12179TIP3   OH236481   2.558   6.331   6.626
12179TIP3    H136482   2.647   6.360   6.607
12179TIP3    H236483   2.502   6.391   6.577
12180TIP3   OH236484   0.316   2.281   0.061
12180TIP3    H136485   0.353   2.193   0.068
12180TIP3    H236486   0.390   2.338   0.043
12181TIP3   OH236487   3.180   6.553   6.744
12181TIP3    H136488   3.128   6.615   6.694
12181TIP3    H236489   3.270   6.566   6.713
12182TIP3   OH236490   8.092   2.081   0.256
12182TIP3    H136491   8.022   2.019   0.277
12182TIP3    H236492   8.121   2.056   0.168
12183TIP3   OH236493   2.673   5.569   6.852
12183TIP3    H136494   2.632   5.649   6.819
12183TIP3    H236495   2.607   5.501   6.838
12184TIP3   OH236496   8.465   2.036   0.115
12184TIP3    H136497   8.456   2.024   0.209
12184TIP3    H236498   8.379   2.015   0.079
12185TIP3   OH236499   0.213   1.996  -0.013
12185TIP3    H136500   0.134   1.993   0.041
12185TIP3    H236501   0.283   1.967   0.046
12186TIP3   OH236502   0.446   1.951   0.136
12186TIP3    H136503   0.461   1.857   0.143
12186TIP3    H236504   0.442   1.982   0.227
12187TIP3   OH236505   7.930   1.855   0.319
12187TIP3    H136506   7.936   1.768   0.280
12187TIP3    H236507   7.974   1.847   0.403
12188TIP3   OH236508   8.407   1.543   0.177
12188TIP3    H136509   8.476   1.477   0.172
12188TIP3    H236510   8.377   1.553   0.086
12189TIP3   OH236511   8.501   1.758   0.321
12189TIP3    H136512   8.471   1.686   0.265
12189TIP3    H236513   8.428   1.820   0.321
12190TIP3   OH236514   2.088   7.044   5.364
12190TIP3    H136515   2.172   7.009   5.335
12190TIP3    H236516   2.048   7.081   5.285
12191TIP3   OH236517   1.562   6.389   5.500
12191TIP3    H136518   1.639   6.379   5.555
12191TIP3    H236519   1.541   6.299   5.472
12192TIP3   OH236520   1.456   6.984   5.998
12192TIP3    H136521   1.394   6.927   5.953
12192TIP3    H236522   1.501   6.927   6.060
12193TIP3   OH236523   1.595   6.827   6.174
12193TIP3    H136524   1.588   6.755   6.238
12193TIP3    H236525   1.651   6.892   6.217
12194TIP3   OH236526   3.337   7.228   5.983
12194TIP3    H136527   3.362   7.253   6.071
12194TIP3    H236528   3.402   7.269   5.926
12195TIP3   OH236529   3.362   7.249   6.265
12195TIP3    H136530   3.313   7.168   6.257
12195TIP3    H236531   3.430   7.230   6.330
12196TIP3   OH236532   3.401   6.947   6.836
12196TIP3    H136533   3.330   6.955   6.900
12196TIP3    H236534   3.448   7.030   6.843
12197TIP3   OH236535   3.231   6.466   5.446
12197TIP3    H136536   3.291   6.535   5.417
12197TIP3    H236537   3.273   6.427   5.522
12198TIP3   OH236538   3.353   6.322   5.649
12198TIP3    H136539   3.284   6.282   5.702
12198TIP3    H236540   3.417   6.355   5.712
12199TIP3   OH236541   3.405   6.722   6.080
12199TIP3    H136542   3.458   6.651   6.042
12199TIP3    H236543   3.406   6.791   6.014
12200TIP3   OH236544   3.217   7.011   6.273
12200TIP3    H136545   3.150   7.056   6.324
12200TIP3    H236546   3.169   6.970   6.201
12201TIP3   OH236547   3.269   6.240   5.293
12201TIP3    H136548   3.198   6.239   5.229
12201TIP3    H236549   3.252   6.318   5.347
12202TIP3   OH236550   3.123   5.895   5.235
12202TIP3    H136551   3.081   5.929   5.156
12202TIP3    H236552   3.111   5.800   5.229
12203TIP3   OH236553   3.152   6.182   5.783
12203TIP3    H136554   3.156   6.088   5.769
12203TIP3    H236555   3.134   6.191   5.877
12204TIP3   OH236556   1.779   6.243   6.554
12204TIP3    H136557   1.769   6.212   6.464
12204TIP3    H236558   1.873   6.242   6.570
12205TIP3   OH236559   3.436   6.599   6.645
12205TIP3    H136560   3.504   6.533   6.631
12205TIP3    H236561   3.440   6.656   6.568
12206TIP3   OH236562   3.616   6.391   6.640
12206TIP3    H136563   3.541   6.349   6.683
12206TIP3    H236564   3.690   6.334   6.660
12207TIP3   OH236565   3.078   5.627   5.216
12207TIP3    H136566   3.147   5.592   5.274
12207TIP3    H236567   3.000   5.577   5.241
12208TIP3   OH236568   3.150   5.907   5.670
12208TIP3    H136569   3.195   5.823   5.683
12208TIP3    H236570   3.193   5.946   5.594
12209TIP3   OH236571   3.303   6.071   6.193
12209TIP3    H136572   3.384   6.088   6.144
12209TIP3    H236573   3.318   6.110   6.279
12210TIP3   OH236574   3.379   6.221   6.421
12210TIP3    H136575   3.305   6.250   6.474
12210TIP3    H236576   3.410   6.300   6.377
12211TIP3   OH236577   7.666   1.912   0.266
12211TIP3    H136578   7.760   1.910   0.283
12211TIP3    H236579   7.634   1.828   0.300
12212TIP3   OH236580   3.838   5.820   6.958
12212TIP3    H136581   3.903   5.762   6.917
12212TIP3    H236582   3.800   5.869   6.886
12213TIP3   OH236583   3.263   5.657   5.724
12213TIP3    H136584   3.307   5.641   5.807
12213TIP3    H236585   3.201   5.585   5.714
12214TIP3   OH236586   1.969   5.642   6.563
12214TIP3    H136587   2.023   5.564   6.563
12214TIP3    H236588   2.029   5.713   6.541
12215TIP3   OH236589   1.752   5.908   6.606
12215TIP3    H136590   1.806   5.899   6.528
12215TIP3    H236591   1.769   5.996   6.638
12216TIP3   OH236592   3.687   5.933   6.760
12216TIP3    H136593   3.602   5.974   6.779
12216TIP3    H236594   3.666   5.856   6.708
12217TIP3   OH236595   3.315   5.570   5.361
12217TIP3    H136596   3.359   5.509   5.301
12217TIP3    H236597   3.371   5.647   5.363
12218TIP3   OH236598   1.736   5.399   6.098
12218TIP3    H136599   1.657   5.400   6.151
12218TIP3    H236600   1.722   5.468   6.032
12219TIP3   OH236601   2.899   7.136   5.626
12219TIP3    H136602   2.954   7.120   5.549
12219TIP3    H236603   2.948   7.203   5.676
12220TIP3   OH236604   7.635   1.475  -0.000
12220TIP3    H136605   7.579   1.459   0.076
12220TIP3    H236606   7.577   1.519  -0.063
12221TIP3   OH236607   7.680   2.914   0.069
12221TIP3    H136608   7.587   2.908   0.044
12221TIP3    H236609   7.681   2.889   0.162
12222TIP3   OH236610   2.202   6.969   6.556
12222TIP3    H136611   2.150   7.042   6.523
12222TIP3    H236612   2.287   6.978   6.513
12223TIP3   OH236613   2.603   7.201   6.696
12223TIP3    H136614   2.642   7.193   6.783
12223TIP3    H236615   2.666   7.255   6.647
12224TIP3   OH236616   2.791   7.355   6.566
12224TIP3    H136617   2.850   7.301   6.513
12224TIP3    H236618   2.850   7.408   6.620
12225TIP3   OH236619   3.599   5.685   6.656
12225TIP3    H136620   3.511   5.678   6.621
12225TIP3    H236621   3.635   5.597   6.650
12226TIP3   OH236622   1.866   7.211   6.593
12226TIP3    H136623   1.776   7.228   6.563
12226TIP3    H236624   1.884   7.281   6.655
12227TIP3   OH236625   2.098   7.200   6.449
12227TIP3    H136626   2.015   7.204   6.496
12227TIP3    H236627   2.076   7.223   6.359
12228TIP3   OH236628   2.511   7.216   6.244
12228TIP3    H136629   2.440   7.226   6.181
12228TIP3    H236630   2.520   7.303   6.284
12229TIP3   OH236631   2.777   7.162   6.299
12229TIP3    H136632   2.685   7.175   6.277
12229TIP3    H236633   2.824   7.226   6.246
12230TIP3   OH236634   2.984   7.338   6.200
12230TIP3    H136635   2.976   7.423   6.156
12230TIP3    H236636   3.012   7.278   6.131
12231TIP3   OH236637   1.782   7.000   6.320
12231TIP3    H136638   1.806   6.976   6.410
12231TIP3    H236639   1.852   6.964   6.266
12232TIP3   OH236640   1.982   6.881   6.185
12232TIP3    H136641   1.991   6.796   6.227
12232TIP3    H236642   2.070   6.918   6.185
12233TIP3   OH236643   2.250   6.966   6.201
12233TIP3    H136644   2.266   6.873   6.184
12233TIP3    H236645   2.302   6.985   6.279
12234TIP3   OH236646   2.810   5.614   6.292
12234TIP3    H136647   2.770   5.541   6.339
12234TIP3    H236648   2.879   5.574   6.238
12235TIP3   OH236649   3.314   5.525   6.188
12235TIP3    H136650   3.348   5.573   6.113
12235TIP3    H236651   3.220   5.542   6.186
12236TIP3   OH236652   3.420   5.601   5.947
12236TIP3    H136653   3.488   5.544   5.911
12236TIP3    H236654   3.455   5.690   5.935
12237TIP3   OH236655   2.049   5.312   6.290
12237TIP3    H136656   1.959   5.279   6.301
12237TIP3    H236657   2.103   5.234   6.286
12238TIP3   OH236658   1.806   5.212   5.907
12238TIP3    H136659   1.867   5.251   5.843
12238TIP3    H236660   1.803   5.276   5.978
12239TIP3   OH236661   2.519   5.355   6.184
12239TIP3    H136662   2.567   5.399   6.114
12239TIP3    H236663   2.563   5.382   6.265
12240TIP3   OH236664   3.027   5.501   6.161
12240TIP3    H136665   3.034   5.468   6.071
12240TIP3    H236666   3.029   5.422   6.215
12241TIP3   OH236667   3.079   5.445   5.728
12241TIP3    H136668   2.997   5.491   5.750
12241TIP3    H236669   3.067   5.357   5.764
12242TIP3   OH236670   1.560   6.778   5.698
12242TIP3    H136671   1.478   6.734   5.675
12242TIP3    H236672   1.545   6.870   5.674
12243TIP3   OH236673   1.970   5.344   5.711
12243TIP3    H136674   2.017   5.285   5.651
12243TIP3    H236675   2.037   5.402   5.745
12244TIP3   OH236676   2.456   5.544   5.802
12244TIP3    H136677   2.516   5.491   5.854
12244TIP3    H236678   2.473   5.634   5.830
12245TIP3   OH236679   2.332   6.943   5.290
12245TIP3    H136680   2.419   6.967   5.257
12245TIP3    H236681   2.307   6.866   5.238
12246TIP3   OH236682   3.049   7.083   5.397
12246TIP3    H136683   3.042   6.987   5.392
12246TIP3    H236684   3.004   7.115   5.319
12247TIP3   OH236685   7.941   1.586   0.232
12247TIP3    H136686   7.907   1.519   0.291
12247TIP3    H236687   8.034   1.594   0.255
12248TIP3   OH236688   8.191   1.592   0.351
12248TIP3    H136689   8.268   1.572   0.298
12248TIP3    H236690   8.187   1.522   0.416
12249TIP3   OH236691   1.645   6.792   5.366
12249TIP3    H136692   1.643   6.776   5.460
12249TIP3    H236693   1.723   6.745   5.336
12250TIP3   OH236694   0.511   1.680   0.143
12250TIP3    H136695   0.527   1.651   0.232
12250TIP3    H236696   0.597   1.675   0.100
12251TIP3   OH236697   3.264   7.222   6.586
12251TIP3    H136698   3.189   7.190   6.535
12251TIP3    H236699   3.249   7.316   6.596
12252TIP3   OH236700   4.539   6.612   5.331
12252TIP3    H136701   4.505   6.697   5.306
12252TIP3    H236702   4.471   6.550   5.305
12253TIP3   OH236703   4.538   6.604   5.755
12253TIP3    H136704   4.591   6.580   5.831
12253TIP3    H236705   4.494   6.522   5.730
12254TIP3   OH236706   3.836   6.467   6.098
12254TIP3    H136707   3.873   6.413   6.168
12254TIP3    H236708   3.912   6.489   6.043
12255TIP3   OH236709   4.806   6.908   5.424
12255TIP3    H136710   4.786   6.841   5.489
12255TIP3    H236711   4.822   6.987   5.476
12256TIP3   OH236712   3.825   6.901   5.796
12256TIP3    H136713   3.809   6.807   5.798
12256TIP3    H236714   3.919   6.909   5.783
12257TIP3   OH236715   3.511   6.099   5.572
12257TIP3    H136716   3.469   6.181   5.595
12257TIP3    H236717   3.442   6.047   5.531
12258TIP3   OH236718   3.582   6.397   5.792
12258TIP3    H136719   3.631   6.319   5.818
12258TIP3    H236720   3.645   6.452   5.747
12259TIP3   OH236721   4.460   7.342   5.435
12259TIP3    H136722   4.487   7.278   5.368
12259TIP3    H236723   4.456   7.291   5.516
12260TIP3   OH236724   4.338   6.826   5.756
12260TIP3    H136725   4.380   6.746   5.726
12260TIP3    H236726   4.411   6.882   5.785
12261TIP3   OH236727   5.360   6.138   5.756
12261TIP3    H136728   5.384   6.222   5.797
12261TIP3    H236729   5.398   6.143   5.668
12262TIP3   OH236730   4.756   6.311   5.793
12262TIP3    H136731   4.799   6.229   5.817
12262TIP3    H236732   4.719   6.294   5.707
12263TIP3   OH236733   4.104   5.973   5.754
12263TIP3    H136734   4.086   6.046   5.695
12263TIP3    H236735   4.053   5.900   5.720
12264TIP3   OH236736   4.799   6.075   5.381
12264TIP3    H136737   4.865   6.070   5.450
12264TIP3    H236738   4.847   6.106   5.304
12265TIP3   OH236739   3.729   6.181   5.880
12265TIP3    H136740   3.813   6.164   5.924
12265TIP3    H236741   3.733   6.130   5.799
12266TIP3   OH236742   4.151   6.384   5.699
12266TIP3    H136743   4.245   6.369   5.703
12266TIP3    H236744   4.115   6.303   5.663
12267TIP3   OH236745   5.423   6.354   5.925
12267TIP3    H136746   5.340   6.401   5.915
12267TIP3    H236747   5.427   6.331   6.018
12268TIP3   OH236748   4.086   5.971   6.203
12268TIP3    H136749   4.035   6.005   6.130
12268TIP3    H236750   4.032   5.987   6.281
12269TIP3   OH236751   4.413   6.821   5.206
12269TIP3    H136752   4.383   6.800   5.118
12269TIP3    H236753   4.368   6.902   5.228
12270TIP3   OH236754   4.184   6.749   5.972
12270TIP3    H136755   4.129   6.819   6.006
12270TIP3    H236756   4.230   6.788   5.898
12271TIP3   OH236757   4.971   6.103   5.589
12271TIP3    H136758   4.964   6.052   5.670
12271TIP3    H236759   5.027   6.177   5.612
12272TIP3   OH236760   3.975   6.081   5.975
12272TIP3    H136761   4.032   6.155   5.998
12272TIP3    H236762   4.020   6.038   5.902
12273TIP3   OH236763   4.026   6.951   6.077
12273TIP3    H136764   4.009   7.040   6.044
12273TIP3    H236765   3.948   6.929   6.128
12274TIP3   OH236766   3.406   6.653   5.328
12274TIP3    H136767   3.369   6.669   5.242
12274TIP3    H236768   3.429   6.740   5.361
12275TIP3   OH236769   4.847   7.154   5.571
12275TIP3    H136770   4.760   7.148   5.610
12275TIP3    H236771   4.845   7.236   5.521
12276TIP3   OH236772   5.152   6.066   5.936
12276TIP3    H136773   5.065   6.071   5.896
12276TIP3    H236774   5.213   6.077   5.864
12277TIP3   OH236775   4.434   5.668   5.924
12277TIP3    H136776   4.429   5.576   5.951
12277TIP3    H236777   4.357   5.709   5.965
12278TIP3   OH236778   4.548   7.189   5.218
12278TIP3    H136779   4.598   7.109   5.208
12278TIP3    H236780   4.607   7.259   5.190
12279TIP3   OH236781   4.703   6.971   5.173
12279TIP3    H136782   4.692   6.891   5.121
12279TIP3    H236783   4.742   6.941   5.255
12280TIP3   OH236784   5.087   7.035   5.893
12280TIP3    H136785   5.064   6.964   5.834
12280TIP3    H236786   5.066   7.115   5.845
12281TIP3   OH236787   4.366   6.451   5.181
12281TIP3    H136788   4.284   6.497   5.160
12281TIP3    H236789   4.412   6.447   5.097
12282TIP3   OH236790   4.335   6.255   4.872
12282TIP3    H136791   4.401   6.303   4.922
12282TIP3    H236792   4.385   6.188   4.825
12283TIP3   OH236793   5.252   6.722   5.771
12283TIP3    H136794   5.166   6.760   5.755
12283TIP3    H236795   5.293   6.717   5.685
12284TIP3   OH236796   4.723   6.544   5.139
12284TIP3    H136797   4.669   6.569   5.214
12284TIP3    H236798   4.804   6.512   5.178
12285TIP3   OH236799   4.953   6.573   6.080
12285TIP3    H136800   4.942   6.652   6.133
12285TIP3    H236801   4.871   6.566   6.031
12286TIP3   OH236802   3.950   6.518   5.550
12286TIP3    H136803   3.913   6.459   5.485
12286TIP3    H236804   4.023   6.469   5.589
12287TIP3   OH236805   4.085   6.946   5.688
12287TIP3    H136806   4.059   6.928   5.598
12287TIP3    H236807   4.171   6.905   5.697
12288TIP3   OH236808   4.052   6.512   5.924
12288TIP3    H136809   4.090   6.475   5.844
12288TIP3    H236810   4.103   6.592   5.939
12289TIP3   OH236811   4.609   7.152   5.701
12289TIP3    H136812   4.595   7.229   5.756
12289TIP3    H236813   4.594   7.078   5.759
12290TIP3   OH236814   4.223   7.051   6.242
12290TIP3    H136815   4.163   7.109   6.289
12290TIP3    H236816   4.167   6.999   6.185
12291TIP3   OH236817   4.554   6.401   4.975
12291TIP3    H136818   4.614   6.457   5.024
12291TIP3    H236819   4.580   6.411   4.884
12292TIP3   OH236820   3.978   6.601   6.383
12292TIP3    H136821   3.980   6.694   6.403
12292TIP3    H236822   3.884   6.580   6.376
12293TIP3   OH236823   4.297   7.075   5.235
12293TIP3    H136824   4.382   7.118   5.236
12293TIP3    H236825   4.241   7.131   5.181
12294TIP3   OH236826   4.013   7.211   6.328
12294TIP3    H136827   3.987   7.218   6.236
12294TIP3    H236828   3.932   7.194   6.375
12295TIP3   OH236829   5.067   5.626   5.029
12295TIP3    H136830   4.989   5.645   5.080
12295TIP3    H236831   5.077   5.702   4.971
12296TIP3   OH236832   3.826   6.362   5.350
12296TIP3    H136833   3.748   6.406   5.315
12296TIP3    H236834   3.798   6.271   5.361
12297TIP3   OH236835   4.889   7.001   4.584
12297TIP3    H136836   4.887   7.094   4.563
12297TIP3    H236837   4.979   6.974   4.563
12298TIP3   OH236838   3.606   6.765   6.276
12298TIP3    H136839   3.536   6.746   6.212
12298TIP3    H236840   3.640   6.679   6.300
12299TIP3   OH236841   3.463   6.946   5.915
12299TIP3    H136842   3.559   6.950   5.911
12299TIP3    H236843   3.438   7.023   5.966
12300TIP3   OH236844   5.314   7.432   5.971
12300TIP3    H136845   5.318   7.336   5.971
12300TIP3    H236846   5.233   7.452   6.017
12301TIP3   OH236847   4.413   7.192   6.102
12301TIP3    H136848   4.403   7.283   6.130
12301TIP3    H236849   4.345   7.144   6.151
12302TIP3   OH236850   4.192   7.295   5.056
12302TIP3    H136851   4.145   7.274   4.975
12302TIP3    H236852   4.154   7.379   5.084
12303TIP3   OH236853   3.626   7.150   5.437
12303TIP3    H136854   3.670   7.142   5.521
12303TIP3    H236855   3.577   7.069   5.427
12304TIP3   OH236856   4.393   7.223   4.684
12304TIP3    H136857   4.443   7.149   4.649
12304TIP3    H236858   4.428   7.236   4.772
12305TIP3   OH236859   4.446   7.267   4.954
12305TIP3    H136860   4.359   7.272   4.995
12305TIP3    H236861   4.501   7.227   5.021
12306TIP3   OH236862   5.201   6.527   6.230
12306TIP3    H136863   5.118   6.532   6.182
12306TIP3    H236864   5.222   6.433   6.230
12307TIP3   OH236865   3.807   6.950   6.246
12307TIP3    H136866   3.857   6.937   6.326
12307TIP3    H236867   3.735   6.887   6.253
12308TIP3   OH236868   4.196   5.759   6.054
12308TIP3    H136869   4.114   5.729   6.015
12308TIP3    H236870   4.172   5.838   6.103
12309TIP3   OH236871   4.735   5.882   6.257
12309TIP3    H136872   4.807   5.852   6.313
12309TIP3    H236873   4.656   5.860   6.307
12310TIP3   OH236874   4.961   6.310   6.179
12310TIP3    H136875   4.916   6.306   6.263
12310TIP3    H236876   4.940   6.397   6.145
12311TIP3   OH236877   4.633   6.413   4.717
12311TIP3    H136878   4.589   6.397   4.633
12311TIP3    H236879   4.718   6.451   4.693
12312TIP3   OH236880   4.340   5.801   5.025
12312TIP3    H136881   4.304   5.808   5.113
12312TIP3    H236882   4.306   5.719   4.990
12313TIP3   OH236883   4.131   6.289   6.070
12313TIP3    H136884   4.084   6.296   6.154
12313TIP3    H236885   4.110   6.370   6.024
12314TIP3   OH236886   4.011   6.171   5.588
12314TIP3    H136887   3.922   6.145   5.612
12314TIP3    H236888   4.022   6.138   5.499
12315TIP3   OH236889   4.492   6.247   5.317
12315TIP3    H136890   4.444   6.318   5.274
12315TIP3    H236891   4.550   6.213   5.248
12316TIP3   OH236892   4.676   6.515   6.388
12316TIP3    H136893   4.648   6.447   6.449
12316TIP3    H236894   4.770   6.524   6.404
12317TIP3   OH236895   4.660   6.261   5.540
12317TIP3    H136896   4.592   6.281   5.476
12317TIP3    H236897   4.707   6.187   5.503
12318TIP3   OH236898   3.965   6.304   6.289
12318TIP3    H136899   3.986   6.364   6.360
12318TIP3    H236900   3.947   6.221   6.333
12319TIP3   OH236901   4.009   5.785   5.001
12319TIP3    H136902   3.999   5.785   5.096
12319TIP3    H236903   3.930   5.828   4.968
12320TIP3   OH236904   3.548   5.826   5.872
12320TIP3    H136905   3.624   5.861   5.918
12320TIP3    H236906   3.581   5.804   5.785
12321TIP3   OH236907   3.469   5.803   5.375
12321TIP3    H136908   3.515   5.838   5.298
12321TIP3    H236909   3.404   5.871   5.396
12322TIP3   OH236910   4.700   6.511   5.966
12322TIP3    H136911   4.727   6.445   5.902
12322TIP3    H236912   4.658   6.462   6.036
12323TIP3   OH236913   4.376   5.967   5.641
12323TIP3    H136914   4.299   5.963   5.698
12323TIP3    H236915   4.450   5.951   5.698
12324TIP3   OH236916   3.773   6.044   5.647
12324TIP3    H136917   3.684   6.048   5.611
12324TIP3    H236918   3.802   5.955   5.629
12325TIP3   OH236919   4.025   6.049   5.343
12325TIP3    H136920   4.120   6.057   5.331
12325TIP3    H236921   3.989   6.066   5.256
12326TIP3   OH236922   4.845   6.054   5.860
12326TIP3    H136923   4.814   6.072   5.949
12326TIP3    H236924   4.783   5.989   5.826
12327TIP3   OH236925   3.906   6.077   5.096
12327TIP3    H136926   3.844   6.025   5.046
12327TIP3    H236927   3.962   6.118   5.030
12328TIP3   OH236928   5.007   7.746   6.060
12328TIP3    H136929   5.006   7.759   5.965
12328TIP3    H236930   5.081   7.798   6.091
12329TIP3   OH236931   3.962   6.867   6.479
12329TIP3    H136932   4.042   6.885   6.527
12329TIP3    H236933   3.893   6.871   6.545
12330TIP3   OH236934   4.425   6.332   5.746
12330TIP3    H136935   4.488   6.282   5.695
12330TIP3    H236936   4.423   6.289   5.831
12331TIP3   OH236937   3.921   5.799   5.627
12331TIP3    H136938   3.891   5.722   5.676
12331TIP3    H236939   3.949   5.764   5.543
12332TIP3   OH236940   4.397   6.232   6.010
12332TIP3    H136941   4.309   6.261   6.036
12332TIP3    H236942   4.456   6.282   6.065
12333TIP3   OH236943   4.127   6.590   5.122
12333TIP3    H136944   4.055   6.532   5.101
12333TIP3    H236945   4.104   6.628   5.207
12334TIP3   OH236946   5.011   6.843   5.713
12334TIP3    H136947   5.033   6.892   5.633
12334TIP3    H236948   4.932   6.795   5.692
12335TIP3   OH236949   4.594   5.902   5.028
12335TIP3    H136950   4.501   5.880   5.023
12335TIP3    H236951   4.595   5.997   5.038
12336TIP3   OH236952   4.547   6.929   6.134
12336TIP3    H136953   4.585   6.911   6.220
12336TIP3    H236954   4.501   7.012   6.145
12337TIP3   OH236955   4.653   6.168   5.099
12337TIP3    H136956   4.749   6.169   5.105
12337TIP3    H236957   4.632   6.245   5.045
12338TIP3   OH236958   3.830   6.620   5.778
12338TIP3    H136959   3.864   6.594   5.692
12338TIP3    H236960   3.891   6.582   5.841
12339TIP3   OH236961   4.282   6.750   4.964
12339TIP3    H136962   4.235   6.833   4.963
12339TIP3    H236963   4.228   6.691   5.017
12340TIP3   OH236964   3.703   6.536   6.410
12340TIP3    H136965   3.709   6.511   6.502
12340TIP3    H236966   3.630   6.485   6.375
12341TIP3   OH236967   4.444   6.668   6.425
12341TIP3    H136968   4.376   6.608   6.395
12341TIP3    H236969   4.526   6.627   6.398
12342TIP3   OH236970   4.685   7.211   6.020
12342TIP3    H136971   4.591   7.194   6.025
12342TIP3    H236972   4.707   7.249   6.106
12343TIP3   OH236973   5.076   6.256   4.917
12343TIP3    H136974   5.019   6.211   4.855
12343TIP3    H236975   5.081   6.346   4.883
12344TIP3   OH236976   5.313   7.146   6.004
12344TIP3    H136977   5.274   7.162   6.090
12344TIP3    H236978   5.241   7.111   5.952
12345TIP3   OH236979   4.811   7.070   4.847
12345TIP3    H136980   4.784   6.997   4.903
12345TIP3    H236981   4.830   7.029   4.762
12346TIP3   OH236982   4.785   6.703   5.628
12346TIP3    H136983   4.695   6.679   5.652
12346TIP3    H236984   4.822   6.623   5.590
12347TIP3   OH236985   3.944   6.943   5.443
12347TIP3    H136986   3.943   7.019   5.385
12347TIP3    H236987   3.851   6.922   5.456
12348TIP3   OH236988   3.505   6.228   5.151
12348TIP3    H136989   3.549   6.310   5.174
12348TIP3    H236990   3.424   6.228   5.203
12349TIP3   OH236991   4.036   6.697   5.353
12349TIP3    H136992   4.020   6.786   5.383
12349TIP3    H236993   4.009   6.642   5.426
12350TIP3   OH236994   4.225   7.266   5.897
12350TIP3    H136995   4.262   7.338   5.846
12350TIP3    H236996   4.299   7.230   5.946
12351TIP3   OH236997   3.859   7.169   5.290
12351TIP3    H136998   3.773   7.173   5.331
12351TIP3    H236999   3.893   7.258   5.295
12352TIP3   OH237000   4.580   6.925   5.861
12352TIP3    H137001   4.572   6.921   5.956
12352TIP3    H237002   4.639   6.853   5.839
12353TIP3   OH237003   4.574   6.808   4.745
12353TIP3    H137004   4.620   6.789   4.827
12353TIP3    H237005   4.491   6.762   4.753
12354TIP3   OH237006   4.839   7.423   5.906
12354TIP3    H137007   4.768   7.362   5.923
12354TIP3    H237008   4.806   7.480   5.836
12355TIP3   OH237009   4.891   7.275   4.546
12355TIP3    H137010   4.915   7.338   4.478
12355TIP3    H237011   4.817   7.315   4.592
12356TIP3   OH237012   3.917   6.051   6.412
12356TIP3    H137013   3.822   6.057   6.419
12356TIP3    H237014   3.943   5.999   6.488
12357TIP3   OH237015   4.744   6.757   4.963
12357TIP3    H137016   4.727   6.683   5.021
12357TIP3    H237017   4.838   6.752   4.945
12358TIP3   OH237018   3.652   7.151   6.062
12358TIP3    H137019   3.702   7.084   6.108
12358TIP3    H237020   3.670   7.232   6.108
12359TIP3   OH237021   3.921   6.774   4.750
12359TIP3    H137022   3.932   6.683   4.723
12359TIP3    H237023   3.906   6.769   4.844
12360TIP3   OH237024   3.867   6.790   5.022
12360TIP3    H137025   3.936   6.761   5.081
12360TIP3    H237026   3.869   6.886   5.029
12361TIP3   OH237027   3.602   6.478   5.233
12361TIP3    H137028   3.536   6.525   5.284
12361TIP3    H237029   3.621   6.537   5.159
12362TIP3   OH237030   4.762   6.118   6.119
12362TIP3    H137031   4.845   6.156   6.150
12362TIP3    H237032   4.752   6.037   6.170
12363TIP3   OH237033   4.652   5.854   5.295
12363TIP3    H137034   4.633   5.870   5.203
12363TIP3    H237035   4.696   5.933   5.325
12364TIP3   OH237036   4.139   6.980   4.964
12364TIP3    H137037   4.054   7.003   5.001
12364TIP3    H237038   4.160   7.051   4.904
12365TIP3   OH237039   4.305   6.056   5.387
12365TIP3    H137040   4.368   6.123   5.361
12365TIP3    H237041   4.328   6.035   5.478
12366TIP3   OH237042   4.601   6.347   6.163
12366TIP3    H137043   4.627   6.386   6.247
12366TIP3    H237044   4.651   6.265   6.158
12367TIP3   OH237045   4.466   5.751   5.473
12367TIP3    H137046   4.447   5.829   5.525
12367TIP3    H237047   4.536   5.779   5.414
12368TIP3   OH237048   3.888   7.064   5.038
12368TIP3    H137049   3.866   7.135   4.978
12368TIP3    H237050   3.876   7.102   5.125
12369TIP3   OH237051   3.981   5.774   5.280
12369TIP3    H137052   3.970   5.865   5.309
12369TIP3    H237053   4.075   5.758   5.285
12370TIP3   OH237054   5.222   6.248   6.142
12370TIP3    H137055   5.130   6.262   6.164
12370TIP3    H237056   5.220   6.182   6.073
12371TIP3   OH237057   4.880   6.451   5.539
12371TIP3    H137058   4.806   6.391   5.549
12371TIP3    H237059   4.951   6.411   5.591
12372TIP3   OH237060   3.621   6.659   5.017
12372TIP3    H137061   3.693   6.722   5.026
12372TIP3    H237062   3.653   6.595   4.954
12373TIP3   OH237063   3.535   5.951   5.154
12373TIP3    H137064   3.543   6.046   5.158
12373TIP3    H237065   3.481   5.934   5.077
12374TIP3   OH237066   4.863   7.423   5.485
12374TIP3    H137067   4.819   7.473   5.417
12374TIP3    H237068   4.956   7.434   5.467
12375TIP3   OH237069   3.931   5.679   6.005
12375TIP3    H137070   3.904   5.649   5.918
12375TIP3    H237071   3.917   5.604   6.062
12376TIP3   OH237072   3.456   6.926   5.407
12376TIP3    H137073   3.405   6.957   5.482
12376TIP3    H237074   3.415   6.967   5.331
12377TIP3   OH237075   3.651   7.458   6.480
12377TIP3    H137076   3.734   7.460   6.528
12377TIP3    H237077   3.631   7.364   6.471
12378TIP3   OH237078   4.117   7.380   6.518
12378TIP3    H137079   4.209   7.355   6.530
12378TIP3    H237080   4.085   7.323   6.448
12379TIP3   OH237081   4.081   6.972   4.643
12379TIP3    H137082   4.032   6.902   4.686
12379TIP3    H237083   4.155   6.928   4.602
12380TIP3   OH237084   4.737   7.314   6.269
12380TIP3    H137085   4.751   7.241   6.330
12380TIP3    H237086   4.814   7.370   6.281
12381TIP3   OH237087   4.522   7.012   4.566
12381TIP3    H137088   4.554   6.947   4.629
12381TIP3    H237089   4.581   7.004   4.492
12382TIP3   OH237090   3.757   6.862   6.668
12382TIP3    H137091   3.775   6.769   6.678
12382TIP3    H237092   3.670   6.865   6.627
12383TIP3   OH237093   3.746   6.469   4.868
12383TIP3    H137094   3.797   6.443   4.944
12383TIP3    H237095   3.811   6.481   4.799
12384TIP3   OH237096   4.378   6.942   6.444
12384TIP3    H137097   4.330   6.962   6.363
12384TIP3    H237098   4.410   6.853   6.432
12385TIP3   OH237099   4.313   6.691   4.698
12385TIP3    H137100   4.292   6.702   4.791
12385TIP3    H237101   4.299   6.597   4.681
12386TIP3   OH237102   4.866   6.992   6.067
12386TIP3    H137103   4.937   7.015   6.006
12386TIP3    H237104   4.795   7.051   6.044
12387TIP3   OH237105   3.873   6.608   6.673
12387TIP3    H137106   3.949   6.585   6.619
12387TIP3    H237107   3.909   6.625   6.760
12388TIP3   OH237108   3.923   6.408   5.078
12388TIP3    H137109   3.902   6.375   5.166
12388TIP3    H237110   3.970   6.336   5.036
12389TIP3   OH237111   4.229   6.486   6.336
12389TIP3    H137112   4.145   6.531   6.345
12389TIP3    H237113   4.263   6.515   6.251
12390TIP3   OH237114   4.061   6.223   4.922
12390TIP3    H137115   4.032   6.225   4.831
12390TIP3    H237116   4.156   6.228   4.917
12391TIP3   OH237117   4.740   6.857   6.419
12391TIP3    H137118   4.810   6.818   6.365
12391TIP3    H237119   4.731   6.797   6.493
12392TIP3   OH237120   4.861   6.520   4.599
12392TIP3    H137121   4.846   6.475   4.516
12392TIP3    H237122   4.833   6.610   4.583
12393TIP3   OH237123   4.336   6.257   6.443
12393TIP3    H137124   4.340   6.185   6.380
12393TIP3    H237125   4.300   6.331   6.394
12394TIP3   OH237126   4.345   6.058   6.241
12394TIP3    H137127   4.374   6.091   6.156
12394TIP3    H237128   4.254   6.030   6.226
12395TIP3   OH237129   4.351   6.585   6.116
12395TIP3    H137130   4.441   6.602   6.089
12395TIP3    H237131   4.299   6.647   6.066
12396TIP3   OH237132   4.950   6.532   6.484
12396TIP3    H137133   4.968   6.438   6.489
12396TIP3    H237134   5.036   6.572   6.471
12397TIP3   OH237135   4.977   6.812   6.235
12397TIP3    H137136   4.925   6.875   6.186
12397TIP3    H237137   5.065   6.819   6.198
12398TIP3   OH237138   4.221   6.347   6.684
12398TIP3    H137139   4.152   6.284   6.705
12398TIP3    H237140   4.250   6.322   6.596
12399TIP3   OH237141   4.470   5.826   6.342
12399TIP3    H137142   4.428   5.905   6.308
12399TIP3    H237143   4.407   5.756   6.325
12400TIP3   OH237144   4.591   6.304   6.542
12400TIP3    H137145   4.584   6.289   6.636
12400TIP3    H237146   4.506   6.280   6.507
12401TIP3   OH237147   4.838   6.266   6.414
12401TIP3    H137148   4.760   6.257   6.468
12401TIP3    H237149   4.908   6.227   6.467
12402TIP3   OH237150   5.072   6.213   6.552
12402TIP3    H137151   5.089   6.119   6.558
12402TIP3    H237152   5.068   6.243   6.642
12403TIP3   OH237153   4.054   6.132   6.751
12403TIP3    H137154   4.059   6.044   6.713
12403TIP3    H237155   4.093   6.122   6.838
12404TIP3   OH237156   4.537   5.805   6.606
12404TIP3    H137157   4.607   5.740   6.601
12404TIP3    H237158   4.508   5.816   6.516
12405TIP3   OH237159   4.630   6.022   6.748
12405TIP3    H137160   4.601   5.949   6.694
12405TIP3    H237161   4.556   6.082   6.748
12406TIP3   OH237162   3.883   7.276   4.856
12406TIP3    H137163   3.971   7.252   4.827
12406TIP3    H237164   3.845   7.320   4.780
12407TIP3   OH237165   3.347   6.651   5.041
12407TIP3    H137166   3.442   6.663   5.034
12407TIP3    H237167   3.331   6.566   5.001
12408TIP3   OH237168   3.251   7.240   5.494
12408TIP3    H137169   3.188   7.185   5.448
12408TIP3    H237170   3.296   7.180   5.554
12409TIP3   OH237171   3.393   7.076   5.665
12409TIP3    H137172   3.383   7.005   5.728
12409TIP3    H237173   3.445   7.142   5.710
12410TIP3   OH237174   5.133   7.476   5.467
12410TIP3    H137175   5.155   7.504   5.556
12410TIP3    H237176   5.177   7.539   5.410
12411TIP3   OH237177   5.153   7.506   5.746
12411TIP3    H137178   5.108   7.421   5.744
12411TIP3    H237179   5.226   7.493   5.807
12412TIP3   OH237180   5.209   7.222   6.288
12412TIP3    H137181   5.138   7.218   6.352
12412TIP3    H237182   5.255   7.303   6.309
12413TIP3   OH237183   5.021   6.725   4.936
12413TIP3    H137184   5.082   6.792   4.905
12413TIP3    H237185   5.064   6.685   5.011
12414TIP3   OH237186   5.144   6.581   5.139
12414TIP3    H137187   5.076   6.537   5.190
12414TIP3    H237188   5.207   6.610   5.204
12415TIP3   OH237189   5.243   7.007   5.592
12415TIP3    H137190   5.280   6.930   5.549
12415TIP3    H237191   5.229   7.070   5.521
12416TIP3   OH237192   5.015   7.265   5.763
12416TIP3    H137193   4.947   7.311   5.812
12416TIP3    H237194   4.969   7.225   5.690
12417TIP3   OH237195   5.064   6.498   4.783
12417TIP3    H137196   4.994   6.496   4.717
12417TIP3    H237197   5.045   6.576   4.836
12418TIP3   OH237198   4.919   6.151   4.720
12418TIP3    H137199   4.880   6.184   4.639
12418TIP3    H237200   4.909   6.056   4.714
12419TIP3   OH237201   4.945   6.435   5.269
12419TIP3    H137202   4.951   6.341   5.254
12419TIP3    H237203   4.928   6.444   5.363
12420TIP3   OH237204   3.573   6.504   6.043
12420TIP3    H137205   3.563   6.470   5.955
12420TIP3    H237206   3.667   6.501   6.059
12421TIP3   OH237207   5.225   6.859   6.110
12421TIP3    H137208   5.292   6.791   6.106
12421TIP3    H237209   5.197   6.870   6.019
12422TIP3   OH237210   5.416   6.667   6.137
12422TIP3    H137211   5.344   6.612   6.167
12422TIP3    H237212   5.494   6.613   6.150
12423TIP3   OH237213   4.877   5.882   4.694
12423TIP3    H137214   4.945   5.850   4.752
12423TIP3    H237215   4.798   5.836   4.722
12424TIP3   OH237216   4.945   6.162   5.153
12424TIP3    H137217   4.988   6.078   5.169
12424TIP3    H237218   4.989   6.199   5.077
12425TIP3   OH237219   5.100   6.337   5.673
12425TIP3    H137220   5.181   6.355   5.625
12425TIP3    H237221   5.115   6.371   5.761
12426TIP3   OH237222   5.176   6.488   5.900
12426TIP3    H137223   5.101   6.515   5.953
12426TIP3    H237224   5.206   6.569   5.858
12427TIP3   OH237225   3.790   6.182   6.689
12427TIP3    H137226   3.884   6.180   6.707
12427TIP3    H237227   3.757   6.100   6.727
12428TIP3   OH237228   5.622   6.088   6.432
12428TIP3    H137229   5.688   6.026   6.401
12428TIP3    H237230   5.594   6.135   6.353
12429TIP3   OH237231   5.056   5.913   5.209
12429TIP3    H137232   5.100   5.898   5.293
12429TIP3    H237233   4.996   5.839   5.200
12430TIP3   OH237234   3.763   5.898   6.037
12430TIP3    H137235   3.818   5.819   6.036
12430TIP3    H237236   3.824   5.970   6.020
12431TIP3   OH237237   3.548   6.159   6.098
12431TIP3    H137238   3.598   6.147   6.017
12431TIP3    H237239   3.579   6.243   6.132
12432TIP3   OH237240   5.485   6.205   6.220
12432TIP3    H137241   5.394   6.231   6.235
12432TIP3    H237242   5.478   6.118   6.179
12433TIP3   OH237243   5.109   5.827   4.843
12433TIP3    H137244   5.153   5.765   4.785
12433TIP3    H237245   5.169   5.902   4.847
12434TIP3   OH237246   3.537   5.683   5.609
12434TIP3    H137247   3.450   5.663   5.643
12434TIP3    H237248   3.521   5.732   5.528
12435TIP3   OH237249   4.696   7.390   5.116
12435TIP3    H137250   4.748   7.373   5.037
12435TIP3    H237251   4.743   7.459   5.161
12436TIP3   OH237252   3.749   5.726   6.417
12436TIP3    H137253   3.701   5.721   6.500
12436TIP3    H237254   3.692   5.777   6.359
12437TIP3   OH237255   3.790   7.181   6.495
12437TIP3    H137256   3.697   7.162   6.484
12437TIP3    H237257   3.808   7.162   6.587
12438TIP3   OH237258   3.996   7.227   6.045
12438TIP3    H137259   3.945   7.301   6.013
12438TIP3    H237260   4.081   7.236   6.002
12439TIP3   OH237261   4.393   7.458   6.182
12439TIP3    H137262   4.433   7.450   6.268
12439TIP3    H237263   4.454   7.511   6.131
12440TIP3   OH237264   4.579   7.609   6.047
12440TIP3    H137265   4.635   7.555   5.991
12440TIP3    H237266   4.640   7.661   6.098
12441TIP3   OH237267   5.406   5.935   6.152
12441TIP3    H137268   5.316   5.911   6.130
12441TIP3    H237269   5.456   5.854   6.144
12442TIP3   OH237270   3.660   7.477   6.090
12442TIP3    H137271   3.568   7.496   6.069
12442TIP3    H237272   3.682   7.539   6.158
12443TIP3   OH237273   3.889   7.458   5.940
12443TIP3    H137274   3.806   7.465   5.987
12443TIP3    H237275   3.867   7.481   5.849
12444TIP3   OH237276   4.307   7.473   5.731
12444TIP3    H137277   4.236   7.482   5.667
12444TIP3    H237278   4.315   7.560   5.770
12445TIP3   OH237279   4.572   7.420   5.789
12445TIP3    H137280   4.480   7.432   5.765
12445TIP3    H237281   4.620   7.481   5.733
12446TIP3   OH237282   4.777   7.592   5.685
12446TIP3    H137283   4.769   7.677   5.641
12446TIP3    H237284   4.805   7.532   5.616
12447TIP3   OH237285   3.570   7.249   5.815
12447TIP3    H137286   3.596   7.222   5.902
12447TIP3    H237287   3.640   7.218   5.758
12448TIP3   OH237288   3.772   7.138   5.671
12448TIP3    H137289   3.783   7.054   5.715
12448TIP3    H237290   3.859   7.178   5.672
12449TIP3   OH237291   4.041   7.222   5.690
12449TIP3    H137292   4.059   7.130   5.674
12449TIP3    H237293   4.093   7.244   5.768
12450TIP3   OH237294   4.600   5.861   5.772
12450TIP3    H137295   4.558   5.791   5.822
12450TIP3    H237296   4.671   5.818   5.724
12451TIP3   OH237297   5.096   5.798   5.677
12451TIP3    H137298   5.130   5.836   5.595
12451TIP3    H237299   5.002   5.790   5.661
12452TIP3   OH237300   5.211   5.864   5.434
12452TIP3    H137301   5.279   5.804   5.406
12452TIP3    H237302   5.249   5.951   5.422
12453TIP3   OH237303   3.844   5.572   5.767
12453TIP3    H137304   3.753   5.541   5.771
12453TIP3    H237305   3.896   5.492   5.764
12454TIP3   OH237306   3.664   5.483   5.436
12454TIP3    H137307   3.689   5.529   5.356
12454TIP3    H237308   3.629   5.552   5.493
12455TIP3   OH237309   4.314   5.614   5.669
12455TIP3    H137310   4.364   5.655   5.598
12455TIP3    H237311   4.361   5.637   5.749
12456TIP3   OH237312   4.819   5.732   5.654
12456TIP3    H137313   4.833   5.690   5.569
12456TIP3    H237314   4.823   5.659   5.717
12457TIP3   OH237315   4.873   5.701   5.212
12457TIP3    H137316   4.793   5.746   5.237
12457TIP3    H237317   4.864   5.614   5.252
12458TIP3   OH237318   3.340   7.047   5.190
12458TIP3    H137319   3.256   7.011   5.161
12458TIP3    H237320   3.340   7.137   5.158
12459TIP3   OH237321   3.771   5.605   5.193
12459TIP3    H137322   3.815   5.542   5.135
12459TIP3    H237323   3.841   5.659   5.227
12460TIP3   OH237324   4.255   5.805   5.289
12460TIP3    H137325   4.314   5.750   5.341
12460TIP3    H237326   4.273   5.894   5.318
12461TIP3   OH237327   4.137   7.198   4.785
12461TIP3    H137328   4.221   7.225   4.748
12461TIP3    H237329   4.108   7.126   4.729
12462TIP3   OH237330   4.841   7.339   4.884
12462TIP3    H137331   4.836   7.243   4.877
12462TIP3    H237332   4.797   7.371   4.806
12463TIP3   OH237333   4.065   5.867   6.663
12463TIP3    H137334   4.031   5.795   6.716
12463TIP3    H237335   4.159   5.870   6.683
12464TIP3   OH237336   4.317   5.860   6.779
12464TIP3    H137337   4.395   5.838   6.728
12464TIP3    H237338   4.313   5.791   6.846
12465TIP3   OH237339   3.446   7.043   4.844
12465TIP3    H137340   3.446   7.045   4.939
12465TIP3    H237341   3.526   6.996   4.821
12466TIP3   OH237342   5.138   5.949   6.564
12466TIP3    H137343   5.153   5.914   6.652
12466TIP3    H237344   5.223   5.939   6.520
12467TIP3   OH237345   5.061   7.476   6.065
12467TIP3    H137346   4.987   7.443   6.014
12467TIP3    H237347   5.043   7.570   6.075
12468TIP3   OH237348   6.334   6.865   4.815
12468TIP3    H137349   6.299   6.952   4.796
12468TIP3    H237350   6.264   6.805   4.790
12469TIP3   OH237351   6.322   6.856   5.238
12469TIP3    H137352   6.375   6.839   5.315
12469TIP3    H237353   6.283   6.771   5.216
12470TIP3   OH237354   5.637   6.733   5.598
12470TIP3    H137355   5.673   6.674   5.664
12470TIP3    H237356   5.710   6.750   5.538
12471TIP3   OH237357   6.599   7.162   4.910
12471TIP3    H137358   6.585   7.095   4.976
12471TIP3    H237359   6.622   7.241   4.959
12472TIP3   OH237360   5.652   7.164   5.324
12472TIP3    H137361   5.626   7.073   5.309
12472TIP3    H237362   5.735   7.174   5.278
12473TIP3   OH237363   5.307   6.361   5.057
12473TIP3    H137364   5.261   6.441   5.081
12473TIP3    H237365   5.239   6.305   5.018
12474TIP3   OH237366   5.375   6.649   5.282
12474TIP3    H137367   5.424   6.572   5.310
12474TIP3    H237368   5.432   6.692   5.218
12475TIP3   OH237369   6.255   7.593   4.924
12475TIP3    H137370   6.281   7.531   4.857
12475TIP3    H237371   6.269   7.547   5.007
12476TIP3   OH237372   6.133   7.075   5.250
12476TIP3    H137373   6.176   6.996   5.219
12476TIP3    H237374   6.204   7.133   5.277
12477TIP3   OH237375   7.165   6.391   5.279
12477TIP3    H137376   7.185   6.472   5.325
12477TIP3    H237377   7.176   6.412   5.186
12478TIP3   OH237378   6.543   6.572   5.280
12478TIP3    H137379   6.580   6.488   5.305
12478TIP3    H237380   6.506   6.557   5.192
12479TIP3   OH237381   5.902   6.229   5.238
12479TIP3    H137382   5.879   6.301   5.179
12479TIP3    H237383   5.850   6.155   5.208
12480TIP3   OH237384   6.597   6.330   4.872
12480TIP3    H137385   6.660   6.322   4.943
12480TIP3    H237386   6.648   6.363   4.798
12481TIP3   OH237387   5.528   6.437   5.366
12481TIP3    H137388   5.611   6.415   5.409
12481TIP3    H237389   5.530   6.385   5.285
12482TIP3   OH237390   5.943   6.640   5.188
12482TIP3    H137391   6.037   6.625   5.191
12482TIP3    H237392   5.906   6.559   5.152
12483TIP3   OH237393   7.223   6.615   5.430
12483TIP3    H137394   7.134   6.651   5.424
12483TIP3    H237395   7.251   6.635   5.519
12484TIP3   OH237396   5.888   6.229   5.690
12484TIP3    H137397   5.830   6.258   5.619
12484TIP3    H237398   5.834   6.234   5.769
12485TIP3   OH237399   6.195   7.073   4.701
12485TIP3    H137400   6.174   7.058   4.609
12485TIP3    H237401   6.155   7.157   4.721
12486TIP3   OH237402   5.988   6.999   5.473
12486TIP3    H137403   5.936   7.072   5.505
12486TIP3    H237404   6.035   7.034   5.397
12487TIP3   OH237405   6.757   6.352   5.091
12487TIP3    H137406   6.718   6.328   5.175
12487TIP3    H237407   6.815   6.425   5.111
12488TIP3   OH237408   5.771   6.333   5.460
12488TIP3    H137409   5.829   6.405   5.484
12488TIP3    H237410   5.816   6.287   5.389
12489TIP3   OH237411   5.809   7.204   5.555
12489TIP3    H137412   5.797   7.299   5.548
12489TIP3    H237413   5.743   7.167   5.496
12490TIP3   OH237414   5.199   6.908   4.816
12490TIP3    H137415   5.165   6.924   4.728
12490TIP3    H237416   5.223   6.995   4.848
12491TIP3   OH237417   6.635   7.404   5.060
12491TIP3    H137418   6.546   7.394   5.093
12491TIP3    H237419   6.633   7.486   5.010
12492TIP3   OH237420   6.944   6.277   5.422
12492TIP3    H137421   6.865   6.318   5.388
12492TIP3    H237422   7.015   6.314   5.368
12493TIP3   OH237423   6.231   5.923   5.418
12493TIP3    H137424   6.221   5.831   5.441
12493TIP3    H237425   6.155   5.967   5.455
12494TIP3   OH237426   6.342   7.443   4.707
12494TIP3    H137427   6.393   7.362   4.697
12494TIP3    H237428   6.402   7.513   4.682
12495TIP3   OH237429   6.495   7.224   4.660
12495TIP3    H137430   6.501   7.147   4.603
12495TIP3    H237431   6.533   7.195   4.743
12496TIP3   OH237432   6.854   7.305   5.391
12496TIP3    H137433   6.843   7.231   5.331
12496TIP3    H237434   6.843   7.382   5.336
12497TIP3   OH237435   6.160   6.705   4.665
12497TIP3    H137436   6.080   6.753   4.646
12497TIP3    H237437   6.208   6.704   4.582
12498TIP3   OH237438   6.130   6.510   4.357
12498TIP3    H137439   6.195   6.558   4.408
12498TIP3    H237440   6.181   6.442   4.312
12499TIP3   OH237441   7.049   6.955   5.249
12499TIP3    H137442   6.966   7.002   5.251
12499TIP3    H237443   7.083   6.969   5.161
12500TIP3   OH237444   6.518   6.798   4.625
12500TIP3    H137445   6.463   6.824   4.699
12500TIP3    H237446   6.600   6.769   4.665
12501TIP3   OH237447   6.745   6.805   5.557
12501TIP3    H137448   6.747   6.890   5.602
12501TIP3    H237449   6.660   6.804   5.513
12502TIP3   OH237450   5.743   6.776   5.038
12502TIP3    H137451   5.706   6.716   4.972
12502TIP3    H237452   5.815   6.726   5.077
12503TIP3   OH237453   5.882   7.198   5.176
12503TIP3    H137454   5.858   7.182   5.085
12503TIP3    H237455   5.968   7.158   5.186
12504TIP3   OH237456   5.848   6.768   5.414
12504TIP3    H137457   5.884   6.732   5.333
12504TIP3    H237458   5.902   6.846   5.431
12505TIP3   OH237459   6.389   7.396   5.175
12505TIP3    H137460   6.377   7.477   5.225
12505TIP3    H237461   6.377   7.326   5.240
12506TIP3   OH237462   6.011   7.303   5.726
12506TIP3    H137463   5.954   7.364   5.774
12506TIP3    H237464   5.950   7.250   5.674
12507TIP3   OH237465   6.350   6.655   4.459
12507TIP3    H137466   6.410   6.713   4.507
12507TIP3    H237467   6.377   6.663   4.368
12508TIP3   OH237468   6.088   7.332   4.721
12508TIP3    H137469   6.175   7.372   4.725
12508TIP3    H237470   6.035   7.393   4.671
12509TIP3   OH237471   5.808   7.470   5.812
12509TIP3    H137472   5.782   7.484   5.721
12509TIP3    H237473   5.728   7.441   5.856
12510TIP3   OH237474   6.862   5.882   4.514
12510TIP3    H137475   6.785   5.903   4.567
12510TIP3    H237476   6.873   5.958   4.457
12511TIP3   OH237477   5.620   6.618   4.837
12511TIP3    H137478   5.542   6.662   4.802
12511TIP3    H237479   5.593   6.527   4.848
12512TIP3   OH237480   6.681   7.249   4.066
12512TIP3    H137481   6.676   7.342   4.046
12512TIP3    H237482   6.771   7.224   4.046
12513TIP3   OH237483   5.417   6.950   5.810
12513TIP3    H137484   5.374   6.986   5.733
12513TIP3    H237485   5.400   6.856   5.805
12514TIP3   OH237486   5.246   7.224   5.410
12514TIP3    H137487   5.338   7.246   5.422
12514TIP3    H237488   5.198   7.302   5.438
12515TIP3   OH237489   6.202   7.447   5.588
12515TIP3    H137490   6.199   7.537   5.619
12515TIP3    H237491   6.136   7.401   5.640
12516TIP3   OH237492   5.984   7.549   4.546
12516TIP3    H137493   5.940   7.530   4.463
12516TIP3    H237494   5.950   7.634   4.573
12517TIP3   OH237495   5.425   7.405   4.930
12517TIP3    H137496   5.471   7.392   5.013
12517TIP3    H237497   5.375   7.325   4.917
12518TIP3   OH237498   6.189   7.477   4.172
12518TIP3    H137499   6.239   7.404   4.136
12518TIP3    H237500   6.223   7.487   4.261
12519TIP3   OH237501   6.237   7.513   4.445
12519TIP3    H137502   6.151   7.519   4.486
12519TIP3    H237503   6.294   7.476   4.512
12520TIP3   OH237504   7.001   6.787   5.729
12520TIP3    H137505   6.921   6.802   5.679
12520TIP3    H237506   7.022   6.695   5.714
12521TIP3   OH237507   5.993   6.016   5.538
12521TIP3    H137508   5.909   5.982   5.507
12521TIP3    H237509   5.969   6.093   5.591
12522TIP3   OH237510   6.534   6.129   5.739
12522TIP3    H137511   6.604   6.103   5.799
12522TIP3    H237512   6.453   6.110   5.787
12523TIP3   OH237513   6.757   6.539   5.646
12523TIP3    H137514   6.722   6.547   5.735
12523TIP3    H237515   6.752   6.628   5.611
12524TIP3   OH237516   6.428   6.652   4.198
12524TIP3    H137517   6.387   6.645   4.112
12524TIP3    H237518   6.512   6.694   4.181
12525TIP3   OH237519   6.139   6.062   4.513
12525TIP3    H137520   6.103   6.068   4.601
12525TIP3    H237521   6.103   5.980   4.478
12526TIP3   OH237522   5.930   6.541   5.550
12526TIP3    H137523   5.882   6.546   5.633
12526TIP3    H237524   5.905   6.621   5.504
12527TIP3   OH237525   5.804   6.428   5.075
12527TIP3    H137526   5.716   6.400   5.099
12527TIP3    H237527   5.816   6.395   4.986
12528TIP3   OH237528   6.289   6.504   4.802
12528TIP3    H137529   6.240   6.574   4.761
12528TIP3    H237530   6.346   6.471   4.733
12529TIP3   OH237531   6.484   6.788   5.904
12529TIP3    H137532   6.455   6.711   5.953
12529TIP3    H237533   6.580   6.784   5.908
12530TIP3   OH237534   6.455   6.518   5.026
12530TIP3    H137535   6.388   6.539   4.961
12530TIP3    H237536   6.501   6.443   4.989
12531TIP3   OH237537   5.768   6.557   5.772
12531TIP3    H137538   5.835   6.601   5.825
12531TIP3    H237539   5.747   6.478   5.822
12532TIP3   OH237540   5.806   6.042   4.488
12532TIP3    H137541   5.796   6.040   4.583
12532TIP3    H237542   5.726   6.085   4.456
12533TIP3   OH237543   5.346   6.085   5.353
12533TIP3    H137544   5.423   6.115   5.402
12533TIP3    H237545   5.381   6.052   5.270
12534TIP3   OH237546   5.267   6.059   4.861
12534TIP3    H137547   5.313   6.093   4.784
12534TIP3    H237548   5.203   6.127   4.883
12535TIP3   OH237549   6.477   6.765   5.456
12535TIP3    H137550   6.505   6.701   5.391
12535TIP3    H237551   6.445   6.713   5.530
12536TIP3   OH237552   6.170   6.224   5.128
12536TIP3    H137553   6.092   6.221   5.182
12536TIP3    H237554   6.243   6.210   5.189
12537TIP3   OH237555   5.567   6.299   5.133
12537TIP3    H137556   5.479   6.304   5.097
12537TIP3    H237557   5.594   6.209   5.118
12538TIP3   OH237558   5.823   6.306   4.830
12538TIP3    H137559   5.917   6.313   4.818
12538TIP3    H237560   5.786   6.323   4.744
12539TIP3   OH237561   6.616   6.311   5.333
12539TIP3    H137562   6.594   6.324   5.425
12539TIP3    H237563   6.552   6.246   5.302
12540TIP3   OH237564   5.702   6.334   4.585
12540TIP3    H137565   5.639   6.282   4.535
12540TIP3    H237566   5.757   6.375   4.518
12541TIP3   OH237567   6.217   6.586   5.229
12541TIP3    H137568   6.279   6.535   5.177
12541TIP3    H237569   6.217   6.543   5.315
12542TIP3   OH237570   5.716   6.051   5.124
12542TIP3    H137571   5.684   5.978   5.177
12542TIP3    H237572   5.744   6.011   5.042
12543TIP3   OH237573   6.195   6.487   5.491
12543TIP3    H137574   6.106   6.510   5.518
12543TIP3    H237575   6.252   6.533   5.553
12544TIP3   OH237576   5.924   6.848   4.607
12544TIP3    H137577   5.851   6.789   4.586
12544TIP3    H237578   5.902   6.886   4.691
12545TIP3   OH237579   6.809   7.093   5.219
12545TIP3    H137580   6.847   7.139   5.144
12545TIP3    H237581   6.729   7.053   5.184
12546TIP3   OH237582   6.392   6.163   4.509
12546TIP3    H137583   6.299   6.141   4.509
12546TIP3    H237584   6.394   6.257   4.526
12547TIP3   OH237585   6.326   7.177   5.625
12547TIP3    H137586   6.394   7.168   5.693
12547TIP3    H237587   6.296   7.267   5.633
12548TIP3   OH237588   6.451   6.425   4.586
12548TIP3    H137589   6.546   6.428   4.596
12548TIP3    H237590   6.430   6.502   4.534
12549TIP3   OH237591   5.640   6.895   5.267
12549TIP3    H137592   5.665   6.863   5.180
12549TIP3    H237593   5.694   6.845   5.327
12550TIP3   OH237594   6.080   7.005   4.447
12550TIP3    H137595   6.033   7.089   4.447
12550TIP3    H237596   6.027   6.948   4.502
12551TIP3   OH237597   6.252   6.930   5.887
12551TIP3    H137598   6.217   6.911   5.800
12551TIP3    H237599   6.340   6.891   5.886
12552TIP3   OH237600   6.467   7.459   5.503
12552TIP3    H137601   6.372   7.451   5.511
12552TIP3    H237602   6.495   7.498   5.585
12553TIP3   OH237603   6.866   6.513   4.406
12553TIP3    H137604   6.809   6.465   4.346
12553TIP3    H237605   6.872   6.601   4.369
12554TIP3   OH237606   7.103   7.334   5.503
12554TIP3    H137607   7.011   7.336   5.475
12554TIP3    H237608   7.152   7.324   5.422
12555TIP3   OH237609   6.592   7.311   4.326
12555TIP3    H137610   6.576   7.235   4.383
12555TIP3    H237611   6.620   7.272   4.243
12556TIP3   OH237612   6.580   6.961   5.115
12556TIP3    H137613   6.490   6.939   5.136
12556TIP3    H237614   6.617   6.881   5.079
12557TIP3   OH237615   5.743   7.199   4.930
12557TIP3    H137616   5.746   7.277   4.875
12557TIP3    H237617   5.650   7.174   4.930
12558TIP3   OH237618   5.299   6.483   4.640
12558TIP3    H137619   5.344   6.564   4.661
12558TIP3    H237620   5.219   6.484   4.692
12559TIP3   OH237621   5.831   6.952   4.838
12559TIP3    H137622   5.820   7.042   4.869
12559TIP3    H237623   5.804   6.897   4.912
12560TIP3   OH237624   6.013   7.520   5.388
12560TIP3    H137625   6.048   7.593   5.337
12560TIP3    H237626   6.088   7.486   5.436
12561TIP3   OH237627   5.656   7.425   4.779
12561TIP3    H137628   5.570   7.431   4.821
12561TIP3    H237629   5.690   7.514   4.781
12562TIP3   OH237630   6.371   7.179   5.352
12562TIP3    H137631   6.358   7.173   5.447
12562TIP3    H237632   6.451   7.129   5.336
12563TIP3   OH237633   6.370   7.063   4.238
12563TIP3    H137634   6.417   7.049   4.320
12563TIP3    H237635   6.283   7.026   4.254
12564TIP3   OH237636   6.600   7.694   5.397
12564TIP3    H137637   6.534   7.626   5.395
12564TIP3    H237638   6.586   7.745   5.318
12565TIP3   OH237639   6.680   7.521   4.032
12565TIP3    H137640   6.720   7.590   3.980
12565TIP3    H237641   6.603   7.562   4.072
12566TIP3   OH237642   5.707   6.308   5.897
12566TIP3    H137643   5.611   6.319   5.898
12566TIP3    H237644   5.724   6.237   5.958
12567TIP3   OH237645   6.540   7.018   4.456
12567TIP3    H137646   6.521   6.943   4.513
12567TIP3    H237647   6.634   7.010   4.436
12568TIP3   OH237648   5.454   7.443   5.524
12568TIP3    H137649   5.542   7.409   5.539
12568TIP3    H237650   5.456   7.531   5.561
12569TIP3   OH237651   5.718   7.030   4.236
12569TIP3    H137652   5.730   6.938   4.209
12569TIP3    H237653   5.703   7.026   4.330
12570TIP3   OH237654   5.664   7.046   4.508
12570TIP3    H137655   5.735   7.017   4.565
12570TIP3    H237656   5.665   7.142   4.515
12571TIP3   OH237657   5.396   6.734   4.719
12571TIP3    H137658   5.331   6.781   4.771
12571TIP3    H237659   5.416   6.793   4.646
12572TIP3   OH237660   6.548   6.366   5.597
12572TIP3    H137661   6.633   6.406   5.619
12572TIP3    H237662   6.546   6.285   5.648
12573TIP3   OH237663   6.450   6.112   4.780
12573TIP3    H137664   6.429   6.130   4.688
12573TIP3    H237665   6.492   6.192   4.811
12574TIP3   OH237666   5.934   7.233   4.448
12574TIP3    H137667   5.850   7.258   4.487
12574TIP3    H237668   5.957   7.307   4.392
12575TIP3   OH237669   6.104   6.311   4.874
12575TIP3    H137670   6.166   6.379   4.848
12575TIP3    H237671   6.125   6.292   4.965
12576TIP3   OH237672   6.396   6.595   5.657
12576TIP3    H137673   6.426   6.624   5.744
12576TIP3    H237674   6.443   6.513   5.642
12577TIP3   OH237675   6.266   6.011   4.963
12577TIP3    H137676   6.245   6.089   5.013
12577TIP3    H237677   6.334   6.039   4.901
12578TIP3   OH237678   5.684   7.320   4.526
12578TIP3    H137679   5.663   7.390   4.466
12578TIP3    H237680   5.673   7.358   4.613
12579TIP3   OH237681   5.778   6.031   4.766
12579TIP3    H137682   5.767   6.121   4.798
12579TIP3    H237683   5.872   6.016   4.772
12580TIP3   OH237684   7.037   6.525   5.664
12580TIP3    H137685   6.946   6.501   5.644
12580TIP3    H237686   7.088   6.446   5.646
12581TIP3   OH237687   6.678   6.707   5.028
12581TIP3    H137688   6.602   6.649   5.039
12581TIP3    H237689   6.747   6.667   5.080
12582TIP3   OH237690   5.417   6.916   4.505
12582TIP3    H137691   5.489   6.978   4.513
12582TIP3    H237692   5.449   6.852   4.441
12583TIP3   OH237693   5.328   6.204   4.637
12583TIP3    H137694   5.333   6.299   4.640
12583TIP3    H237695   5.262   6.186   4.569
12584TIP3   OH237696   6.641   7.664   4.968
12584TIP3    H137697   6.594   7.721   4.907
12584TIP3    H237698   6.732   7.689   4.960
12585TIP3   OH237699   5.727   5.936   5.506
12585TIP3    H137700   5.697   5.897   5.424
12585TIP3    H237701   5.722   5.865   5.570
12586TIP3   OH237702   5.252   7.182   4.895
12586TIP3    H137703   5.204   7.215   4.970
12586TIP3    H237704   5.211   7.223   4.819
12587TIP3   OH237705   5.421   7.735   5.990
12587TIP3    H137706   5.506   7.731   6.033
12587TIP3    H237707   5.392   7.643   5.986
12588TIP3   OH237708   5.910   7.633   6.010
12588TIP3    H137709   6.004   7.617   6.013
12588TIP3    H237710   5.879   7.580   5.936
12589TIP3   OH237711   5.877   7.230   4.129
12589TIP3    H137712   5.829   7.160   4.173
12589TIP3    H237713   5.952   7.187   4.088
12590TIP3   OH237714   6.540   7.549   5.753
12590TIP3    H137715   6.531   7.483   5.821
12590TIP3    H237716   6.632   7.574   5.756
12591TIP3   OH237717   6.317   7.266   4.055
12591TIP3    H137718   6.353   7.204   4.118
12591TIP3    H237719   6.377   7.261   3.980
12592TIP3   OH237720   5.541   7.013   6.147
12592TIP3    H137721   5.623   6.986   6.189
12592TIP3    H237722   5.474   6.999   6.214
12593TIP3   OH237723   5.543   6.725   4.355
12593TIP3    H137724   5.594   6.700   4.432
12593TIP3    H237725   5.608   6.738   4.286
12594TIP3   OH237726   6.163   7.193   5.929
12594TIP3    H137727   6.122   7.214   5.846
12594TIP3    H237728   6.205   7.108   5.914
12595TIP3   OH237729   6.095   6.948   4.180
12595TIP3    H137730   6.079   6.960   4.274
12595TIP3    H237731   6.084   6.854   4.165
12596TIP3   OH237732   6.636   7.239   5.543
12596TIP3    H137733   6.715   7.265   5.495
12596TIP3    H237734   6.572   7.307   5.522
12597TIP3   OH237735   5.719   6.665   4.566
12597TIP3    H137736   5.698   6.632   4.654
12597TIP3    H237737   5.766   6.593   4.524
12598TIP3   OH237738   6.003   6.715   5.818
12598TIP3    H137739   6.014   6.778   5.890
12598TIP3    H237740   6.051   6.753   5.745
12599TIP3   OH237741   5.857   6.480   4.410
12599TIP3    H137742   5.827   6.483   4.319
12599TIP3    H237743   5.952   6.485   4.404
12600TIP3   OH237744   6.536   7.117   5.915
12600TIP3    H137745   6.627   7.111   5.884
12600TIP3    H237746   6.529   7.051   5.983
12601TIP3   OH237747   6.653   6.771   4.089
12601TIP3    H137748   6.643   6.727   4.004
12601TIP3    H237749   6.624   6.860   4.073
12602TIP3   OH237750   6.140   6.500   5.922
12602TIP3    H137751   6.146   6.424   5.864
12602TIP3    H237752   6.095   6.566   5.870
12603TIP3   OH237753   6.148   6.306   5.722
12603TIP3    H137754   6.175   6.335   5.635
12603TIP3    H237755   6.057   6.279   5.711
12604TIP3   OH237756   6.160   6.854   5.636
12604TIP3    H137757   6.241   6.846   5.585
12604TIP3    H237758   6.103   6.909   5.581
12605TIP3   OH237759   6.767   6.778   6.030
12605TIP3    H137760   6.780   6.695   5.985
12605TIP3    H237761   6.850   6.825   6.018
12606TIP3   OH237762   6.773   7.047   5.684
12606TIP3    H137763   6.719   7.112   5.639
12606TIP3    H237764   6.863   7.072   5.661
12607TIP3   OH237765   6.018   6.601   6.154
12607TIP3    H137766   5.951   6.539   6.183
12607TIP3    H237767   6.053   6.563   6.073
12608TIP3   OH237768   6.270   6.074   5.822
12608TIP3    H137769   6.228   6.154   5.790
12608TIP3    H237770   6.203   6.006   5.810
12609TIP3   OH237771   6.393   6.558   6.020
12609TIP3    H137772   6.384   6.543   6.114
12609TIP3    H237773   6.308   6.532   5.984
12610TIP3   OH237774   6.644   6.538   5.895
12610TIP3    H137775   6.564   6.524   5.945
12610TIP3    H237776   6.713   6.498   5.948
12611TIP3   OH237777   6.862   6.470   6.046
12611TIP3    H137778   6.880   6.376   6.047
12611TIP3    H237779   6.868   6.497   6.137
12612TIP3   OH237780   5.858   6.389   6.238
12612TIP3    H137781   5.854   6.302   6.198
12612TIP3    H237782   5.898   6.374   6.324
12613TIP3   OH237783   6.335   6.056   6.088
12613TIP3    H137784   6.404   5.990   6.083
12613TIP3    H237785   6.303   6.064   5.998
12614TIP3   OH237786   6.425   6.282   6.212
12614TIP3    H137787   6.393   6.207   6.163
12614TIP3    H237788   6.350   6.341   6.217
12615TIP3   OH237789   5.677   7.529   4.342
12615TIP3    H137790   5.767   7.508   4.315
12615TIP3    H237791   5.639   7.574   4.267
12616TIP3   OH237792   5.144   6.907   4.529
12616TIP3    H137793   5.239   6.920   4.522
12616TIP3    H237794   5.128   6.822   4.488
12617TIP3   OH237795   5.046   7.496   4.975
12617TIP3    H137796   4.982   7.442   4.929
12617TIP3    H237797   5.091   7.434   5.033
12618TIP3   OH237798   5.185   7.327   5.143
12618TIP3    H137799   5.177   7.260   5.212
12618TIP3    H237800   5.238   7.396   5.184
12619TIP3   OH237801   6.896   7.751   4.965
12619TIP3    H137802   6.924   7.778   5.053
12619TIP3    H237803   6.972   7.766   4.909
12620TIP3   OH237804   6.935   7.769   5.241
12620TIP3    H137805   6.891   7.685   5.244
12620TIP3    H237806   7.006   7.762   5.304
12621TIP3   OH237807   6.811   6.977   4.421
12621TIP3    H137808   6.873   7.040   4.386
12621TIP3    H237809   6.855   6.939   4.497
12622TIP3   OH237810   6.936   6.841   4.625
12622TIP3    H137811   6.870   6.799   4.680
12622TIP3    H237812   7.003   6.872   4.686
12623TIP3   OH237813   6.986   7.219   5.053
12623TIP3    H137814   7.045   7.155   5.012
12623TIP3    H237815   6.987   7.294   4.994
12624TIP3   OH237816   6.791   7.535   5.254
12624TIP3    H137817   6.724   7.577   5.308
12624TIP3    H237818   6.741   7.492   5.184
12625TIP3   OH237819   6.858   6.752   4.270
12625TIP3    H137820   6.787   6.751   4.205
12625TIP3    H237821   6.840   6.829   4.323
12626TIP3   OH237822   6.706   6.398   4.218
12626TIP3    H137823   6.662   6.435   4.141
12626TIP3    H237824   6.704   6.303   4.203
12627TIP3   OH237825   6.740   6.694   4.758
12627TIP3    H137826   6.748   6.600   4.745
12627TIP3    H237827   6.723   6.705   4.852
12628TIP3   OH237828   5.375   6.774   5.528
12628TIP3    H137829   5.364   6.733   5.442
12628TIP3    H237830   5.468   6.765   5.547
12629TIP3   OH237831   7.035   7.108   5.644
12629TIP3    H137832   7.113   7.053   5.644
12629TIP3    H237833   7.064   7.191   5.605
12630TIP3   OH237834   7.232   6.901   5.636
12630TIP3    H137835   7.151   6.867   5.673
12630TIP3    H237836   7.296   6.831   5.651
12631TIP3   OH237837   6.678   6.126   4.168
12631TIP3    H137838   6.743   6.102   4.234
12631TIP3    H237839   6.596   6.089   4.201
12632TIP3   OH237840   6.741   6.419   4.644
12632TIP3    H137841   6.786   6.335   4.657
12632TIP3    H237842   6.784   6.458   4.568
12633TIP3   OH237843   6.895   6.583   5.160
12633TIP3    H137844   6.976   6.600   5.112
12633TIP3    H237845   6.910   6.621   5.247
12634TIP3   OH237846   6.966   6.730   5.388
12634TIP3    H137847   6.892   6.757   5.442
12634TIP3    H237848   6.995   6.810   5.344
12635TIP3   OH237849   5.597   6.468   6.210
12635TIP3    H137850   5.691   6.449   6.212
12635TIP3    H237851   5.555   6.383   6.225
12636TIP3   OH237852   6.856   6.169   4.695
12636TIP3    H137853   6.898   6.155   4.780
12636TIP3    H237854   6.794   6.097   4.686
12637TIP3   OH237855   5.557   6.153   5.527
12637TIP3    H137856   5.609   6.072   5.532
12637TIP3    H237857   5.621   6.221   5.507
12638TIP3   OH237858   5.345   6.426   5.582
12638TIP3    H137859   5.391   6.414   5.499
12638TIP3    H237860   5.409   6.469   5.639
12639TIP3   OH237861   6.903   6.086   4.331
12639TIP3    H137862   6.949   6.025   4.273
12639TIP3    H237863   6.961   6.162   4.336
12640TIP3   OH237864   5.334   5.937   5.096
12640TIP3    H137865   5.247   5.917   5.131
12640TIP3    H237866   5.317   5.986   5.016
12641TIP3   OH237867   6.483   7.648   4.601
12641TIP3    H137868   6.526   7.615   4.521
12641TIP3    H237869   6.527   7.731   4.619
12642TIP3   OH237870   5.553   6.034   5.930
12642TIP3    H137871   5.503   5.988   5.997
12642TIP3    H237872   5.491   6.049   5.859
12643TIP3   OH237873   5.590   7.396   5.969
12643TIP3    H137874   5.497   7.420   5.965
12643TIP3    H237875   5.617   7.416   6.058
12644TIP3   OH237876   5.779   7.479   5.531
12644TIP3    H137877   5.735   7.557   5.498
12644TIP3    H237878   5.866   7.482   5.490
12645TIP3   OH237879   6.210   7.714   5.661
12645TIP3    H137880   6.246   7.708   5.750
12645TIP3    H237881   6.277   7.762   5.612
12646TIP3   OH237882   6.400   7.860   5.522
12646TIP3    H137883   6.464   7.800   5.483
12646TIP3    H237884   6.453   7.929   5.562
12647TIP3   OH237885   5.449   7.719   5.580
12647TIP3    H137886   5.359   7.741   5.556
12647TIP3    H237887   5.473   7.783   5.646
12648TIP3   OH237888   5.679   7.710   5.425
12648TIP3    H137889   5.595   7.721   5.471
12648TIP3    H237890   5.661   7.737   5.335
12649TIP3   OH237891   6.091   7.727   5.219
12649TIP3    H137892   6.024   7.740   5.152
12649TIP3    H237893   6.103   7.814   5.257
12650TIP3   OH237894   6.353   7.655   5.258
12650TIP3    H137895   6.262   7.679   5.240
12650TIP3    H237896   6.404   7.724   5.216
12651TIP3   OH237897   6.549   7.834   5.166
12651TIP3    H137898   6.540   7.921   5.127
12651TIP3    H237899   6.582   7.779   5.095
12652TIP3   OH237900   5.358   7.510   5.276
12652TIP3    H137901   5.380   7.491   5.368
12652TIP3    H237902   5.431   7.474   5.226
12653TIP3   OH237903   5.571   7.383   5.167
12653TIP3    H137904   5.587   7.305   5.220
12653TIP3    H237905   5.656   7.426   5.161
12654TIP3   OH237906   5.835   7.477   5.175
12654TIP3    H137907   5.859   7.386   5.156
12654TIP3    H237908   5.888   7.500   5.252
12655TIP3   OH237909   6.393   6.126   5.266
12655TIP3    H137910   6.356   6.053   5.315
12655TIP3    H237911   6.463   6.087   5.214
12656TIP3   OH237912   6.902   6.023   5.153
12656TIP3    H137913   6.938   6.076   5.082
12656TIP3    H237914   6.811   6.053   5.162
12657TIP3   OH237915   7.008   6.117   4.921
12657TIP3    H137916   7.075   6.056   4.890
12657TIP3    H237917   7.046   6.203   4.908
12658TIP3   OH237918   5.635   5.828   5.268
12658TIP3    H137919   5.546   5.795   5.275
12658TIP3    H237920   5.689   5.749   5.261
12659TIP3   OH237921   5.446   5.734   4.920
12659TIP3    H137922   5.477   5.783   4.843
12659TIP3    H237923   5.418   5.802   4.981
12660TIP3   OH237924   6.111   5.876   5.158
12660TIP3    H137925   6.163   5.919   5.090
12660TIP3    H237926   6.155   5.898   5.240
12661TIP3   OH237927   6.615   6.026   5.132
12661TIP3    H137928   6.623   5.992   5.043
12661TIP3    H237929   6.614   5.947   5.187
12662TIP3   OH237930   6.670   5.960   4.698
12662TIP3    H137931   6.590   6.006   4.722
12662TIP3    H237932   6.659   5.872   4.735
12663TIP3   OH237933   5.135   7.304   4.679
12663TIP3    H137934   5.052   7.270   4.648
12663TIP3    H237935   5.137   7.395   4.647
12664TIP3   OH237936   5.565   5.864   4.684
12664TIP3    H137937   5.610   5.799   4.630
12664TIP3    H237938   5.636   5.919   4.719
12665TIP3   OH237939   6.053   6.061   4.776
12665TIP3    H137940   6.109   6.004   4.829
12665TIP3    H237941   6.072   6.149   4.807
12666TIP3   OH237942   5.933   7.455   4.274
12666TIP3    H137943   6.017   7.482   4.237
12666TIP3    H237944   5.904   7.384   4.217
12667TIP3   OH237945   6.615   7.578   4.368
12667TIP3    H137946   6.612   7.483   4.359
12667TIP3    H237947   6.575   7.611   4.287
12668TIP3   OH237948   5.861   6.118   6.160
12668TIP3    H137949   5.827   6.048   6.215
12668TIP3    H237950   5.954   6.122   6.182
12669TIP3   OH237951   6.117   6.113   6.267
12669TIP3    H137952   6.194   6.088   6.215
12669TIP3    H237953   6.107   6.043   6.331
12670TIP3   OH237954   5.241   7.299   4.329
12670TIP3    H137955   5.243   7.307   4.425
12670TIP3    H237956   5.322   7.253   4.307
12671TIP3   OH237957   6.930   6.204   6.049
12671TIP3    H137958   6.945   6.170   6.137
12671TIP3    H237959   7.016   6.200   6.007
12672TIP3   OH237960   8.107   7.090   4.331
12672TIP3    H137961   8.081   7.177   4.303
12672TIP3    H237962   8.042   7.032   4.292
12673TIP3   OH237963   8.075   7.098   4.717
12673TIP3    H137964   8.153   7.059   4.755
12673TIP3    H237965   8.043   7.032   4.655
12674TIP3   OH237966   7.432   6.977   5.072
12674TIP3    H137967   7.458   6.909   5.134
12674TIP3    H237968   7.502   6.979   5.007
12675TIP3   OH237969   7.407   7.390   4.803
12675TIP3    H137970   7.390   7.296   4.797
12675TIP3    H237971   7.501   7.399   4.784
12676TIP3   OH237972   7.091   6.622   4.544
12676TIP3    H137973   7.048   6.705   4.567
12676TIP3    H237974   7.022   6.570   4.503
12677TIP3   OH237975   7.173   6.905   4.757
12677TIP3    H137976   7.224   6.828   4.784
12677TIP3    H237977   7.235   6.960   4.710
12678TIP3   OH237978   7.947   7.335   4.753
12678TIP3    H137979   7.975   7.244   4.744
12678TIP3    H237980   8.018   7.386   4.713
12679TIP3   OH237981   8.347   6.843   4.754
12679TIP3    H137982   8.370   6.756   4.789
12679TIP3    H237983   8.296   6.824   4.675
12680TIP3   OH237984   7.650   6.486   4.748
12680TIP3    H137985   7.651   6.549   4.676
12680TIP3    H237986   7.707   6.415   4.717
12681TIP3   OH237987   8.382   6.606   4.363
12681TIP3    H137988   8.444   6.586   4.433
12681TIP3    H237989   8.438   6.637   4.291
12682TIP3   OH237990   7.322   6.692   4.848
12682TIP3    H137991   7.404   6.675   4.895
12682TIP3    H237992   7.328   6.638   4.769
12683TIP3   OH237993   7.743   6.883   4.665
12683TIP3    H137994   7.836   6.861   4.672
12683TIP3    H237995   7.702   6.803   4.630
12684TIP3   OH237996   7.668   6.463   5.189
12684TIP3    H137997   7.621   6.501   5.115
12684TIP3    H237998   7.615   6.487   5.265
12685TIP3   OH237999   7.991   7.291   4.187
12685TIP3    H138000   7.973   7.277   4.094
12685TIP3    H238001   7.964   7.381   4.204
12686TIP3   OH238002   7.765   7.234   4.945
12686TIP3    H138003   7.720   7.309   4.982
12686TIP3    H238004   7.835   7.272   4.891
12687TIP3   OH238005   0.049   6.585   4.576
12687TIP3    H138006  -0.003   6.571   4.655
12687TIP3    H238007   0.119   6.645   4.604
12688TIP3   OH238008   7.555   6.598   4.970
12688TIP3    H138009   7.620   6.665   4.992
12688TIP3    H238010   7.591   6.555   4.892
12689TIP3   OH238011   6.989   7.144   4.295
12689TIP3    H138012   6.957   7.164   4.206
12689TIP3    H238013   6.995   7.230   4.337
12690TIP3   OH238014   8.276   7.463   4.157
12690TIP3    H138015   8.274   7.375   4.120
12690TIP3    H238016   8.362   7.497   4.132
12691TIP3   OH238017   7.951   6.950   4.146
12691TIP3    H138018   7.874   7.001   4.124
12691TIP3    H238019   8.001   6.946   4.065
12692TIP3   OH238020   7.926   6.766   3.828
12692TIP3    H138021   7.987   6.818   3.880
12692TIP3    H238022   7.981   6.698   3.789
12693TIP3   OH238023   8.291   7.010   4.141
12693TIP3    H138024   8.237   7.039   4.214
12693TIP3    H238025   8.374   6.985   4.180
12694TIP3   OH238026   7.543   7.023   4.529
12694TIP3    H138027   7.500   6.965   4.465
12694TIP3    H238028   7.614   6.970   4.566
12695TIP3   OH238029   7.668   7.401   4.691
12695TIP3    H138030   7.629   7.377   4.607
12695TIP3    H238031   7.750   7.353   4.694
12696TIP3   OH238032   7.639   6.999   4.890
12696TIP3    H138033   7.677   6.965   4.809
12696TIP3    H238034   7.688   7.079   4.907
12697TIP3   OH238035   8.137   6.909   3.941
12697TIP3    H138036   8.195   6.955   4.002
12697TIP3    H238037   8.172   6.929   3.855
12698TIP3   OH238038   7.517   7.136   5.288
12698TIP3    H138039   7.486   7.110   5.202
12698TIP3    H238040   7.445   7.113   5.348
12699TIP3   OH238041   7.915   7.552   4.189
12699TIP3    H138042   8.003   7.579   4.215
12699TIP3    H238043   7.874   7.633   4.158
12700TIP3   OH238044   7.416   6.873   4.332
12700TIP3    H138045   7.340   6.917   4.294
12700TIP3    H238046   7.393   6.780   4.331
12701TIP3   OH238047   7.189   7.257   5.249
12701TIP3    H138048   7.116   7.237   5.190
12701TIP3    H238049   7.214   7.172   5.285
12702TIP3   OH238050   7.029   7.448   4.906
12702TIP3    H138051   7.123   7.467   4.911
12702TIP3    H238052   6.987   7.527   4.938
12703TIP3   OH238053   7.761   7.758   4.089
12703TIP3    H138054   7.792   7.725   4.005
12703TIP3    H238055   7.812   7.837   4.105
12704TIP3   OH238056   7.160   7.628   4.418
12704TIP3    H138057   7.198   7.607   4.503
12704TIP3    H238058   7.187   7.556   4.361
12705TIP3   OH238059   7.368   7.455   5.198
12705TIP3    H138060   7.445   7.422   5.244
12705TIP3    H238061   7.302   7.387   5.211
12706TIP3   OH238062   8.293   6.386   5.208
12706TIP3    H138063   8.359   6.343   5.264
12706TIP3    H238064   8.210   6.367   5.251
12707TIP3   OH238065   8.231   6.958   3.691
12707TIP3    H138066   8.177   6.925   3.619
12707TIP3    H238067   8.305   7.002   3.648
12708TIP3   OH238068   7.945   6.300   4.008
12708TIP3    H138069   7.910   6.306   4.097
12708TIP3    H238070   7.894   6.229   3.968
12709TIP3   OH238071   7.737   6.793   5.044
12709TIP3    H138072   7.687   6.800   5.126
12709TIP3    H238073   7.709   6.869   4.993
12710TIP3   OH238074   7.592   6.679   4.560
12710TIP3    H138075   7.502   6.653   4.581
12710TIP3    H238076   7.606   6.647   4.471
12711TIP3   OH238077   8.077   6.750   4.282
12711TIP3    H138078   8.028   6.819   4.238
12711TIP3    H238079   8.139   6.718   4.215
12712TIP3   OH238080   8.223   6.775   4.517
12712TIP3    H138081   8.160   6.794   4.447
12712TIP3    H238082   8.279   6.707   4.480
12713TIP3   OH238083   7.549   6.796   5.248
12713TIP3    H138084   7.602   6.849   5.307
12713TIP3    H238085   7.528   6.718   5.300
12714TIP3   OH238086   7.551   6.271   3.931
12714TIP3    H138087   7.551   6.317   4.015
12714TIP3    H238088   7.551   6.341   3.866
12715TIP3   OH238089   7.143   6.335   4.844
12715TIP3    H138090   7.216   6.372   4.892
12715TIP3    H238091   7.176   6.321   4.755
12716TIP3   OH238092   7.059   6.318   4.352
12716TIP3    H138093   7.101   6.353   4.273
12716TIP3    H238094   6.994   6.384   4.376
12717TIP3   OH238095   7.964   6.469   4.607
12717TIP3    H138096   7.910   6.397   4.639
12717TIP3    H238097   8.041   6.467   4.664
12718TIP3   OH238098   7.346   6.556   4.607
12718TIP3    H138099   7.257   6.581   4.582
12718TIP3    H238100   7.361   6.473   4.563
12719TIP3   OH238101   7.612   6.564   4.314
12719TIP3    H138102   7.707   6.567   4.304
12719TIP3    H238103   7.578   6.580   4.226
12720TIP3   OH238104   8.385   6.568   4.798
12720TIP3    H138105   8.377   6.579   4.893
12720TIP3    H238106   8.319   6.502   4.775
12721TIP3   OH238107   7.489   6.593   4.070
12721TIP3    H138108   7.412   6.559   4.024
12721TIP3    H238109   7.547   6.624   4.001
12722TIP3   OH238110   8.005   6.808   4.704
12722TIP3    H138111   8.076   6.775   4.650
12722TIP3    H238112   8.010   6.757   4.786
12723TIP3   OH238113   7.987   6.706   4.975
12723TIP3    H138114   7.899   6.738   4.995
12723TIP3    H238115   8.045   6.761   5.026
12724TIP3   OH238116   7.729   7.102   4.070
12724TIP3    H138117   7.657   7.042   4.051
12724TIP3    H238118   7.713   7.131   4.159
12725TIP3   OH238119   8.193   6.409   3.987
12725TIP3    H138120   8.102   6.382   3.995
12725TIP3    H238121   8.190   6.505   3.990
12726TIP3   OH238122   8.244   6.676   4.066
12726TIP3    H138123   8.337   6.693   4.081
12726TIP3    H238124   8.215   6.748   4.009
12727TIP3   OH238125   7.418   7.118   4.755
12727TIP3    H138126   7.452   7.099   4.667
12727TIP3    H238127   7.480   7.077   4.815
12728TIP3   OH238128   7.893   7.268   3.925
12728TIP3    H138129   7.823   7.331   3.904
12728TIP3    H238130   7.848   7.195   3.966
12729TIP3   OH238131   7.277   7.028   5.392
12729TIP3    H138132   7.277   6.992   5.481
12729TIP3    H238133   7.203   6.984   5.349
12730TIP3   OH238134   7.551   7.392   4.444
12730TIP3    H138135   7.570   7.446   4.368
12730TIP3    H238136   7.457   7.373   4.437
12731TIP3   OH238137   7.086   6.740   4.117
12731TIP3    H138138   7.134   6.820   4.141
12731TIP3    H238139   7.008   6.743   4.172
12732TIP3   OH238140   7.661   7.168   4.323
12732TIP3    H138141   7.639   7.256   4.355
12732TIP3    H238142   7.627   7.109   4.390
12733TIP3   OH238143   7.394   7.742   4.140
12733TIP3    H138144   7.317   7.799   4.133
12733TIP3    H238145   7.411   7.735   4.234
12734TIP3   OH238146   8.018   7.190   3.631
12734TIP3    H138147   8.075   7.225   3.699
12734TIP3    H238148   7.973   7.117   3.672
12735TIP3   OH238149   7.507   6.560   5.392
12735TIP3    H138150   7.414   6.566   5.414
12735TIP3    H238151   7.546   6.514   5.466
12736TIP3   OH238152   8.359   7.243   4.014
12736TIP3    H138153   8.337   7.160   4.056
12736TIP3    H238154   8.399   7.218   3.930
12737TIP3   OH238155   7.250   7.657   5.055
12737TIP3    H138156   7.285   7.583   5.105
12737TIP3    H238157   7.271   7.734   5.108
12738TIP3   OH238158   7.435   7.302   4.030
12738TIP3    H138159   7.525   7.271   4.035
12738TIP3    H238160   7.440   7.389   3.992
12739TIP3   OH238161   7.195   6.982   4.206
12739TIP3    H138162   7.129   7.029   4.257
12739TIP3    H238163   7.211   7.039   4.130
12740TIP3   OH238164   8.345   6.611   5.063
12740TIP3    H138165   8.356   6.677   5.132
12740TIP3    H238166   8.324   6.531   5.110
12741TIP3   OH238167   8.244   6.391   4.263
12741TIP3    H138168   8.218   6.413   4.173
12741TIP3    H238169   8.283   6.471   4.297
12742TIP3   OH238170   7.689   7.446   3.869
12742TIP3    H138171   7.605   7.481   3.896
12742TIP3    H238172   7.749   7.520   3.875
12743TIP3   OH238173   7.890   6.562   4.357
12743TIP3    H138174   7.955   6.627   4.329
12743TIP3    H238175   7.912   6.544   4.448
12744TIP3   OH238176   8.071   6.272   4.438
12744TIP3    H138177   8.037   6.343   4.492
12744TIP3    H238178   8.135   6.314   4.380
12745TIP3   OH238179   7.454   7.560   3.948
12745TIP3    H138180   7.427   7.606   3.869
12745TIP3    H238181   7.432   7.620   4.019
12746TIP3   OH238182   7.566   6.296   4.228
12746TIP3    H138183   7.559   6.381   4.271
12746TIP3    H238184   7.658   6.272   4.236
12747TIP3   OH238185   8.482   6.939   4.529
12747TIP3    H138186   8.395   6.916   4.498
12747TIP3    H238187   8.477   6.930   4.624
12748TIP3   OH238188   7.210   7.151   3.985
12748TIP3    H138189   7.280   7.213   4.008
12748TIP3    H238190   7.247   7.098   3.915
12749TIP3   OH238191   7.131   6.466   4.133
12749TIP3    H138192   7.119   6.561   4.137
12749TIP3    H238193   7.168   6.451   4.046
12750TIP3   OH238194   7.526   6.178   4.970
12750TIP3    H138195   7.437   6.145   4.958
12750TIP3    H238196   7.561   6.129   5.044
12751TIP3   OH238197   6.984   7.399   4.390
12751TIP3    H138198   6.983   7.456   4.467
12751TIP3    H238199   6.978   7.459   4.315
12752TIP3   OH238200   7.649   7.325   3.623
12752TIP3    H138201   7.675   7.357   3.710
12752TIP3    H238202   7.725   7.344   3.567
12753TIP3   OH238203   7.354   6.977   3.821
12753TIP3    H138204   7.406   6.968   3.901
12753TIP3    H238205   7.395   6.915   3.760
12754TIP3   OH238206   7.526   6.917   4.033
12754TIP3    H138207   7.504   6.881   4.119
12754TIP3    H238208   7.572   6.847   3.988
12755TIP3   OH238209   7.752   6.983   5.300
12755TIP3    H138210   7.681   7.046   5.312
12755TIP3    H238211   7.819   7.032   5.253
12756TIP3   OH238212   7.657   6.723   3.891
12756TIP3    H138213   7.626   6.661   3.825
12756TIP3    H238214   7.751   6.733   3.872
12757TIP3   OH238215   7.903   6.763   5.422
12757TIP3    H138216   7.910   6.693   5.356
12757TIP3    H238217   7.851   6.831   5.379
12758TIP3   OH238218   7.924   6.556   5.217
12758TIP3    H138219   7.950   6.580   5.128
12758TIP3    H238220   7.835   6.522   5.208
12759TIP3   OH238221   8.049   6.332   5.323
12759TIP3    H138222   8.006   6.413   5.296
12759TIP3    H238223   7.981   6.265   5.313
12760TIP3   OH238224   7.632   6.655   5.734
12760TIP3    H138225   7.643   6.573   5.687
12760TIP3    H238226   7.718   6.698   5.728
12761TIP3   OH238227   8.125   6.328   5.586
12761TIP3    H138228   8.206   6.276   5.583
12761TIP3    H238229   8.098   6.335   5.495
12762TIP3   OH238230   7.413   7.773   3.785
12762TIP3    H138231   7.476   7.845   3.788
12762TIP3    H238232   7.382   7.772   3.694
12763TIP3   OH238233   6.937   7.156   4.010
12763TIP3    H138234   7.032   7.167   4.005
12763TIP3    H238235   6.921   7.069   3.974
12764TIP3   OH238236   6.809   7.728   4.483
12764TIP3    H138237   6.749   7.674   4.433
12764TIP3    H238238   6.857   7.667   4.538
12765TIP3   OH238239   6.955   7.558   4.643
12765TIP3    H138240   6.947   7.481   4.700
12765TIP3    H238241   7.004   7.621   4.696
12766TIP3   OH238242   8.516   6.626   3.692
12766TIP3    H138243   8.461   6.635   3.614
12766TIP3    H238244   8.484   6.547   3.735
12767TIP3   OH238245   0.023   6.937   4.258
12767TIP3    H138246   0.085   6.867   4.242
12767TIP3    H238247   0.031   6.956   4.351
12768TIP3   OH238248   7.166   7.016   5.008
12768TIP3    H138249   7.158   6.981   4.919
12768TIP3    H238250   7.260   7.013   5.026
12769TIP3   OH238251   8.461   6.344   3.774
12769TIP3    H138252   8.517   6.316   3.702
12769TIP3    H238253   8.372   6.334   3.740
12770TIP3   OH238254   0.062   6.664   4.153
12770TIP3    H138255   0.133   6.612   4.190
12770TIP3    H238256   0.102   6.711   4.080
12771TIP3   OH238257   7.363   6.653   5.672
12771TIP3    H138258   7.454   6.668   5.696
12771TIP3    H238259   7.347   6.561   5.694
12772TIP3   OH238260   7.359   6.404   5.002
12772TIP3    H138261   7.424   6.337   5.022
12772TIP3    H238262   7.408   6.486   4.999
12773TIP3   OH238263   7.143   6.662   5.068
12773TIP3    H138264   7.192   6.663   4.986
12773TIP3    H238265   7.181   6.733   5.120
12774TIP3   OH238266   7.133   6.187   4.580
12774TIP3    H138267   7.046   6.170   4.618
12774TIP3    H238268   7.115   6.238   4.501
12775TIP3   OH238269   7.342   6.222   5.424
12775TIP3    H138270   7.339   6.262   5.511
12775TIP3    H238271   7.279   6.273   5.372
12776TIP3   OH238272   7.122   7.717   4.814
12776TIP3    H138273   7.166   7.712   4.899
12776TIP3    H238274   7.186   7.683   4.752
12777TIP3   OH238275   7.297   7.588   4.655
12777TIP3    H138276   7.314   7.507   4.703
12777TIP3    H238277   7.383   7.630   4.647
12778TIP3   OH238278   7.566   7.654   4.644
12778TIP3    H138279   7.612   7.573   4.666
12778TIP3    H238280   7.553   7.698   4.728
12779TIP3   OH238281   8.210   6.365   4.710
12779TIP3    H138282   8.153   6.288   4.707
12779TIP3    H238283   8.290   6.337   4.665
12780TIP3   OH238284   0.208   6.325   4.662
12780TIP3    H138285   0.222   6.374   4.581
12780TIP3    H238286   0.113   6.311   4.665
12781TIP3   OH238287   0.322   6.423   4.427
12781TIP3    H138288   0.386   6.361   4.463
12781TIP3    H238289   0.333   6.415   4.332
12782TIP3   OH238290   7.431   6.074   4.730
12782TIP3    H138291   7.336   6.063   4.728
12782TIP3    H238292   7.466   5.985   4.725
12783TIP3   OH238293   7.242   5.983   4.398
12783TIP3    H138294   7.279   6.029   4.323
12783TIP3    H238295   7.214   6.053   4.457
12784TIP3   OH238296   8.443   6.243   4.618
12784TIP3    H138297   8.482   6.199   4.542
12784TIP3    H238298   8.423   6.173   4.679
12785TIP3   OH238299   8.442   6.245   4.135
12785TIP3    H138300   8.371   6.288   4.182
12785TIP3    H238301   8.468   6.172   4.191
12786TIP3   OH238302   6.930   7.551   4.162
12786TIP3    H138303   6.850   7.500   4.146
12786TIP3    H238304   6.913   7.636   4.123
12787TIP3   OH238305   7.365   6.112   4.173
12787TIP3    H138306   7.407   6.056   4.108
12787TIP3    H238307   7.432   6.176   4.197
12788TIP3   OH238308   7.842   6.306   4.266
12788TIP3    H138309   7.886   6.251   4.330
12788TIP3    H238310   7.859   6.396   4.294
12789TIP3   OH238311   7.759   7.695   3.607
12789TIP3    H138312   7.713   7.779   3.611
12789TIP3    H238313   7.694   7.633   3.576
12790TIP3   OH238314   7.643   6.417   5.602
12790TIP3    H138315   7.569   6.373   5.644
12790TIP3    H238316   7.720   6.374   5.639
12791TIP3   OH238317   7.885   6.329   5.724
12791TIP3    H138318   7.960   6.358   5.673
12791TIP3    H238319   7.917   6.253   5.773
12792TIP3   OH238320   7.016   7.532   3.819
12792TIP3    H138321   7.022   7.544   3.914
12792TIP3    H238322   7.090   7.474   3.798
12793TIP3   OH238323   1.417   7.431   6.405
12793TIP3    H138324   1.445   7.510   6.451
12793TIP3    H238325   1.458   7.439   6.318
12794TIP3   OH238326   0.851   7.312   6.027
12794TIP3    H138327   0.889   7.351   6.106
12794TIP3    H238328   0.880   7.368   5.956
12795TIP3   OH238329   1.487   7.630   6.587
12795TIP3    H138330   1.468   7.722   6.572
12795TIP3    H238331   1.423   7.603   6.653
12796TIP3   OH238332   0.991   7.414   6.244
12796TIP3    H138333   1.015   7.325   6.270
12796TIP3    H238334   1.069   7.466   6.265
12797TIP3   OH238335   1.202   7.352   6.563
12797TIP3    H138336   1.124   7.374   6.513
12797TIP3    H238337   1.275   7.369   6.503
12798TIP3   OH238338   1.112   6.928   5.689
12798TIP3    H138339   1.031   6.945   5.737
12798TIP3    H238340   1.126   7.005   5.635
12799TIP3   OH238341   1.141   7.538   5.582
12799TIP3    H138342   1.087   7.492   5.518
12799TIP3    H238343   1.137   7.630   5.556
12800TIP3   OH238344   1.300   7.528   6.763
12800TIP3    H138345   1.247   7.526   6.842
12800TIP3    H238346   1.263   7.460   6.707
12801TIP3   OH238347   0.921   7.691   6.210
12801TIP3    H138348   0.888   7.601   6.216
12801TIP3    H238349   1.006   7.688   6.254
12802TIP3   OH238350   0.946   7.790   5.256
12802TIP3    H138351   0.893   7.737   5.197
12802TIP3    H238352   1.005   7.839   5.199
12803TIP3   OH238353   3.868  -0.011   5.610
12803TIP3    H138354   3.917   0.064   5.576
12803TIP3    H238355   3.921  -0.044   5.682
12804TIP3   OH238356   1.197   7.873   5.799
12804TIP3    H138357   1.135   7.827   5.856
12804TIP3    H238358   1.260   7.912   5.858
12805TIP3   OH238359   1.125   7.784   5.462
12805TIP3    H138360   1.054   7.781   5.397
12805TIP3    H238361   1.101   7.857   5.519
12806TIP3   OH238362   1.016   7.431   5.360
12806TIP3    H138363   0.950   7.480   5.313
12806TIP3    H238364   0.986   7.340   5.356
12807TIP3   OH238365   1.030   7.720   5.953
12807TIP3    H138366   1.017   7.630   5.924
12807TIP3    H238367   0.983   7.725   6.037
12808TIP3   OH238368   0.936   7.162   5.351
12808TIP3    H138369   1.000   7.143   5.419
12808TIP3    H238370   0.853   7.132   5.388
12809TIP3   OH238371   1.014   7.461   5.839
12809TIP3    H138372   1.057   7.376   5.850
12809TIP3    H238373   1.046   7.493   5.755
12810TIP3   OH238374   1.162   7.626   6.340
12810TIP3    H138375   1.237   7.662   6.294
12810TIP3    H238376   1.168   7.664   6.428
12811TIP3   OH238377   7.448   3.428   0.130
12811TIP3    H138378   7.476   3.341   0.100
12811TIP3    H238379   7.379   3.454   0.069
12812TIP3   OH238380   1.120   7.205   5.864
12812TIP3    H138381   1.157   7.190   5.951
12812TIP3    H238382   1.050   7.141   5.857
12813TIP3   OH238383   1.593   7.455   6.863
12813TIP3    H138384   1.526   7.522   6.851
12813TIP3    H238385   1.559   7.379   6.816
12814TIP3   OH238386   1.162   7.131   5.508
12814TIP3    H138387   1.201   7.066   5.448
12814TIP3    H238388   1.226   7.201   5.512
12815TIP3   OH238389   1.447   7.217   6.761
12815TIP3    H138390   1.359   7.190   6.738
12815TIP3    H238391   1.499   7.136   6.760
12816TIP3   OH238392   1.174   7.039   6.303
12816TIP3    H138393   1.214   7.092   6.235
12816TIP3    H238394   1.084   7.071   6.309
12817TIP3   OH238395   1.274   7.169   6.090
12817TIP3    H138396   1.340   7.108   6.058
12817TIP3    H238397   1.310   7.255   6.073
12818TIP3   OH238398   0.919   7.129   6.307
12818TIP3    H138399   0.850   7.143   6.242
12818TIP3    H238400   0.894   7.048   6.352
12819TIP3   OH238401   0.912   7.019   5.864
12819TIP3    H138402   0.847   7.080   5.899
12819TIP3    H238403   0.888   6.934   5.901
12820TIP3   OH238404   5.228   0.059   5.535
12820TIP3    H138405   5.213   0.147   5.500
12820TIP3    H238406   5.157   0.007   5.497
12821TIP3   OH238407   5.198   0.136   5.906
12821TIP3    H138408   5.248   0.113   5.984
12821TIP3    H238409   5.160   0.053   5.877
12822TIP3   OH238410   1.684   8.012   6.249
12822TIP3    H138411   1.718   7.960   6.322
12822TIP3    H238412   1.763   8.040   6.201
12823TIP3   OH238413   5.474   0.419   5.604
12823TIP3    H138414   5.455   0.352   5.670
12823TIP3    H238415   5.460   0.502   5.649
12824TIP3   OH238416   4.604   0.398   6.061
12824TIP3    H138417   4.518   0.354   6.067
12824TIP3    H238418   4.642   0.365   5.980
12825TIP3   OH238419   1.363   7.657   5.716
12825TIP3    H138420   1.320   7.739   5.742
12825TIP3    H238421   1.291   7.600   5.689
12826TIP3   OH238422   1.424   7.946   5.947
12826TIP3    H138423   1.464   7.864   5.976
12826TIP3    H238424   1.497   7.998   5.913
12827TIP3   OH238425   5.026   0.356   5.966
12827TIP3    H138426   5.065   0.277   5.927
12827TIP3    H238427   5.101   0.403   6.002
12828TIP3   OH238428   3.214   7.699   5.917
12828TIP3    H138429   3.233   7.784   5.957
12828TIP3    H238430   3.243   7.709   5.826
12829TIP3   OH238431   2.602   7.872   5.952
12829TIP3    H138432   2.636   7.787   5.979
12829TIP3    H238433   2.566   7.856   5.864
12830TIP3   OH238434   1.947   7.528   5.908
12830TIP3    H138435   1.926   7.600   5.849
12830TIP3    H238436   1.894   7.455   5.876
12831TIP3   OH238437   2.640   7.630   5.535
12831TIP3    H138438   2.701   7.623   5.608
12831TIP3    H238439   2.694   7.660   5.462
12832TIP3   OH238440   1.564   7.732   6.044
12832TIP3    H138441   1.648   7.717   6.087
12832TIP3    H238442   1.570   7.682   5.962
12833TIP3   OH238443   2.009   7.930   5.855
12833TIP3    H138444   2.104   7.915   5.859
12833TIP3    H238445   1.972   7.848   5.825
12834TIP3   OH238446   3.274   7.922   6.082
12834TIP3    H138447   3.183   7.949   6.083
12834TIP3    H238448   3.309   7.952   6.166
12835TIP3   OH238449   1.929   7.525   6.355
12835TIP3    H138450   1.873   7.560   6.285
12835TIP3    H238451   1.878   7.539   6.435
12836TIP3   OH238452   5.178   0.260   5.352
12836TIP3    H138453   5.135   0.259   5.267
12836TIP3    H238454   5.173   0.351   5.381
12837TIP3   OH238455   4.862   0.275   6.168
12837TIP3    H138456   4.805   0.343   6.204
12837TIP3    H238457   4.910   0.319   6.098
12838TIP3   OH238458   2.802   7.654   5.754
12838TIP3    H138459   2.765   7.628   5.838
12838TIP3    H238460   2.863   7.725   5.775
12839TIP3   OH238461   1.814   7.634   6.127
12839TIP3    H138462   1.871   7.707   6.152
12839TIP3    H238463   1.860   7.591   6.056
12840TIP3   OH238464   4.162   0.090   5.561
12840TIP3    H138465   4.150   0.173   5.514
12840TIP3    H238466   4.194   0.116   5.647
12841TIP3   OH238467   3.010   7.600   6.088
12841TIP3    H138468   2.924   7.618   6.050
12841TIP3    H238469   3.072   7.623   6.020
12842TIP3   OH238470   2.271   7.223   6.080
12842TIP3    H138471   2.265   7.131   6.105
12842TIP3    H238472   2.195   7.264   6.120
12843TIP3   OH238473   5.529   0.477   5.322
12843TIP3    H138474   5.483   0.457   5.240
12843TIP3    H238475   5.483   0.424   5.387
12844TIP3   OH238476   5.788   0.562   6.016
12844TIP3    H138477   5.751   0.474   6.025
12844TIP3    H238478   5.819   0.567   5.926
12845TIP3   OH238479   2.219   7.964   5.347
12845TIP3    H138480   2.139   8.015   5.336
12845TIP3    H238481   2.261   7.967   5.260
12846TIP3   OH238482   2.168   7.774   5.038
12846TIP3    H138483   2.228   7.834   5.083
12846TIP3    H238484   2.227   7.716   4.989
12847TIP3   OH238485   5.939   0.237   5.929
12847TIP3    H138486   5.849   0.270   5.930
12847TIP3    H238487   5.967   0.247   5.838
12848TIP3   OH238488   5.396   0.036   5.308
12848TIP3    H138489   5.341   0.055   5.384
12848TIP3    H238490   5.483   0.017   5.346
12849TIP3   OH238491   5.624   0.105   6.226
12849TIP3    H138492   5.621   0.182   6.283
12849TIP3    H238493   5.540   0.106   6.181
12850TIP3   OH238494   1.804   8.033   5.693
12850TIP3    H138495   1.760   7.974   5.632
12850TIP3    H238496   1.871   7.979   5.736
12851TIP3   OH238497   4.740   0.356   5.832
12851TIP3    H138498   4.703   0.390   5.750
12851TIP3    H238499   4.831   0.334   5.811
12852TIP3   OH238500   4.737   0.046   6.076
12852TIP3    H138501   4.783   0.017   5.997
12852TIP3    H238502   4.782   0.127   6.101
12853TIP3   OH238503   2.388   7.932   5.130
12853TIP3    H138504   2.451   7.987   5.178
12853TIP3    H238505   2.419   7.933   5.040
12854TIP3   OH238506   2.906   7.182   5.181
12854TIP3    H138507   2.829   7.201   5.233
12854TIP3    H238508   2.917   7.259   5.124
12855TIP3   OH238509   1.665   7.876   5.514
12855TIP3    H138510   1.601   7.928   5.466
12855TIP3    H238511   1.616   7.800   5.546
12856TIP3   OH238512   5.875   0.055   6.377
12856TIP3    H138513   5.785   0.067   6.344
12856TIP3    H238514   5.890  -0.039   6.368
12857TIP3   OH238515   2.035   7.315   6.205
12857TIP3    H138516   1.951   7.281   6.172
12857TIP3    H238517   2.010   7.392   6.256
12858TIP3   OH238518   2.573   7.435   6.406
12858TIP3    H138519   2.643   7.410   6.467
12858TIP3    H238520   2.492   7.416   6.454
12859TIP3   OH238521   2.803   7.860   6.324
12859TIP3    H138522   2.757   7.853   6.408
12859TIP3    H238523   2.780   7.947   6.292
12860TIP3   OH238524   2.461   7.908   4.869
12860TIP3    H138525   2.433   7.877   4.783
12860TIP3    H238526   2.486   7.999   4.856
12861TIP3   OH238527   2.152   7.362   5.168
12861TIP3    H138528   2.136   7.371   5.262
12861TIP3    H238529   2.111   7.279   5.145
12862TIP3   OH238530   1.978   7.837   6.219
12862TIP3    H138531   1.933   7.845   6.303
12862TIP3    H238532   1.955   7.917   6.172
12863TIP3   OH238533   1.854   7.730   5.747
12863TIP3    H138534   1.765   7.706   5.774
12863TIP3    H238535   1.864   7.691   5.660
12864TIP3   OH238536   2.351   7.762   5.466
12864TIP3    H138537   2.301   7.830   5.422
12864TIP3    H238538   2.414   7.732   5.401
12865TIP3   OH238539   5.365   0.048   6.532
12865TIP3    H138540   5.334  -0.015   6.597
12865TIP3    H238541   5.456   0.064   6.556
12866TIP3   OH238542   2.511   7.827   5.698
12866TIP3    H138543   2.450   7.871   5.638
12866TIP3    H238544   2.538   7.748   5.650
12867TIP3   OH238545   1.815   7.851   6.441
12867TIP3    H138546   1.877   7.901   6.493
12867TIP3    H238547   1.797   7.773   6.494
12868TIP3   OH238548   1.403   7.390   6.010
12868TIP3    H138549   1.477   7.422   6.063
12868TIP3    H238550   1.443   7.360   5.929
12869TIP3   OH238551   1.336   7.350   5.518
12869TIP3    H138552   1.379   7.383   5.439
12869TIP3    H238553   1.276   7.420   5.544
12870TIP3   OH238554   5.364   0.060   6.116
12870TIP3    H138555   5.397  -0.006   6.055
12870TIP3    H238556   5.329   0.010   6.189
12871TIP3   OH238557   2.215   7.522   5.800
12871TIP3    H138558   2.138   7.518   5.856
12871TIP3    H238559   2.289   7.509   5.859
12872TIP3   OH238560   1.617   7.603   5.805
12872TIP3    H138561   1.530   7.608   5.767
12872TIP3    H238562   1.646   7.514   5.787
12873TIP3   OH238563   1.869   7.591   5.513
12873TIP3    H138564   1.964   7.602   5.499
12873TIP3    H238565   1.830   7.617   5.429
12874TIP3   OH238566   2.673   7.607   6.001
12874TIP3    H138567   2.652   7.622   6.093
12874TIP3    H238568   2.607   7.544   5.972
12875TIP3   OH238569   1.737   7.636   5.279
12875TIP3    H138570   1.659   7.594   5.243
12875TIP3    H238571   1.790   7.659   5.203
12876TIP3   OH238572   2.278   7.880   5.893
12876TIP3    H138573   2.342   7.827   5.845
12876TIP3    H238574   2.274   7.840   5.980
12877TIP3   OH238575   1.759   7.356   5.785
12877TIP3    H138576   1.731   7.279   5.835
12877TIP3    H238577   1.789   7.320   5.702
12878TIP3   OH238578   2.243   7.790   6.155
12878TIP3    H138579   2.155   7.814   6.183
12878TIP3    H238580   2.302   7.836   6.215
12879TIP3   OH238581   4.825   0.099   5.329
12879TIP3    H138582   4.750   0.040   5.319
12879TIP3    H238583   4.814   0.135   5.417
12880TIP3   OH238584   5.684   0.332   5.899
12880TIP3    H138585   5.701   0.394   5.828
12880TIP3    H238586   5.601   0.290   5.875
12881TIP3   OH238587   2.420   7.450   5.178
12881TIP3    H138588   2.325   7.440   5.172
12881TIP3    H238589   2.433   7.544   5.189
12882TIP3   OH238590   5.249   0.402   6.295
12882TIP3    H138591   5.271   0.389   6.387
12882TIP3    H238592   5.167   0.451   6.297
12883TIP3   OH238593   2.508   7.704   5.244
12883TIP3    H138594   2.603   7.713   5.256
12883TIP3    H238595   2.482   7.784   5.199
12884TIP3   OH238596   4.501   0.066   5.924
12884TIP3    H138597   4.539   0.062   5.836
12884TIP3    H238598   4.575   0.047   5.983
12885TIP3   OH238599   4.887   0.289   5.145
12885TIP3    H138600   4.919   0.364   5.195
12885TIP3    H238601   4.869   0.222   5.211
12886TIP3   OH238602   5.139   0.218   6.551
12886TIP3    H138603   5.102   0.189   6.468
12886TIP3    H238604   5.221   0.169   6.559
12887TIP3   OH238605   2.921   7.800   5.078
12887TIP3    H138606   2.862   7.759   5.015
12887TIP3    H238607   2.935   7.888   5.044
12888TIP3   OH238608   6.029   0.555   6.142
12888TIP3    H138609   5.943   0.587   6.115
12888TIP3    H238610   6.078   0.547   6.060
12889TIP3   OH238611   5.447   0.224   5.800
12889TIP3    H138612   5.357   0.198   5.820
12889TIP3    H238613   5.487   0.145   5.763
12890TIP3   OH238614   1.357   7.763   5.313
12890TIP3    H138615   1.408   7.843   5.325
12890TIP3    H238616   1.281   7.774   5.371
12891TIP3   OH238617   4.774   0.218   5.572
12891TIP3    H138618   4.699   0.260   5.531
12891TIP3    H238619   4.736   0.150   5.628
12892TIP3   OH238620   5.296   0.409   6.023
12892TIP3    H138621   5.279   0.415   6.117
12892TIP3    H238622   5.356   0.336   6.014
12893TIP3   OH238623   5.174   0.273   4.975
12893TIP3    H138624   5.256   0.224   4.982
12893TIP3    H238625   5.119   0.220   4.918
12894TIP3   OH238626   1.768   7.596   6.570
12894TIP3    H138627   1.673   7.596   6.581
12894TIP3    H238628   1.801   7.546   6.645
12895TIP3   OH238629   5.415   0.187   5.083
12895TIP3    H138630   5.405   0.139   5.165
12895TIP3    H238631   5.509   0.203   5.076
12896TIP3   OH238632   4.591   0.214   5.090
12896TIP3    H138633   4.534   0.176   5.023
12896TIP3    H238634   4.657   0.262   5.040
12897TIP3   OH238635   4.309  -0.010   5.364
12897TIP3    H138636   4.256   0.018   5.438
12897TIP3    H238637   4.298   0.059   5.298
12898TIP3   OH238638   2.608   7.666   6.261
12898TIP3    H138639   2.685   7.709   6.300
12898TIP3    H238640   2.594   7.588   6.315
12899TIP3   OH238641   2.491   7.411   5.447
12899TIP3    H138642   2.469   7.427   5.355
12899TIP3    H238643   2.535   7.491   5.475
12900TIP3   OH238644   2.146   7.604   5.547
12900TIP3    H138645   2.217   7.661   5.518
12900TIP3    H238646   2.166   7.585   5.638
12901TIP3   OH238647   2.447   7.903   6.312
12901TIP3    H138648   2.471   7.946   6.394
12901TIP3    H238649   2.496   7.821   6.313
12902TIP3   OH238650   2.307   7.312   5.629
12902TIP3    H138651   2.287   7.390   5.681
12902TIP3    H238652   2.376   7.341   5.569
12903TIP3   OH238653   1.821   7.322   5.441
12903TIP3    H138654   1.816   7.414   5.469
12903TIP3    H238655   1.915   7.305   5.431
12904TIP3   OH238656   3.062   7.795   6.296
12904TIP3    H138657   2.969   7.808   6.312
12904TIP3    H238658   3.066   7.731   6.225
12905TIP3   OH238659   2.728   8.004   5.703
12905TIP3    H138660   2.655   7.943   5.707
12905TIP3    H238661   2.798   7.962   5.753
12906TIP3   OH238662   4.246   0.166   5.152
12906TIP3    H138663   4.208   0.207   5.074
12906TIP3    H238664   4.312   0.106   5.118
12907TIP3   OH238665   1.353   7.491   5.276
12907TIP3    H138666   1.371   7.582   5.299
12907TIP3    H238667   1.258   7.483   5.283
12908TIP3   OH238668   1.772   7.232   6.166
12908TIP3    H138669   1.742   7.197   6.082
12908TIP3    H238670   1.767   7.158   6.226
12909TIP3   OH238671   1.590   7.983   5.079
12909TIP3    H138672   1.643   7.970   5.158
12909TIP3    H238673   1.651   7.970   5.007
12910TIP3   OH238674   4.923   0.198   4.888
12910TIP3    H138675   4.917   0.254   4.965
12910TIP3    H238676   4.888   0.114   4.916
12911TIP3   OH238677   5.509   0.476   6.221
12911TIP3    H138678   5.512   0.564   6.257
12911TIP3    H238679   5.424   0.442   6.247
12912TIP3   OH238680   1.793   7.934   5.269
12912TIP3    H138681   1.758   7.893   5.348
12912TIP3    H238682   1.830   7.861   5.219
12913TIP3   OH238683   4.885  -0.006   6.483
12913TIP3    H138684   4.887   0.052   6.559
12913TIP3    H238685   4.937   0.039   6.416
12914TIP3   OH238686   1.894   7.736   5.082
12914TIP3    H138687   1.872   7.722   4.990
12914TIP3    H238688   1.987   7.756   5.081
12915TIP3   OH238689   5.416   0.398   6.536
12915TIP3    H138690   5.494   0.349   6.509
12915TIP3    H238691   5.396   0.363   6.623
12916TIP3   OH238692   5.600   0.049   4.746
12916TIP3    H138693   5.545   0.003   4.683
12916TIP3    H238694   5.671   0.086   4.693
12917TIP3   OH238695   2.201   7.792   6.565
12917TIP3    H138696   2.202   7.719   6.504
12917TIP3    H238697   2.152   7.861   6.520
12918TIP3   OH238698   2.192   7.597   6.369
12918TIP3    H138699   2.215   7.633   6.283
12918TIP3    H238700   2.100   7.575   6.362
12919TIP3   OH238701   5.048   0.128   6.304
12919TIP3    H138702   5.128   0.138   6.254
12919TIP3    H238703   4.983   0.182   6.257
12920TIP3   OH238704   5.633   0.070   6.625
12920TIP3    H138705   5.678  -0.014   6.636
12920TIP3    H238706   5.701   0.135   6.642
12921TIP3   OH238707   5.661   0.328   6.392
12921TIP3    H138708   5.611   0.385   6.333
12921TIP3    H238709   5.752   0.342   6.368
12922TIP3   OH238710   2.069   7.900   6.785
12922TIP3    H138711   1.997   7.844   6.813
12922TIP3    H238712   2.106   7.855   6.709
12923TIP3   OH238713   2.312   7.376   6.487
12923TIP3    H138714   2.272   7.454   6.448
12923TIP3    H238715   2.247   7.307   6.476
12924TIP3   OH238716   2.439   7.854   6.688
12924TIP3    H138717   2.419   7.849   6.781
12924TIP3    H238718   2.358   7.829   6.644
12925TIP3   OH238719   2.677   7.795   6.552
12925TIP3    H138720   2.600   7.802   6.610
12925TIP3    H238721   2.749   7.772   6.611
12926TIP3   OH238722   2.919   7.763   6.693
12926TIP3    H138723   2.932   7.668   6.704
12926TIP3    H238724   2.911   7.796   6.782
12927TIP3   OH238725   1.902   7.699   6.870
12927TIP3    H138726   1.878   7.610   6.844
12927TIP3    H238727   1.952   7.687   6.950
12928TIP3   OH238728   2.383   7.368   6.751
12928TIP3    H138729   2.449   7.300   6.749
12928TIP3    H238730   2.353   7.375   6.660
12929TIP3   OH238731   2.465   7.588   6.900
12929TIP3    H138732   2.439   7.515   6.843
12929TIP3    H238733   2.392   7.649   6.895
12930TIP3   OH238734   3.967   0.126   5.177
12930TIP3    H138735   4.054   0.157   5.200
12930TIP3    H238736   3.979   0.033   5.157
12931TIP3   OH238737   5.678   0.232   5.112
12931TIP3    H138738   5.739   0.297   5.076
12931TIP3    H238739   5.727   0.191   5.184
12932TIP3   OH238740   5.822   0.102   5.300
12932TIP3    H138741   5.760   0.060   5.359
12932TIP3    H238742   5.887   0.142   5.358
12933TIP3   OH238743   5.853   0.517   5.752
12933TIP3    H138744   5.876   0.442   5.697
12933TIP3    H238745   5.836   0.588   5.689
12934TIP3   OH238746   5.775   0.026   4.951
12934TIP3    H138747   5.705   0.026   4.886
12934TIP3    H238748   5.756   0.101   5.008
12935TIP3   OH238749   2.761   7.706   4.878
12935TIP3    H138750   2.713   7.746   4.806
12935TIP3    H238751   2.751   7.612   4.864
12936TIP3   OH238752   2.795   7.979   5.437
12936TIP3    H138753   2.803   7.885   5.424
12936TIP3    H238754   2.779   7.989   5.531
12937TIP3   OH238755   4.256   0.054   6.194
12937TIP3    H138756   4.243   0.013   6.109
12937TIP3    H238757   4.347   0.034   6.217
12938TIP3   OH238758   5.916   0.379   6.314
12938TIP3    H138759   5.975   0.305   6.301
12938TIP3    H238760   5.945   0.444   6.251
12939TIP3   OH238761   6.096   0.180   6.280
12939TIP3    H138762   6.022   0.128   6.313
12939TIP3    H238763   6.173   0.128   6.303
12940TIP3   OH238764   2.720   7.437   4.845
12940TIP3    H138765   2.789   7.408   4.905
12940TIP3    H238766   2.642   7.390   4.875
12941TIP3   OH238767   2.791   7.713   5.312
12941TIP3    H138768   2.835   7.629   5.325
12941TIP3    H238769   2.836   7.752   5.236
12942TIP3   OH238770   2.944   7.882   5.828
12942TIP3    H138771   3.025   7.902   5.781
12942TIP3    H238772   2.958   7.918   5.916
12943TIP3   OH238773   5.845   0.011   6.058
12943TIP3    H138774   5.772   0.041   6.112
12943TIP3    H238775   5.880   0.091   6.019
12944TIP3   OH238776   3.476   7.632   6.595
12944TIP3    H138777   3.539   7.572   6.554
12944TIP3    H238778   3.436   7.678   6.521
12945TIP3   OH238779   2.901   7.465   5.361
12945TIP3    H138780   2.945   7.449   5.445
12945TIP3    H238781   2.838   7.393   5.354
12946TIP3   OH238782   1.606   7.450   6.193
12946TIP3    H138783   1.662   7.372   6.194
12946TIP3    H238784   1.666   7.523   6.176
12947TIP3   OH238785   1.381   7.772   6.257
12947TIP3    H138786   1.440   7.746   6.186
12947TIP3    H238787   1.380   7.867   6.254
12948TIP3   OH238788   3.325   7.742   6.399
12948TIP3    H138789   3.244   7.784   6.429
12948TIP3    H238790   3.295   7.670   6.343
12949TIP3   OH238791   2.948   7.383   4.997
12949TIP3    H138792   2.994   7.320   4.940
12949TIP3    H238793   3.008   7.457   5.003
12950TIP3   OH238794   1.380   7.225   5.757
12950TIP3    H138795   1.291   7.217   5.793
12950TIP3    H238796   1.369   7.278   5.678
12951TIP3   OH238797   1.606   7.277   6.539
12951TIP3    H138798   1.551   7.260   6.615
12951TIP3    H238799   1.549   7.323   6.477
12952TIP3   OH238800   3.236   7.494   6.294
12952TIP3    H138801   3.147   7.479   6.262
12952TIP3    H238802   3.279   7.409   6.288
12953TIP3   OH238803   2.444   7.425   5.930
12953TIP3    H138804   2.404   7.352   5.978
12953TIP3    H238805   2.512   7.384   5.877
12954TIP3   OH238806   2.947   7.343   5.822
12954TIP3    H138807   2.982   7.391   5.747
12954TIP3    H238808   2.852   7.358   5.818
12955TIP3   OH238809   3.059   7.419   5.583
12955TIP3    H138810   3.128   7.359   5.555
12955TIP3    H238811   3.096   7.506   5.570
12956TIP3   OH238812   1.683   7.129   5.926
12956TIP3    H138813   1.594   7.094   5.934
12956TIP3    H238814   1.739   7.052   5.922
12957TIP3   OH238815   1.463   7.016   5.590
12957TIP3    H138816   1.504   7.071   5.523
12957TIP3    H238817   1.438   7.077   5.659
12958TIP3   OH238818   2.154   7.170   5.820
12958TIP3    H138819   2.205   7.215   5.753
12958TIP3    H238820   2.197   7.193   5.903
12959TIP3   OH238821   2.662   7.313   5.797
12959TIP3    H138822   2.672   7.276   5.709
12959TIP3    H238823   2.664   7.237   5.855
12960TIP3   OH238824   2.713   7.259   5.364
12960TIP3    H138825   2.632   7.304   5.389
12960TIP3    H238826   2.704   7.171   5.402
12961TIP3   OH238827   1.630   7.207   5.277
12961TIP3    H138828   1.667   7.121   5.260
12961TIP3    H238829   1.690   7.247   5.341
12962TIP3   OH238830   2.100   7.359   5.434
12962TIP3    H138831   2.152   7.299   5.488
12962TIP3    H238832   2.116   7.446   5.473
12963TIP3   OH238833   1.901   7.423   6.778
12963TIP3    H138834   1.860   7.363   6.840
12963TIP3    H238835   1.993   7.428   6.806
12964TIP3   OH238836   2.150   7.410   6.903
12964TIP3    H138837   2.231   7.391   6.855
12964TIP3    H238838   2.144   7.340   6.967
12965TIP3   OH238839   2.982   7.494   6.719
12965TIP3    H138840   2.998   7.466   6.809
12965TIP3    H238841   3.068   7.489   6.677
12966TIP3   OH238842   7.018   0.293   5.042
12966TIP3    H138843   7.015   0.387   5.022
12966TIP3    H238844   6.954   0.254   4.983
12967TIP3   OH238845   7.006   0.387   5.381
12967TIP3    H138846   7.050   0.367   5.463
12967TIP3    H238847   6.966   0.304   5.354
12968TIP3   OH238848   6.295   0.269   5.743
12968TIP3    H138849   6.330   0.213   5.812
12968TIP3    H238850   6.371   0.297   5.693
12969TIP3   OH238851   7.271   0.675   5.084
12969TIP3    H138852   7.251   0.615   5.156
12969TIP3    H238853   7.304   0.754   5.126
12970TIP3   OH238854   6.358   0.671   5.518
12970TIP3    H138855   6.288   0.606   5.519
12970TIP3    H238856   6.417   0.641   5.449
12971TIP3   OH238857   3.154   7.907   5.209
12971TIP3    H138858   3.111   7.988   5.235
12971TIP3    H238859   3.084   7.852   5.175
12972TIP3   OH238860   6.043   0.194   5.433
12972TIP3    H138861   6.104   0.124   5.456
12972TIP3    H238862   6.092   0.250   5.373
12973TIP3   OH238863   6.833   0.595   5.441
12973TIP3    H138864   6.875   0.521   5.398
12973TIP3    H238865   6.905   0.645   5.479
12974TIP3   OH238866   5.014   7.956   5.404
12974TIP3    H138867   5.032   8.041   5.444
12974TIP3    H238868   5.043   7.965   5.314
12975TIP3   OH238869   7.230   0.111   5.439
12975TIP3    H138870   7.266   0.025   5.462
12975TIP3    H238871   7.195   0.100   5.351
12976TIP3   OH238872   3.744   7.781   5.394
12976TIP3    H138873   3.724   7.853   5.333
12976TIP3    H238874   3.691   7.708   5.362
12977TIP3   OH238875   4.433   7.891   5.022
12977TIP3    H138876   4.493   7.886   5.096
12977TIP3    H238877   4.487   7.921   4.949
12978TIP3   OH238878   3.370   7.998   5.518
12978TIP3    H138879   3.453   7.979   5.561
12978TIP3    H238880   3.372   7.948   5.437
12979TIP3   OH238881   6.640   0.166   5.331
12979TIP3    H138882   6.734   0.153   5.336
12979TIP3    H238883   6.606   0.084   5.297
12980TIP3   OH238884   7.908   0.161   5.573
12980TIP3    H138885   7.818   0.193   5.571
12980TIP3    H238886   7.946   0.199   5.652
12981TIP3   OH238887   3.723   7.785   5.843
12981TIP3    H138888   3.671   7.818   5.769
12981TIP3    H238889   3.668   7.801   5.919
12982TIP3   OH238890   6.995   0.508   4.861
12982TIP3    H138891   6.949   0.515   4.778
12982TIP3    H238892   6.994   0.597   4.897
12983TIP3   OH238893   6.663   0.506   5.624
12983TIP3    H138894   6.621   0.582   5.664
12983TIP3    H238895   6.715   0.543   5.553
12984TIP3   OH238896   4.599   7.909   5.239
12984TIP3    H138897   4.562   7.884   5.324
12984TIP3    H238898   4.660   7.980   5.260
12985TIP3   OH238899   3.612   7.891   5.611
12985TIP3    H138900   3.671   7.962   5.638
12985TIP3    H238901   3.658   7.847   5.540
12986TIP3   OH238902   6.538   0.725   5.728
12986TIP3    H138903   6.501   0.753   5.644
12986TIP3    H238904   6.469   0.673   5.769
12987TIP3   OH238905   5.909   0.323   4.992
12987TIP3    H138906   5.855   0.334   4.914
12987TIP3    H238907   5.946   0.410   5.008
12988TIP3   OH238908   4.807   7.855   5.573
12988TIP3    H138909   4.721   7.872   5.535
12988TIP3    H238910   4.869   7.879   5.505
12989TIP3   OH238911   4.067   7.480   5.568
12989TIP3    H138912   4.059   7.388   5.593
12989TIP3    H238913   3.991   7.522   5.607
12990TIP3   OH238914   7.325   0.672   4.801
12990TIP3    H138915   7.259   0.681   4.732
12990TIP3    H238916   7.274   0.666   4.882
12991TIP3   OH238917   7.622   0.883   5.461
12991TIP3    H138918   7.620   0.797   5.418
12991TIP3    H238919   7.670   0.939   5.401
12992TIP3   OH238920   6.855   0.210   4.833
12992TIP3    H138921   6.775   0.262   4.821
12992TIP3    H238922   6.896   0.209   4.747
12993TIP3   OH238923   6.802   0.023   4.521
12993TIP3    H138924   6.864   0.082   4.564
12993TIP3    H238925   6.857  -0.040   4.474
12994TIP3   OH238926   7.736   0.488   5.428
12994TIP3    H138927   7.651   0.531   5.427
12994TIP3    H238928   7.767   0.494   5.337
12995TIP3   OH238929   7.190   0.301   4.784
12995TIP3    H138930   7.136   0.345   4.850
12995TIP3    H238931   7.272   0.281   4.829
12996TIP3   OH238932   7.418   0.345   5.699
12996TIP3    H138933   7.419   0.425   5.752
12996TIP3    H238934   7.333   0.348   5.653
12997TIP3   OH238935   6.430   0.276   5.185
12997TIP3    H138936   6.391   0.215   5.123
12997TIP3    H238937   6.500   0.226   5.227
12998TIP3   OH238938   6.545   0.618   5.323
12998TIP3    H138939   6.510   0.625   5.235
12998TIP3    H238940   6.636   0.589   5.310
12999TIP3   OH238941   6.531   0.281   5.556
12999TIP3    H138942   6.573   0.247   5.477
12999TIP3    H238943   6.579   0.361   5.576
13000TIP3   OH238944   6.738   0.760   5.915
13000TIP3    H138945   6.794   0.832   5.886
13000TIP3    H238946   6.680   0.743   5.841
13001TIP3   OH238947   7.019   0.177   4.612
13001TIP3    H138948   7.081   0.230   4.662
13001TIP3    H238949   7.054   0.176   4.523
13002TIP3   OH238950   6.451   0.373   6.022
13002TIP3    H138951   6.449   0.463   5.990
13002TIP3    H238952   6.359   0.348   6.031
13003TIP3   OH238953   4.702   7.439   4.666
13003TIP3    H138954   4.625   7.459   4.719
13003TIP3    H238955   4.713   7.515   4.609
13004TIP3   OH238956   6.313   0.112   4.997
13004TIP3    H138957   6.244   0.162   4.954
13004TIP3    H238958   6.274   0.026   5.013
13005TIP3   OH238959   6.100   0.526   5.878
13005TIP3    H138960   6.018   0.524   5.828
13005TIP3    H238961   6.122   0.434   5.892
13006TIP3   OH238962   7.671   0.320   5.876
13006TIP3    H138963   7.584   0.332   5.837
13006TIP3    H238964   7.688   0.226   5.866
13007TIP3   OH238965   6.358   0.600   5.884
13007TIP3    H138966   6.345   0.669   5.948
13007TIP3    H238967   6.270   0.572   5.859
13008TIP3   OH238968   3.830   7.572   5.695
13008TIP3    H138969   3.746   7.539   5.663
13008TIP3    H238970   3.806   7.652   5.743
13009TIP3   OH238971   4.364   7.694   5.891
13009TIP3    H138972   4.433   7.667   5.951
13009TIP3    H238973   4.282   7.675   5.938
13010TIP3   OH238974   7.434   0.096   5.813
13010TIP3    H138975   7.384   0.094   5.895
13010TIP3    H238976   7.412   0.179   5.773
13011TIP3   OH238977   7.107   0.152   4.356
13011TIP3    H138978   7.069   0.125   4.273
13011TIP3    H238979   7.136   0.242   4.342
13012TIP3   OH238980   3.975   7.618   4.662
13012TIP3    H138981   3.941   7.624   4.751
13012TIP3    H238982   3.941   7.536   4.628
13013TIP3   OH238983   6.607   0.075   5.716
13013TIP3    H138984   6.557   0.084   5.798
13013TIP3    H238985   6.582   0.151   5.664
13014TIP3   OH238986   3.653   7.978   5.227
13014TIP3    H138987   3.564   7.955   5.253
13014TIP3    H238988   3.661   7.945   5.137
13015TIP3   OH238989   6.974  -0.007   4.945
13015TIP3    H138990   6.930   0.068   4.907
13015TIP3    H238991   7.042  -0.030   4.882
13016TIP3   OH238992   7.165   0.304   6.025
13016TIP3    H138993   7.133   0.236   6.085
13016TIP3    H238994   7.257   0.317   6.051
13017TIP3   OH238995   7.135   0.081   5.185
13017TIP3    H138996   7.086   0.144   5.132
13017TIP3    H238997   7.147   0.006   5.126
13018TIP3   OH238998   6.430   0.099   5.925
13018TIP3    H138999   6.446   0.165   5.993
13018TIP3    H239000   6.414   0.018   5.973
13019TIP3   OH239001   3.640   7.600   4.636
13019TIP3    H139002   3.631   7.599   4.731
13019TIP3    H239003   3.561   7.645   4.604
13020TIP3   OH239004   3.189   7.642   5.504
13020TIP3    H139005   3.264   7.674   5.554
13020TIP3    H239006   3.226   7.613   5.421
13021TIP3   OH239007   3.111   7.608   5.016
13021TIP3    H139008   3.155   7.641   4.937
13021TIP3    H239009   3.048   7.675   5.039
13022TIP3   OH239010   7.155   0.311   5.602
13022TIP3    H139011   7.187   0.244   5.542
13022TIP3    H239012   7.118   0.262   5.676
13023TIP3   OH239013   4.011   7.774   5.283
13023TIP3    H139014   3.935   7.772   5.341
13023TIP3    H239015   4.086   7.765   5.343
13024TIP3   OH239016   3.413   7.857   5.287
13024TIP3    H139017   3.324   7.861   5.251
13024TIP3    H239018   3.441   7.767   5.272
13025TIP3   OH239019   3.656   7.853   4.983
13025TIP3    H139020   3.751   7.864   4.971
13025TIP3    H239021   3.619   7.873   4.897
13026TIP3   OH239022   4.471   7.861   5.487
13026TIP3    H139023   4.447   7.879   5.579
13026TIP3    H239024   4.405   7.800   5.457
13027TIP3   OH239025   3.527   7.880   4.742
13027TIP3    H139026   3.463   7.831   4.690
13027TIP3    H239027   3.589   7.915   4.678
13028TIP3   OH239028   6.445   0.665   6.161
13028TIP3    H139029   6.516   0.659   6.225
13028TIP3    H239030   6.365   0.657   6.213
13029TIP3   OH239031   6.907   0.120   5.380
13029TIP3    H139032   6.973   0.071   5.331
13029TIP3    H239033   6.906   0.078   5.467
13030TIP3   OH239034   3.556   7.609   5.273
13030TIP3    H139035   3.526   7.534   5.325
13030TIP3    H239036   3.584   7.571   5.190
13031TIP3   OH239037   6.872   0.031   5.648
13031TIP3    H139038   6.785   0.057   5.675
13031TIP3    H239039   6.931   0.081   5.704
13032TIP3   OH239040   6.626   0.359   4.811
13032TIP3    H139041   6.551   0.300   4.801
13032TIP3    H239042   6.616   0.395   4.899
13033TIP3   OH239043   7.491   0.603   5.386
13033TIP3    H139044   7.525   0.647   5.308
13033TIP3    H239045   7.408   0.565   5.358
13034TIP3   OH239046   4.233   7.708   4.664
13034TIP3    H139047   4.139   7.693   4.660
13034TIP3    H239048   4.243   7.802   4.675
13035TIP3   OH239049   7.044   0.650   5.796
13035TIP3    H139050   7.082   0.637   5.884
13035TIP3    H239051   6.958   0.689   5.813
13036TIP3   OH239052   4.309   7.965   4.729
13036TIP3    H139053   4.403   7.975   4.741
13036TIP3    H239054   4.282   8.044   4.682
13037TIP3   OH239055   6.301   0.337   5.416
13037TIP3    H139056   6.332   0.327   5.326
13037TIP3    H239057   6.375   0.308   5.470
13038TIP3   OH239058   6.656   0.554   4.621
13038TIP3    H139059   6.711   0.623   4.658
13038TIP3    H239060   6.657   0.484   4.686
13039TIP3   OH239061   6.184   0.301   6.046
13039TIP3    H139062   6.180   0.279   6.139
13039TIP3    H239063   6.103   0.266   6.010
13040TIP3   OH239064   6.917   0.404   6.108
13040TIP3    H139065   6.853   0.349   6.063
13040TIP3    H239066   7.000   0.382   6.066
13041TIP3   OH239067   7.550   0.042   4.567
13041TIP3    H139068   7.490   0.000   4.505
13041TIP3    H239069   7.566   0.129   4.530
13042TIP3   OH239070   7.826   0.849   5.646
13042TIP3    H139071   7.743   0.879   5.610
13042TIP3    H239072   7.881   0.833   5.568
13043TIP3   OH239073   7.256   0.486   5.291
13043TIP3    H139074   7.166   0.460   5.311
13043TIP3    H239075   7.295   0.407   5.253
13044TIP3   OH239076   5.995   0.004   4.786
13044TIP3    H139077   6.049   0.081   4.800
13044TIP3    H239078   5.922   0.013   4.848
13045TIP3   OH239079   6.565   0.472   5.059
13045TIP3    H139080   6.490   0.509   5.012
13045TIP3    H239081   6.527   0.403   5.114
13046TIP3   OH239082   7.086   0.661   5.520
13046TIP3    H139083   7.071   0.665   5.614
13046TIP3    H239084   7.168   0.613   5.510
13047TIP3   OH239085   6.957   0.517   4.490
13047TIP3    H139086   7.039   0.471   4.473
13047TIP3    H239087   6.895   0.477   4.428
13048TIP3   OH239088   3.548   7.862   6.046
13048TIP3    H139089   3.453   7.874   6.049
13048TIP3    H239090   3.567   7.800   6.117
13049TIP3   OH239091   7.224   0.446   4.555
13049TIP3    H139092   7.207   0.398   4.636
13049TIP3    H239093   7.318   0.464   4.557
13050TIP3   OH239094   6.391   0.480   4.581
13050TIP3    H139095   6.353   0.475   4.494
13050TIP3    H239096   6.478   0.516   4.567
13051TIP3   OH239097   6.121   0.238   4.854
13051TIP3    H139098   6.053   0.259   4.919
13051TIP3    H239099   6.113   0.308   4.789
13052TIP3   OH239100   4.402   7.924   5.747
13052TIP3    H139101   4.482   7.963   5.783
13052TIP3    H239102   4.387   7.846   5.801
13053TIP3   OH239103   4.290   7.667   4.934
13053TIP3    H139104   4.271   7.683   4.842
13053TIP3    H239105   4.331   7.749   4.964
13054TIP3   OH239106   3.932   7.859   5.032
13054TIP3    H139107   4.004   7.913   4.999
13054TIP3    H239108   3.956   7.841   5.123
13055TIP3   OH239109   7.078   0.142   5.803
13055TIP3    H139110   7.108   0.183   5.884
13055TIP3    H239111   7.127   0.060   5.798
13056TIP3   OH239112   4.104   7.566   5.113
13056TIP3    H139113   4.082   7.644   5.164
13056TIP3    H239114   4.173   7.596   5.053
13057TIP3   OH239115   3.617   7.584   4.914
13057TIP3    H139116   3.606   7.673   4.947
13057TIP3    H239117   3.711   7.567   4.920
13058TIP3   OH239118   7.696   0.046   5.789
13058TIP3    H139119   7.603   0.054   5.805
13058TIP3    H239120   7.702  -0.006   5.708
13059TIP3   OH239121   7.362   0.248   5.192
13059TIP3    H139122   7.288   0.187   5.196
13059TIP3    H239123   7.431   0.204   5.241
13060TIP3   OH239124   6.039   0.422   4.646
13060TIP3    H139125   6.005   0.470   4.570
13060TIP3    H239126   6.105   0.363   4.609
13061TIP3   OH239127   3.176   7.743   4.789
13061TIP3    H139128   3.188   7.838   4.798
13061TIP3    H239129   3.118   7.733   4.714
13062TIP3   OH239130   3.567   7.486   5.658
13062TIP3    H139131   3.538   7.452   5.573
13062TIP3    H239132   3.558   7.412   5.718
13063TIP3   OH239133   6.224   0.586   6.326
13063TIP3    H139134   6.271   0.503   6.320
13063TIP3    H239135   6.156   0.581   6.259
13064TIP3   OH239136   6.217   0.228   4.565
13064TIP3    H139137   6.269   0.213   4.644
13064TIP3    H239138   6.280   0.226   4.494
13065TIP3   OH239139   6.823   0.655   6.147
13065TIP3    H139140   6.794   0.690   6.063
13065TIP3    H239141   6.854   0.566   6.127
13066TIP3   OH239142   6.724   0.459   4.364
13066TIP3    H139143   6.698   0.521   4.432
13066TIP3    H239144   6.692   0.374   4.395
13067TIP3   OH239145   7.310   0.702   5.705
13067TIP3    H139146   7.332   0.791   5.735
13067TIP3    H239147   7.222   0.686   5.741
13068TIP3   OH239148   6.379   0.366   6.305
13068TIP3    H139149   6.449   0.361   6.240
13068TIP3    H239150   6.422   0.399   6.385
13069TIP3   OH239151   6.428   0.180   4.749
13069TIP3    H139152   6.396   0.138   4.828
13069TIP3    H239153   6.463   0.109   4.696
13070TIP3   OH239154   6.708   0.270   5.977
13070TIP3    H139155   6.623   0.314   5.985
13070TIP3    H239156   6.746   0.306   5.897
13071TIP3   OH239157   3.698   8.002   4.572
13071TIP3    H139158   3.672   7.989   4.481
13071TIP3    H239159   3.793   8.018   4.568
13072TIP3   OH239160   7.182   0.619   6.042
13072TIP3    H139161   7.256   0.559   6.032
13072TIP3    H239162   7.150   0.601   6.131
13073TIP3   OH239163   7.403   0.295   4.230
13073TIP3    H139164   7.336   0.265   4.169
13073TIP3    H239165   7.468   0.339   4.175
13074TIP3   OH239166   6.811   0.044   6.083
13074TIP3    H139167   6.815  -0.028   6.020
13074TIP3    H239168   6.774   0.117   6.034
13075TIP3   OH239169   3.984   7.868   5.875
13075TIP3    H139170   4.011   7.904   5.791
13075TIP3    H239171   3.892   7.843   5.861
13076TIP3   OH239172   6.851   0.377   5.773
13076TIP3    H139173   6.938   0.407   5.747
13076TIP3    H239174   6.791   0.423   5.715
13077TIP3   OH239175   7.424   0.328   6.142
13077TIP3    H139176   7.466   0.242   6.141
13077TIP3    H239177   7.497   0.390   6.145
13078TIP3   OH239178   7.466   0.556   5.869
13078TIP3    H139179   7.408   0.610   5.815
13078TIP3    H239180   7.555   0.584   5.844
13079TIP3   OH239181   6.669   0.137   6.319
13079TIP3    H139182   6.611   0.062   6.333
13079TIP3    H239183   6.708   0.121   6.233
13080TIP3   OH239184   4.104   7.637   5.975
13080TIP3    H139185   4.062   7.717   5.942
13080TIP3    H239186   4.038   7.569   5.962
13081TIP3   OH239187   7.065   0.100   6.176
13081TIP3    H139188   7.054   0.097   6.271
13081TIP3    H239189   6.980   0.074   6.141
13082TIP3   OH239190   7.300   0.042   6.040
13082TIP3    H139191   7.224   0.045   6.097
13082TIP3    H239192   7.372   0.016   6.097
13083TIP3   OH239193   4.699   8.014   6.184
13083TIP3    H139194   4.714   7.920   6.192
13083TIP3    H239195   4.694   8.046   6.274
13084TIP3   OH239196   3.691   7.928   6.395
13084TIP3    H139197   3.692   7.843   6.352
13084TIP3    H239198   3.737   7.913   6.478
13085TIP3   OH239199   4.169   7.621   6.241
13085TIP3    H139200   4.237   7.553   6.237
13085TIP3    H239201   4.138   7.630   6.151
13086TIP3   OH239202   4.258   7.846   6.369
13086TIP3    H139203   4.227   7.771   6.318
13086TIP3    H239204   4.184   7.907   6.369
13087TIP3   OH239205   5.793   0.344   4.744
13087TIP3    H139206   5.869   0.392   4.712
13087TIP3    H239207   5.777   0.277   4.677
13088TIP3   OH239208   7.722   1.078   5.919
13088TIP3    H139209   7.662   1.034   5.980
13088TIP3    H239210   7.753   1.155   5.968
13089TIP3   OH239211   7.485   0.485   4.585
13089TIP3    H139212   7.551   0.543   4.547
13089TIP3    H239213   7.527   0.449   4.663
13090TIP3   OH239214   7.618   0.358   4.784
13090TIP3    H139215   7.553   0.324   4.844
13090TIP3    H239216   7.682   0.402   4.840
13091TIP3   OH239217   7.672   0.734   5.225
13091TIP3    H139218   7.717   0.663   5.179
13091TIP3    H239219   7.650   0.797   5.156
13092TIP3   OH239220   7.579   0.275   4.433
13092TIP3    H139221   7.510   0.274   4.367
13092TIP3    H239222   7.560   0.352   4.487
13093TIP3   OH239223   4.556   7.960   4.371
13093TIP3    H139224   4.511   8.008   4.302
13093TIP3    H239225   4.543   7.868   4.348
13094TIP3   OH239226   7.418   0.228   4.922
13094TIP3    H139227   7.430   0.134   4.909
13094TIP3    H239228   7.406   0.237   5.017
13095TIP3   OH239229   6.032   0.305   5.681
13095TIP3    H139230   6.016   0.261   5.597
13095TIP3    H239231   6.125   0.289   5.698
13096TIP3   OH239232   7.713   0.651   5.801
13096TIP3    H139233   7.776   0.581   5.785
13096TIP3    H239234   7.741   0.722   5.743
13097TIP3   OH239235   7.895   0.448   5.793
13097TIP3    H139236   7.818   0.399   5.821
13097TIP3    H239237   7.968   0.388   5.805
13098TIP3   OH239238   4.515   7.691   4.327
13098TIP3    H139239   4.582   7.665   4.390
13098TIP3    H239240   4.435   7.648   4.358
13099TIP3   OH239241   4.589   7.973   4.801
13099TIP3    H139242   4.632   7.888   4.815
13099TIP3    H239243   4.633   8.011   4.726
13100TIP3   OH239244   7.576   0.121   5.318
13100TIP3    H139245   7.657   0.140   5.270
13100TIP3    H239246   7.591   0.157   5.405
13101TIP3   OH239247   7.645   0.261   5.550
13101TIP3    H139248   7.567   0.288   5.597
13101TIP3    H239249   7.677   0.342   5.509
13102TIP3   OH239250   3.430   7.983   6.320
13102TIP3    H139251   3.523   7.985   6.345
13102TIP3    H239252   3.397   7.901   6.357
13103TIP3   OH239253   5.226   7.909   6.103
13103TIP3    H139254   5.301   7.852   6.083
13103TIP3    H239255   5.205   7.951   6.019
13104TIP3   OH239256   4.699   7.722   4.849
13104TIP3    H139257   4.743   7.706   4.933
13104TIP3    H239258   4.636   7.651   4.841
13105TIP3   OH239259   3.401   7.709   5.675
13105TIP3    H139260   3.454   7.629   5.681
13105TIP3    H239261   3.464   7.778   5.655
13106TIP3   OH239262   3.187   7.976   5.734
13106TIP3    H139263   3.234   7.970   5.651
13106TIP3    H239264   3.242   8.030   5.790
13107TIP3   OH239265   5.115   7.997   5.871
13107TIP3    H139266   5.027   8.036   5.863
13107TIP3    H239267   5.108   7.913   5.826
13108TIP3   OH239268   4.743   7.640   4.483
13108TIP3    H139269   4.789   7.578   4.426
13108TIP3    H239270   4.801   7.716   4.488
13109TIP3   OH239271   3.176   7.486   5.250
13109TIP3    H139272   3.088   7.469   5.285
13109TIP3    H239273   3.160   7.536   5.169
13110TIP3   OH239274   3.399   7.558   6.069
13110TIP3    H139275   3.344   7.540   6.146
13110TIP3    H239276   3.339   7.597   6.005
13111TIP3   OH239277   5.030   7.750   5.775
13111TIP3    H139278   4.943   7.742   5.738
13111TIP3    H239279   5.068   7.662   5.767
13112TIP3   OH239280   4.242   7.683   5.417
13112TIP3    H139281   4.202   7.610   5.465
13112TIP3    H239282   4.310   7.642   5.363
13113TIP3   OH239283   4.744   7.600   5.313
13113TIP3    H139284   4.780   7.645   5.237
13113TIP3    H239285   4.649   7.615   5.307
13114TIP3   OH239286   4.856   7.671   5.072
13114TIP3    H139287   4.924   7.612   5.040
13114TIP3    H239288   4.892   7.759   5.059
13115TIP3   OH239289   3.479   7.384   5.416
13115TIP3    H139290   3.390   7.351   5.424
13115TIP3    H239291   3.533   7.305   5.408
13116TIP3   OH239292   3.290   7.290   5.068
13116TIP3    H139293   3.318   7.340   4.991
13116TIP3    H239294   3.260   7.357   5.130
13117TIP3   OH239295   3.953   7.427   5.308
13117TIP3    H139296   4.002   7.471   5.239
13117TIP3    H239297   3.996   7.452   5.390
13118TIP3   OH239298   4.459   7.569   5.285
13118TIP3    H139299   4.469   7.535   5.196
13118TIP3    H239300   4.462   7.492   5.341
13119TIP3   OH239301   4.511   7.515   4.852
13119TIP3    H139302   4.431   7.562   4.875
13119TIP3    H239303   4.501   7.428   4.890
13120TIP3   OH239304   3.405   7.419   4.831
13120TIP3    H139305   3.450   7.356   4.775
13120TIP3    H239306   3.475   7.475   4.866
13121TIP3   OH239307   3.891   7.612   4.926
13121TIP3    H139308   3.951   7.557   4.978
13121TIP3    H239309   3.905   7.700   4.959
13122TIP3   OH239310   3.705   7.664   6.301
13122TIP3    H139311   3.671   7.595   6.358
13122TIP3    H239312   3.797   7.671   6.326
13123TIP3   OH239313   3.953   7.675   6.426
13123TIP3    H139314   4.030   7.652   6.374
13123TIP3    H239315   3.945   7.604   6.490
13124TIP3   OH239316   4.768   7.748   6.197
13124TIP3    H139317   4.786   7.717   6.286
13124TIP3    H239318   4.852   7.743   6.152
13125TIP3   OH239319   0.268   0.636   4.471
13125TIP3    H139320   0.229   0.723   4.477
13125TIP3    H239321   0.198   0.580   4.439
13126TIP3   OH239322   0.227   0.621   4.878
13126TIP3    H139323   0.273   0.612   4.961
13126TIP3    H239324   0.201   0.532   4.855
13127TIP3   OH239325   8.106   0.527   5.218
13127TIP3    H139326   8.140   0.468   5.286
13127TIP3    H239327   8.183   0.557   5.171
13128TIP3   OH239328   0.422   1.000   4.671
13128TIP3    H139329   0.434   0.912   4.707
13128TIP3    H239330   0.501   1.047   4.696
13129TIP3   OH239331   8.185   0.848   4.987
13129TIP3    H139332   8.174   0.763   4.944
13129TIP3    H239333   8.250   0.893   4.932
13130TIP3   OH239334   7.781   0.145   4.700
13130TIP3    H139335   7.740   0.228   4.724
13130TIP3    H239336   7.710   0.093   4.662
13131TIP3   OH239337   7.841   0.446   4.917
13131TIP3    H139338   7.902   0.375   4.935
13131TIP3    H239339   7.892   0.509   4.866
13132TIP3   OH239340   0.127   0.882   4.886
13132TIP3    H139341   0.152   0.794   4.858
13132TIP3    H239342   0.209   0.922   4.917
13133TIP3   OH239343   1.073   0.235   4.923
13133TIP3    H139344   1.127   0.288   4.982
13133TIP3    H239345   1.135   0.181   4.875
13134TIP3   OH239346   0.494   0.374   4.929
13134TIP3    H139347   0.545   0.297   4.957
13134TIP3    H239348   0.465   0.353   4.841
13135TIP3   OH239349   8.373   0.025   4.878
13135TIP3    H139350   8.353   0.099   4.820
13135TIP3    H239351   8.319  -0.047   4.845
13136TIP3   OH239352   0.569   0.128   4.511
13136TIP3    H139353   0.635   0.131   4.580
13136TIP3    H239354   0.613   0.164   4.434
13137TIP3   OH239355   7.996   0.235   5.004
13137TIP3    H139356   8.080   0.217   5.047
13137TIP3    H239357   8.001   0.185   4.922
13138TIP3   OH239358   8.426   0.428   4.809
13138TIP3    H139359   8.517   0.401   4.819
13138TIP3    H239360   8.381   0.350   4.777
13139TIP3   OH239361   8.350   0.027   5.326
13139TIP3    H139362   8.300   0.062   5.252
13139TIP3    H239363   8.296   0.045   5.403
13140TIP3   OH239364   0.116   0.854   4.368
13140TIP3    H139365   0.058   0.791   4.323
13140TIP3    H239366   0.134   0.921   4.303
13141TIP3   OH239367   8.483   0.776   5.093
13141TIP3    H139368   8.438   0.846   5.140
13141TIP3    H239369   8.532   0.820   5.024
13142TIP3   OH239370   0.727   0.175   4.729
13142TIP3    H139371   0.693   0.144   4.813
13142TIP3    H239372   0.778   0.254   4.752
13143TIP3   OH239373   8.239   0.133   5.097
13143TIP3    H139374   8.294   0.207   5.121
13143TIP3    H239375   8.286   0.090   5.025
13144TIP3   OH239376   8.349   0.974   5.233
13144TIP3    H139377   8.330   1.030   5.158
13144TIP3    H239378   8.264   0.944   5.263
13145TIP3   OH239379   7.712   0.572   4.464
13145TIP3    H139380   7.676   0.599   4.379
13145TIP3    H239381   7.749   0.652   4.501
13146TIP3   OH239382   0.878   0.078   5.067
13146TIP3    H139383   0.797   0.090   5.018
13146TIP3    H239384   0.944   0.126   5.017
13147TIP3   OH239385   5.860   7.738   5.052
13147TIP3    H139386   5.853   7.646   5.076
13147TIP3    H239387   5.784   7.779   5.093
13148TIP3   OH239388   0.536   0.968   4.102
13148TIP3    H139389   0.476   0.918   4.158
13148TIP3    H239390   0.617   0.972   4.153
13149TIP3   OH239391   0.113   0.482   4.300
13149TIP3    H139392   0.033   0.533   4.286
13149TIP3    H239393   0.154   0.478   4.214
13150TIP3   OH239394   0.088   0.285   3.990
13150TIP3    H139395   0.149   0.345   4.032
13150TIP3    H239396   0.144   0.220   3.947
13151TIP3   OH239397   0.437   0.518   4.290
13151TIP3    H139398   0.383   0.543   4.365
13151TIP3    H239399   0.516   0.480   4.328
13152TIP3   OH239400   8.236   0.569   4.665
13152TIP3    H139401   8.199   0.506   4.604
13152TIP3    H239402   8.311   0.524   4.704
13153TIP3   OH239403   8.374   0.978   4.830
13153TIP3    H139404   8.375   0.976   4.734
13153TIP3    H239405   8.464   0.955   4.855
13154TIP3   OH239406   8.332   0.555   5.035
13154TIP3    H139407   8.373   0.520   4.956
13154TIP3    H239408   8.384   0.634   5.055
13155TIP3   OH239409   8.430   0.873   5.487
13155TIP3    H139410   8.525   0.873   5.500
13155TIP3    H239411   8.417   0.909   5.400
13156TIP3   OH239412   0.277   0.462   4.076
13156TIP3    H139413   0.341   0.499   4.135
13156TIP3    H239414   0.318   0.466   3.989
13157TIP3   OH239415   8.252   0.638   5.499
13157TIP3    H139416   8.268   0.732   5.496
13157TIP3    H239417   8.157   0.630   5.508
13158TIP3   OH239418   6.483   7.679   4.146
13158TIP3    H139419   6.406   7.699   4.200
13158TIP3    H239420   6.496   7.758   4.093
13159TIP3   OH239421   8.121   0.395   4.484
13159TIP3    H139422   8.052   0.439   4.434
13159TIP3    H239423   8.083   0.310   4.507
13160TIP3   OH239424   7.905   0.761   5.390
13160TIP3    H139425   7.834   0.736   5.330
13160TIP3    H239426   7.934   0.679   5.428
13161TIP3   OH239427   8.101   0.937   5.332
13161TIP3    H139428   8.073   0.994   5.404
13161TIP3    H239429   8.042   0.862   5.337
13162TIP3   OH239430   5.624   7.827   5.182
13162TIP3    H139431   5.541   7.797   5.145
13162TIP3    H239432   5.602   7.908   5.228
13163TIP3   OH239433   6.166   7.944   5.378
13163TIP3    H139434   6.237   7.910   5.433
13163TIP3    H239435   6.086   7.925   5.427
13164TIP3   OH239436   0.395   0.438   3.830
13164TIP3    H139437   0.362   0.428   3.740
13164TIP3    H239438   0.469   0.498   3.821
13165TIP3   OH239439   5.771   7.874   4.149
13165TIP3    H139440   5.737   7.880   4.239
13165TIP3    H239441   5.736   7.791   4.116
13166TIP3   OH239442   8.399   0.336   5.184
13166TIP3    H139443   8.365   0.351   5.272
13166TIP3    H239444   8.380   0.416   5.136
13167TIP3   OH239445   8.277   0.221   4.713
13167TIP3    H139446   8.188   0.195   4.739
13167TIP3    H239447   8.287   0.189   4.624
13168TIP3   OH239448   0.259   0.295   4.441
13168TIP3    H139449   0.205   0.359   4.395
13168TIP3    H239450   0.319   0.262   4.375
13169TIP3   OH239451   0.420   0.312   4.671
13169TIP3    H139452   0.354   0.331   4.604
13169TIP3    H239453   0.475   0.244   4.632
13170TIP3   OH239454   8.221   0.352   5.401
13170TIP3    H139455   8.259   0.415   5.462
13170TIP3    H239456   8.210   0.272   5.454
13171TIP3   OH239457   5.438   7.854   4.124
13171TIP3    H139458   5.428   7.857   4.219
13171TIP3    H239459   5.360   7.900   4.091
13172TIP3   OH239460   4.983   7.896   4.997
13172TIP3    H139461   5.057   7.932   5.046
13172TIP3    H239462   5.020   7.876   4.911
13173TIP3   OH239463   4.906   7.865   4.500
13173TIP3    H139464   4.949   7.899   4.422
13173TIP3    H239465   4.843   7.932   4.524
13174TIP3   OH239466   0.371   0.550   5.102
13174TIP3    H139467   0.427   0.505   5.039
13174TIP3    H239468   0.378   0.499   5.182
13175TIP3   OH239469   0.141   0.015   4.765
13175TIP3    H139470   0.063   0.016   4.821
13175TIP3    H239471   0.215   0.009   4.825
13176TIP3   OH239472   8.041   0.097   4.772
13176TIP3    H139473   7.952   0.101   4.737
13176TIP3    H239474   8.069   0.007   4.755
13177TIP3   OH239475   8.289   0.100   4.469
13177TIP3    H139476   8.384   0.111   4.456
13177TIP3    H239477   8.251   0.118   4.383
13178TIP3   OH239478   0.597   0.115   4.977
13178TIP3    H139479   0.579   0.129   5.070
13178TIP3    H239480   0.529   0.054   4.948
13179TIP3   OH239481   8.165   0.123   4.226
13179TIP3    H139482   8.100   0.075   4.175
13179TIP3    H239483   8.221   0.165   4.161
13180TIP3   OH239484   8.188   0.931   5.632
13180TIP3    H139485   8.280   0.905   5.640
13180TIP3    H239486   8.157   0.936   5.722
13181TIP3   OH239487   0.182   0.345   4.863
13181TIP3    H139488   0.257   0.307   4.817
13181TIP3    H239489   0.188   0.310   4.952
13182TIP3   OH239490   5.353   7.866   4.755
13182TIP3    H139491   5.323   7.789   4.804
13182TIP3    H239492   5.381   7.830   4.671
13183TIP3   OH239493   0.164   0.271   5.136
13183TIP3    H139494   0.077   0.305   5.156
13183TIP3    H239495   0.223   0.321   5.192
13184TIP3   OH239496   8.399   0.656   4.266
13184TIP3    H139497   8.332   0.594   4.238
13184TIP3    H239498   8.363   0.697   4.345
13185TIP3   OH239499   6.026   7.972   4.149
13185TIP3    H139500   5.932   7.952   4.147
13185TIP3    H239501   6.029   8.067   4.162
13186TIP3   OH239502   0.420   0.219   4.224
13186TIP3    H139503   0.513   0.204   4.238
13186TIP3    H239504   0.415   0.305   4.182
13187TIP3   OH239505   8.091   0.594   4.900
13187TIP3    H139506   8.122   0.589   4.809
13187TIP3    H239507   8.161   0.555   4.951
13188TIP3   OH239508   8.490   0.820   4.068
13188TIP3    H139509   8.484   0.906   4.111
13188TIP3    H239510   8.454   0.759   4.131
13189TIP3   OH239511   7.982   0.554   5.548
13189TIP3    H139512   7.985   0.533   5.641
13189TIP3    H239513   7.904   0.508   5.515
13190TIP3   OH239514   0.835   0.298   4.042
13190TIP3    H139515   0.778   0.252   3.981
13190TIP3    H239516   0.856   0.380   3.998
13191TIP3   OH239517   0.452   0.752   4.780
13191TIP3    H139518   0.377   0.693   4.792
13191TIP3    H239519   0.525   0.694   4.759
13192TIP3   OH239520   7.801   0.264   4.268
13192TIP3    H139521   7.854   0.343   4.279
13192TIP3    H239522   7.730   0.274   4.331
13193TIP3   OH239523   8.296   0.771   4.490
13193TIP3    H139524   8.232   0.839   4.509
13193TIP3    H239525   8.279   0.703   4.555
13194TIP3   OH239526   0.381   0.921   4.990
13194TIP3    H139527   0.436   0.903   5.066
13194TIP3    H239528   0.420   0.871   4.919
13195TIP3   OH239529   0.329   0.840   3.818
13195TIP3    H139530   0.369   0.774   3.875
13195TIP3    H239531   0.237   0.813   3.812
13196TIP3   OH239532   8.182   0.102   5.533
13196TIP3    H139533   8.087   0.112   5.536
13196TIP3    H239534   8.202   0.046   5.608
13197TIP3   OH239535   0.490   0.693   3.994
13197TIP3    H139536   0.449   0.732   4.071
13197TIP3    H239537   0.566   0.749   3.977
13198TIP3   OH239538   8.190   0.783   3.949
13198TIP3    H139539   8.191   0.696   3.909
13198TIP3    H239540   8.277   0.818   3.934
13199TIP3   OH239541   7.929   0.503   4.326
13199TIP3    H139542   7.854   0.521   4.381
13199TIP3    H239543   7.940   0.581   4.273
13200TIP3   OH239544   0.550   0.165   5.247
13200TIP3    H139545   0.634   0.186   5.287
13200TIP3    H239546   0.523   0.083   5.289
13201TIP3   OH239547   6.086   7.925   4.420
13201TIP3    H139548   6.068   7.945   4.328
13201TIP3    H239549   6.132   8.003   4.452
13202TIP3   OH239550   0.069   0.109   4.513
13202TIP3    H139551   0.134   0.174   4.487
13202TIP3    H239552   0.092   0.088   4.604
13203TIP3   OH239553   0.363   0.369   5.307
13203TIP3    H139554   0.363   0.377   5.403
13203TIP3    H239555   0.426   0.299   5.289
13204TIP3   OH239556   5.901   7.821   4.597
13204TIP3    H139557   5.878   7.898   4.650
13204TIP3    H239558   5.970   7.852   4.538
13205TIP3   OH239559   5.414   7.842   4.403
13205TIP3    H139560   5.403   7.932   4.434
13205TIP3    H239561   5.508   7.826   4.408
13206TIP3   OH239562   0.613   0.528   4.693
13206TIP3    H139563   0.544   0.462   4.701
13206TIP3    H239564   0.684   0.495   4.747
13207TIP3   OH239565   7.943   0.746   4.176
13207TIP3    H139566   7.973   0.827   4.135
13207TIP3    H239567   7.962   0.678   4.111
13208TIP3   OH239568   7.806  -0.012   4.276
13208TIP3    H139569   7.822   0.082   4.287
13208TIP3    H239570   7.755  -0.018   4.195
13209TIP3   OH239571   5.361   7.749   5.134
13209TIP3    H139572   5.333   7.718   5.047
13209TIP3    H239573   5.351   7.672   5.190
13210TIP3   OH239574   8.028   0.816   5.841
13210TIP3    H139575   8.085   0.742   5.818
13210TIP3    H239576   7.973   0.828   5.764
13211TIP3   OH239577   8.020   0.521   4.030
13211TIP3    H139578   8.075   0.496   4.105
13211TIP3    H239579   8.081   0.528   3.957
13212TIP3   OH239580   0.008   0.740   3.807
13212TIP3    H139581   0.004   0.759   3.901
13212TIP3    H239582   0.011   0.644   3.802
13213TIP3   OH239583   8.190   0.603   5.782
13213TIP3    H139584   8.256   0.588   5.714
13213TIP3    H239585   8.206   0.534   5.847
13214TIP3   OH239586   8.219   0.454   4.215
13214TIP3    H139587   8.193   0.413   4.298
13214TIP3    H239588   8.255   0.382   4.163
13215TIP3   OH239589   8.477   0.498   5.428
13215TIP3    H139590   8.412   0.565   5.449
13215TIP3    H239591   8.540   0.544   5.371
13216TIP3   OH239592   8.322   0.259   4.050
13216TIP3    H139593   8.292   0.257   3.960
13216TIP3    H239594   8.418   0.262   4.044
13217TIP3   OH239595   0.602   0.582   3.698
13217TIP3    H139596   0.592   0.531   3.617
13217TIP3    H239597   0.585   0.673   3.671
13218TIP3   OH239598   0.077   0.290   5.565
13218TIP3    H139599   0.093   0.218   5.504
13218TIP3    H239600   0.045   0.361   5.510
13219TIP3   OH239601   0.112   0.101   5.360
13219TIP3    H139602   0.140   0.142   5.279
13219TIP3    H239603   0.020   0.079   5.345
13220TIP3   OH239604   0.142   0.622   5.251
13220TIP3    H139605   0.225   0.609   5.205
13220TIP3    H239606   0.091   0.677   5.192
13221TIP3   OH239607   8.459   0.392   5.792
13221TIP3    H139608   8.400   0.321   5.818
13221TIP3    H239609   8.495   0.364   5.708
13222TIP3   OH239610   5.901   7.885   5.455
13222TIP3    H139611   5.860   7.966   5.424
13222TIP3    H239612   5.833   7.818   5.445
13223TIP3   OH239613   0.345   0.362   5.586
13223TIP3    H139614   0.371   0.366   5.678
13223TIP3    H239615   0.252   0.338   5.588
13224TIP3   OH239616   8.317   0.165   5.870
13224TIP3    H139617   8.319   0.081   5.824
13224TIP3    H239618   8.367   0.150   5.950
13225TIP3   OH239619   6.002   7.891   5.710
13225TIP3    H139620   6.068   7.822   5.703
13225TIP3    H239621   5.958   7.890   5.625
13226TIP3   OH239622   0.294   0.049   5.918
13226TIP3    H139623   0.330  -0.003   5.846
13226TIP3    H239624   0.286   0.138   5.882
13227TIP3   OH239625   7.654   0.624   4.197
13227TIP3    H139626   7.690   0.683   4.131
13227TIP3    H239627   7.626   0.547   4.148
13228TIP3   OH239628   0.795   0.885   4.184
13228TIP3    H139629   0.858   0.955   4.168
13228TIP3    H239630   0.781   0.844   4.099
13229TIP3   OH239631   0.781   0.699   4.392
13229TIP3    H139632   0.735   0.631   4.343
13229TIP3    H239633   0.784   0.774   4.332
13230TIP3   OH239634   0.787   0.537   3.898
13230TIP3    H139635   0.733   0.516   3.821
13230TIP3    H239636   0.783   0.632   3.905
13231TIP3   OH239637   0.674   0.198   3.841
13231TIP3    H139638   0.629   0.229   3.762
13231TIP3    H239639   0.670   0.103   3.835
13232TIP3   OH239640   0.642   0.435   4.437
13232TIP3    H139641   0.727   0.393   4.441
13232TIP3    H239642   0.633   0.480   4.521
13233TIP3   OH239643   7.839   0.520   5.177
13233TIP3    H139644   7.825   0.490   5.087
13233TIP3    H239645   7.934   0.524   5.187
13234TIP3   OH239646   6.304   7.941   3.811
13234TIP3    H139647   6.370   7.912   3.873
13234TIP3    H239648   6.223   7.900   3.841
13235TIP3   OH239649   0.693   0.180   4.260
13235TIP3    H139650   0.741   0.098   4.272
13235TIP3    H239651   0.741   0.225   4.190
13236TIP3   OH239652   0.846   0.418   4.815
13236TIP3    H139653   0.886   0.498   4.780
13236TIP3    H239654   0.898   0.397   4.893
13237TIP3   OH239655   8.055   0.229   5.806
13237TIP3    H139656   8.148   0.231   5.829
13237TIP3    H239657   8.024   0.145   5.840
13238TIP3   OH239658   6.484   7.953   4.310
13238TIP3    H139659   6.523   7.956   4.397
13238TIP3    H239660   6.420   7.882   4.315
13239TIP3   OH239661   5.194   7.967   5.168
13239TIP3    H139662   5.249   7.889   5.166
13239TIP3    H239663   5.254   8.039   5.149
13240TIP3   OH239664   7.818   0.212   5.223
13240TIP3    H139665   7.864   0.199   5.140
13240TIP3    H239666   7.852   0.295   5.256
13241TIP3   OH239667   6.524   7.883   3.966
13241TIP3    H139668   6.572   7.822   3.910
13241TIP3    H239669   6.578   7.962   3.968
13242TIP3   OH239670   4.970   7.742   4.734
13242TIP3    H139671   4.883   7.727   4.770
13242TIP3    H239672   4.955   7.792   4.654
13243TIP3   OH239673   5.189   7.792   5.543
13243TIP3    H139674   5.136   7.786   5.622
13243TIP3    H239675   5.136   7.844   5.482
13244TIP3   OH239676   6.808   8.017   5.222
13244TIP3    H139677   6.714   8.004   5.209
13244TIP3    H239678   6.842   7.930   5.240
13245TIP3   OH239679   6.038   7.945   4.904
13245TIP3    H139680   5.997   7.873   4.952
13245TIP3    H239681   6.105   7.904   4.850
13246TIP3   OH239682   6.518   7.864   4.828
13246TIP3    H139683   6.557   7.893   4.746
13246TIP3    H239684   6.423   7.867   4.812
13247TIP3   OH239685   6.617   7.898   4.575
13247TIP3    H139686   6.691   7.844   4.547
13247TIP3    H239687   6.638   7.986   4.545
13248TIP3   OH239688   5.276   7.639   4.896
13248TIP3    H139689   5.186   7.607   4.903
13248TIP3    H239690   5.330   7.560   4.893
13249TIP3   OH239691   5.090   7.547   4.555
13249TIP3    H139692   5.117   7.597   4.478
13249TIP3    H239693   5.057   7.614   4.616
13250TIP3   OH239694   5.749   7.682   4.793
13250TIP3    H139695   5.798   7.727   4.724
13250TIP3    H239696   5.792   7.710   4.874
13251TIP3   OH239697   6.244   7.819   4.771
13251TIP3    H139698   6.264   7.785   4.683
13251TIP3    H239699   6.248   7.742   4.828
13252TIP3   OH239700   6.294   7.757   4.335
13252TIP3    H139701   6.216   7.807   4.361
13252TIP3    H239702   6.283   7.672   4.377
13253TIP3   OH239703   5.201   7.676   4.318
13253TIP3    H139704   5.247   7.615   4.260
13253TIP3    H239705   5.271   7.732   4.353
13254TIP3   OH239706   5.689   7.872   4.414
13254TIP3    H139707   5.749   7.819   4.466
13254TIP3    H239708   5.704   7.962   4.443
13255TIP3   OH239709   5.489   7.910   5.783
13255TIP3    H139710   5.450   7.854   5.849
13255TIP3    H239711   5.582   7.912   5.805
13256TIP3   OH239712   5.732   7.907   5.905
13256TIP3    H139713   5.822   7.939   5.893
13256TIP3    H239714   5.742   7.829   5.960
13257TIP3   OH239715   0.983   0.391   4.265
13257TIP3    H139716   0.991   0.479   4.229
13257TIP3    H239717   0.925   0.346   4.204
13258TIP3   OH239718   1.144   0.770   4.392
13258TIP3    H139719   1.160   0.681   4.422
13258TIP3    H239720   1.223   0.794   4.343
13259TIP3   OH239721   1.557   0.216   4.414
13259TIP3    H139722   1.573   0.310   4.407
13259TIP3    H239723   1.546   0.187   4.324
13260TIP3   OH239724   1.208   0.522   4.470
13260TIP3    H139725   1.281   0.489   4.523
13260TIP3    H239726   1.190   0.452   4.408
13261TIP3   OH239727   0.954   1.002   3.930
13261TIP3    H139728   1.018   0.961   3.872
13261TIP3    H239729   0.926   1.081   3.883
13262TIP3   OH239730   1.358   0.555   3.864
13262TIP3    H139731   1.291   0.618   3.888
13262TIP3    H239732   1.353   0.486   3.930
13263TIP3   OH239733   1.619   0.425   4.131
13263TIP3    H139734   1.532   0.407   4.166
13263TIP3    H239735   1.611   0.510   4.087
13264TIP3   OH239736   1.548   0.086   3.550
13264TIP3    H139737   1.586   0.084   3.638
13264TIP3    H239738   1.497   0.167   3.547
13265TIP3   OH239739   1.018   0.109   4.445
13265TIP3    H139740   1.031   0.177   4.510
13265TIP3    H239741   1.106   0.089   4.413
13266TIP3   OH239742   1.019   0.092   3.955
13266TIP3    H139743   1.114   0.089   3.966
13266TIP3    H239744   0.993   0.174   3.996
13267TIP3   OH239745   1.392   0.411   4.285
13267TIP3    H139746   1.335   0.448   4.217
13267TIP3    H239747   1.364   0.319   4.291
13268TIP3   OH239748   1.420   0.318   3.717
13268TIP3    H139749   1.328   0.293   3.712
13268TIP3    H239750   1.421   0.401   3.764
13269TIP3   OH239751   1.509   0.115   4.174
13269TIP3    H139752   1.490   0.024   4.149
13269TIP3    H239753   1.591   0.135   4.127
13270TIP3   OH239754   0.999   0.490   3.686
13270TIP3    H139755   1.080   0.537   3.668
13270TIP3    H239756   0.988   0.495   3.781
13271TIP3   OH239757   1.517   0.104   3.856
13271TIP3    H139758   1.499   0.183   3.806
13271TIP3    H239759   1.612   0.096   3.856
13272TIP3   OH239760   1.139   0.260   3.753
13272TIP3    H139761   1.080   0.321   3.709
13272TIP3    H239762   1.085   0.183   3.771
13273TIP3   OH239763   7.035   7.931   4.649
13273TIP3    H139764   7.050   7.898   4.561
13273TIP3    H239765   7.076   7.867   4.707
13274TIP3   OH239766   0.917   0.850   3.666
13274TIP3    H139767   0.954   0.931   3.630
13274TIP3    H239768   0.909   0.791   3.591
13275TIP3   OH239769   1.289   0.126   4.800
13275TIP3    H139770   1.306   0.048   4.747
13275TIP3    H239771   1.373   0.172   4.801
13276TIP3   OH239772   1.194   0.512   4.759
13276TIP3    H139773   1.156   0.470   4.682
13276TIP3    H239774   1.215   0.601   4.730
13277TIP3   OH239775   6.745   7.942   4.197
13277TIP3    H139776   6.656   7.943   4.231
13277TIP3    H239777   6.759   8.030   4.163
13278TIP3   OH239778   1.350   0.086   5.067
13278TIP3    H139779   1.278   0.055   5.121
13278TIP3    H239780   1.316   0.081   4.977
13279TIP3   OH239781   7.026   7.856   4.382
13279TIP3    H139782   6.936   7.831   4.399
13279TIP3    H239783   7.076   7.775   4.394
13280TIP3   OH239784   6.857   7.767   4.015
13280TIP3    H139785   6.865   7.813   3.932
13280TIP3    H239786   6.813   7.829   4.073
13281TIP3   OH239787   1.864   0.028   4.293
13281TIP3    H139788   1.876   0.036   4.199
13281TIP3    H239789   1.914  -0.051   4.316
13282TIP3   OH239790   6.951   7.877   3.764
13282TIP3    H139791   7.007   7.816   3.716
13282TIP3    H239792   7.012   7.934   3.810
13283TIP3   OH239793   1.791   0.099   3.779
13283TIP3    H139794   1.864   0.039   3.766
13283TIP3    H239795   1.832   0.178   3.815
13284TIP3   OH239796   7.431   5.709   1.108
13284TIP3    H139797   7.441   5.758   1.026
13284TIP3    H239798   7.488   5.633   1.097
13285TIP3   OH239799   7.034   6.011   1.041
13285TIP3    H139800   7.025   5.920   1.012
13285TIP3    H239801   7.104   6.008   1.106
13286TIP3   OH239802   7.189   5.145   1.203
13286TIP3    H139803   7.136   5.073   1.168
13286TIP3    H239804   7.279   5.114   1.199
13287TIP3   OH239805   7.278   5.656   1.344
13287TIP3    H139806   7.323   5.691   1.421
13287TIP3    H239807   7.343   5.660   1.274
13288TIP3   OH239808   7.452   6.078   0.992
13288TIP3    H139809   7.492   6.112   0.912
13288TIP3    H239810   7.371   6.128   1.001
13289TIP3   OH239811   6.600   5.725   1.092
13289TIP3    H139812   6.538   5.656   1.118
13289TIP3    H239813   6.683   5.679   1.079
13290TIP3   OH239814   7.089   5.745   0.994
13290TIP3    H139815   7.118   5.696   1.071
13290TIP3    H239816   7.167   5.794   0.967
13291TIP3   OH239817   7.399   5.234   0.969
13291TIP3    H139818   7.494   5.221   0.977
13291TIP3    H239819   7.388   5.329   0.974
13292TIP3   OH239820   7.731   5.287   1.236
13292TIP3    H139821   7.653   5.231   1.237
13292TIP3    H239822   7.722   5.340   1.315
13293TIP3   OH239823   7.407   6.114   1.291
13293TIP3    H139824   7.449   6.029   1.309
13293TIP3    H239825   7.395   6.115   1.196
13294TIP3   OH239826   0.323   5.631   1.303
13294TIP3    H139827   0.316   5.715   1.257
13294TIP3    H239828   0.284   5.568   1.243
13295TIP3   OH239829   0.622   5.850   1.296
13295TIP3    H139830   0.562   5.803   1.354
13295TIP3    H239831   0.649   5.927   1.346
13296TIP3   OH239832   0.269   6.364   1.322
13296TIP3    H139833   0.316   6.291   1.280
13296TIP3    H239834   0.304   6.366   1.411
13297TIP3   OH239835   0.271   5.837   1.126
13297TIP3    H139836   0.247   5.812   1.037
13297TIP3    H239837   0.227   5.921   1.140
13298TIP3   OH239838   7.795   5.593   1.201
13298TIP3    H139839   7.713   5.568   1.243
13298TIP3    H239840   7.813   5.681   1.232
13299TIP3   OH239841   0.711   6.086   1.412
13299TIP3    H139842   0.751   6.076   1.499
13299TIP3    H239843   0.753   6.163   1.375
13300TIP3   OH239844   0.414   6.186   1.145
13300TIP3    H139845   0.462   6.107   1.124
13300TIP3    H239846   0.474   6.258   1.123
13301TIP3   OH239847   0.566   5.973   1.058
13301TIP3    H139848   0.553   5.902   0.995
13301TIP3    H239849   0.584   5.929   1.141
13302TIP3   OH239850   0.220   5.470   1.102
13302TIP3    H139851   0.137   5.509   1.076
13302TIP3    H239852   0.270   5.464   1.020
13303TIP3   OH239853   0.198   5.251   0.795
13303TIP3    H139854   0.262   5.313   0.832
13303TIP3    H239855   0.239   5.165   0.806
13304TIP3   OH239856   0.573   5.549   1.054
13304TIP3    H139857   0.563   5.563   1.148
13304TIP3    H239858   0.634   5.476   1.047
13305TIP3   OH239859   0.426   6.194   1.711
13305TIP3    H139860   0.462   6.282   1.705
13305TIP3    H239861   0.413   6.167   1.620
13306TIP3   OH239862   0.393   5.434   0.883
13306TIP3    H139863   0.454   5.487   0.934
13306TIP3    H239864   0.422   5.443   0.793
13307TIP3   OH239865   0.155   6.090   1.154
13307TIP3    H139866   0.243   6.127   1.162
13307TIP3    H239867   0.106   6.156   1.105
13308TIP3   OH239868   8.229   5.321   1.257
13308TIP3    H139869   8.173   5.398   1.245
13308TIP3    H239870   8.254   5.324   1.349
13309TIP3   OH239871   0.739   6.018   0.508
13309TIP3    H139872   0.741   6.112   0.493
13309TIP3    H239873   0.823   5.987   0.475
13310TIP3   OH239874   0.058   6.305   0.983
13310TIP3    H139875   0.014   6.287   0.900
13310TIP3    H239876   0.025   6.391   1.008
13311TIP3   OH239877   8.101   6.119   1.408
13311TIP3    H139878   8.076   6.078   1.491
13311TIP3    H239879   8.017   6.143   1.368
13312TIP3   OH239880   0.260   6.236   0.612
13312TIP3    H139881   0.310   6.163   0.575
13312TIP3    H239882   0.295   6.246   0.701
13313TIP3   OH239883   0.313   6.277   0.883
13313TIP3    H139884   0.227   6.279   0.924
13313TIP3    H239885   0.371   6.242   0.950
13314TIP3   OH239886   0.482   5.444   0.629
13314TIP3    H139887   0.443   5.414   0.547
13314TIP3    H239888   0.571   5.471   0.605
13315TIP3   OH239889   0.334   5.251   1.233
13315TIP3    H139890   0.288   5.330   1.206
13315TIP3    H239891   0.386   5.227   1.156
13316TIP3   OH239892   8.425   5.037   1.271
13316TIP3    H139893   8.504   5.026   1.217
13316TIP3    H239894   8.355   5.052   1.208
13317TIP3   OH239895   8.279   5.067   1.026
13317TIP3    H139896   8.212   5.032   0.968
13317TIP3    H239897   8.340   5.113   0.968
13318TIP3   OH239898   8.479   5.599   1.035
13318TIP3    H139899   8.412   5.533   1.017
13318TIP3    H239900   8.458   5.631   1.123
13319TIP3   OH239901   0.352   5.005   0.838
13319TIP3    H139902   0.375   4.919   0.874
13319TIP3    H239903   0.387   5.067   0.902
13320TIP3   OH239904   0.462   5.191   1.000
13320TIP3    H139905   0.552   5.158   0.995
13320TIP3    H239906   0.465   5.276   0.957
13321TIP3   OH239907   0.141   5.760   0.885
13321TIP3    H139908   0.093   5.843   0.884
13321TIP3    H239909   0.085   5.700   0.934
13322TIP3   OH239910   0.690   6.084   0.777
13322TIP3    H139911   0.649   6.018   0.833
13322TIP3    H239912   0.701   6.041   0.692
13323TIP3   OH239913   8.290   5.946   1.307
13323TIP3    H139914   8.339   6.011   1.257
13323TIP3    H239915   8.228   5.997   1.358
13324TIP3   OH239916   7.929   5.157   1.065
13324TIP3    H139917   7.979   5.234   1.042
13324TIP3    H239918   7.845   5.191   1.095
13325TIP3   OH239919   8.423   5.708   1.276
13325TIP3    H139920   8.375   5.789   1.294
13325TIP3    H239921   8.491   5.706   1.344
13326TIP3   OH239922   8.264   6.205   1.191
13326TIP3    H139923   8.205   6.191   1.265
13326TIP3    H239924   8.295   6.295   1.202
13327TIP3   OH239925   0.431   5.817   0.656
13327TIP3    H139926   0.473   5.795   0.739
13327TIP3    H239927   0.349   5.769   0.657
13328TIP3   OH239928   0.764   6.292   0.477
13328TIP3    H139929   0.772   6.343   0.397
13328TIP3    H239930   0.691   6.332   0.524
13329TIP3   OH239931   0.590   5.760   0.879
13329TIP3    H139932   0.566   5.692   0.942
13329TIP3    H239933   0.683   5.746   0.864
13330TIP3   OH239934   8.313   5.774   0.679
13330TIP3    H139935   8.320   5.683   0.650
13330TIP3    H239936   8.299   5.768   0.773
13331TIP3   OH239937   8.254   5.796   0.948
13331TIP3    H139938   8.326   5.772   1.006
13331TIP3    H239939   8.247   5.891   0.955
13332TIP3   OH239940   8.056   5.515   1.198
13332TIP3    H139941   7.960   5.525   1.200
13332TIP3    H239942   8.088   5.603   1.181
13333TIP3   OH239943   8.495   5.989   0.888
13333TIP3    H139944   8.407   6.014   0.917
13333TIP3    H239945   8.523   6.061   0.832
13334TIP3   OH239946   0.190   5.019   1.193
13334TIP3    H139947   0.223   5.108   1.208
13334TIP3    H239948   0.268   4.964   1.196
13335TIP3   OH239949   8.234   6.070   0.957
13335TIP3    H139950   8.223   6.138   0.891
13335TIP3    H239951   8.248   6.118   1.039
13336TIP3   OH239952   8.011   5.673   0.922
13336TIP3    H139953   8.081   5.733   0.946
13336TIP3    H239954   8.053   5.607   0.867
13337TIP3   OH239955   7.975   4.891   0.995
13337TIP3    H139956   7.966   4.974   1.042
13337TIP3    H239957   7.911   4.832   1.037
13338TIP3   OH239958   0.740   6.399   1.362
13338TIP3    H139959   0.679   6.443   1.304
13338TIP3    H239960   0.813   6.460   1.372
13339TIP3   OH239961   7.804   5.846   1.325
13339TIP3    H139962   7.830   5.930   1.364
13339TIP3    H239963   7.746   5.870   1.253
13340TIP3   OH239964   8.451   5.984   0.569
13340TIP3    H139965   8.408   5.912   0.613
13340TIP3    H239966   8.525   5.944   0.523
13341TIP3   OH239967   0.387   6.028   0.487
13341TIP3    H139968   0.419   5.961   0.547
13341TIP3    H239969   0.444   6.023   0.411
13342TIP3   OH239970   8.127   5.467   0.793
13342TIP3    H139971   8.178   5.436   0.868
13342TIP3    H239972   8.191   5.482   0.724
13343TIP3   OH239973   0.180   5.698   0.620
13343TIP3    H139974   0.157   5.710   0.712
13343TIP3    H239975   0.164   5.605   0.604
13344TIP3   OH239976   8.296   5.395   0.999
13344TIP3    H139977   8.276   5.357   1.085
13344TIP3    H239978   8.345   5.326   0.953
13345TIP3   OH239979   8.431   5.214   0.848
13345TIP3    H139980   8.397   5.219   0.758
13345TIP3    H239981   8.525   5.225   0.838
13346TIP3   OH239982   0.719   5.525   0.509
13346TIP3    H139983   0.703   5.481   0.425
13346TIP3    H239984   0.694   5.616   0.494
13347TIP3   OH239985   8.250   6.283   0.784
13347TIP3    H139986   8.340   6.264   0.755
13347TIP3    H239987   8.209   6.326   0.709
13348TIP3   OH239988   7.759   5.667   0.837
13348TIP3    H139989   7.849   5.674   0.867
13348TIP3    H239990   7.745   5.573   0.825
13349TIP3   OH239991   7.626   6.331   1.341
13349TIP3    H139992   7.554   6.315   1.279
13349TIP3    H239993   7.589   6.309   1.426
13350TIP3   OH239994   0.893   6.621   1.390
13350TIP3    H139995   0.958   6.664   1.445
13350TIP3    H239996   0.923   6.637   1.300
13351TIP3   OH239997   0.863   5.701   0.879
13351TIP3    H139998   0.902   5.773   0.829
13351TIP3    H239999   0.925   5.683   0.949
13352TIP3   OH240000   0.901   5.487   0.707
13352TIP3    H140001   0.836   5.495   0.637
13352TIP3    H240002   0.880   5.559   0.767
13353TIP3   OH240003   0.673   5.164   0.656
13353TIP3    H140004   0.735   5.233   0.635
13353TIP3    H240005   0.726   5.093   0.692
13354TIP3   OH240006   0.563   6.386   1.042
13354TIP3    H140007   0.618   6.378   0.964
13354TIP3    H240008   0.596   6.463   1.087
13355TIP3   OH240009   0.220   6.479   1.600
13355TIP3    H140010   0.146   6.492   1.541
13355TIP3    H240011   0.180   6.460   1.685
13356TIP3   OH240012   0.471   6.484   1.713
13356TIP3    H140013   0.389   6.486   1.663
13356TIP3    H240014   0.534   6.532   1.659
13357TIP3   OH240015   0.639   6.635   1.551
13357TIP3    H140016   0.620   6.728   1.537
13357TIP3    H240017   0.677   6.605   1.468
13358TIP3   OH240018   7.708   6.113   1.121
13358TIP3    H140019   7.649   6.038   1.123
13358TIP3    H240020   7.657   6.183   1.081
13359TIP3   OH240021   0.005   6.210   0.713
13359TIP3    H140022   0.088   6.238   0.675
13359TIP3    H240023  -0.024   6.139   0.656
13360TIP3   OH240024   0.712   6.354   0.810
13360TIP3    H140025   0.711   6.258   0.804
13360TIP3    H240026   0.663   6.383   0.733
13361TIP3   OH240027   7.916   6.117   0.756
13361TIP3    H140028   7.839   6.062   0.773
13361TIP3    H240029   7.984   6.055   0.729
13362TIP3   OH240030   0.996   5.894   0.746
13362TIP3    H140031   1.033   5.863   0.663
13362TIP3    H240032   1.017   5.987   0.748
13363TIP3   OH240033   1.833   6.585   0.489
13363TIP3    H140034   1.817   6.558   0.398
13363TIP3    H240035   1.800   6.675   0.492
13364TIP3   OH240036   1.237   6.455   0.774
13364TIP3    H140037   1.268   6.390   0.836
13364TIP3    H240038   1.157   6.418   0.737
13365TIP3   OH240039   2.024   6.519   0.086
13365TIP3    H140040   2.056   6.436   0.051
13365TIP3    H240041   2.101   6.559   0.127
13366TIP3   OH240042   1.118   5.481   0.542
13366TIP3    H140043   1.150   5.572   0.545
13366TIP3    H240044   1.045   5.479   0.604
13367TIP3   OH240045   1.506   6.444   0.680
13367TIP3    H140046   1.415   6.447   0.706
13367TIP3    H240047   1.538   6.533   0.691
13368TIP3   OH240048   1.585   6.053   0.157
13368TIP3    H140049   1.593   5.961   0.130
13368TIP3    H240050   1.541   6.049   0.242
13369TIP3   OH240051   1.490   6.085   0.425
13369TIP3    H140052   1.459   6.071   0.514
13369TIP3    H240053   1.509   6.178   0.420
13370TIP3   OH240054   1.182   5.758   0.576
13370TIP3    H140055   1.260   5.754   0.632
13370TIP3    H240056   1.204   5.823   0.509
13371TIP3   OH240057   1.812   6.214   0.350
13371TIP3    H140058   1.734   6.268   0.359
13371TIP3    H240059   1.881   6.275   0.325
13372TIP3   OH240060   1.564   6.345   0.429
13372TIP3    H140061   1.537   6.415   0.369
13372TIP3    H240062   1.549   6.381   0.516
13373TIP3   OH240063   1.244   5.952   0.385
13373TIP3    H140064   1.300   6.029   0.378
13373TIP3    H240065   1.286   5.886   0.330
13374TIP3   OH240066   1.084   5.194   0.572
13374TIP3    H140067   1.099   5.286   0.550
13374TIP3    H240068   1.155   5.171   0.631
13375TIP3   OH240069   1.112   6.139   0.794
13375TIP3    H140070   1.064   6.211   0.753
13375TIP3    H240071   1.194   6.180   0.825
13376TIP3   OH240072   1.723   6.269   0.061
13376TIP3    H140073   1.672   6.197   0.099
13376TIP3    H240074   1.798   6.226   0.020
13377TIP3   OH240075   7.784   2.293   6.896
13377TIP3    H140076   7.824   2.222   6.946
13377TIP3    H240077   7.837   2.300   6.817
13378TIP3   OH240078   1.390   5.762   0.258
13378TIP3    H140079   1.429   5.721   0.335
13378TIP3    H240080   1.461   5.766   0.194
13379TIP3   OH240081   1.912   6.029   0.113
13379TIP3    H140082   1.860   6.064   0.185
13379TIP3    H240083   1.901   5.935   0.118
13380TIP3   OH240084   1.525   6.557   0.259
13380TIP3    H140085   1.619   6.548   0.246
13380TIP3    H240086   1.492   6.596   0.178
13381TIP3   OH240087   0.975   5.926   0.405
13381TIP3    H140088   1.069   5.943   0.410
13381TIP3    H240089   0.969   5.832   0.385
13382TIP3   OH240090   0.910   6.531   0.882
13382TIP3    H140091   0.848   6.470   0.842
13382TIP3    H240092   0.966   6.476   0.937
13383TIP3   OH240093   1.069   6.375   1.046
13383TIP3    H140094   1.116   6.304   1.088
13383TIP3    H240095   1.064   6.444   1.113
13384TIP3   OH240096   1.005   6.342   0.633
13384TIP3    H140097   0.926   6.297   0.604
13384TIP3    H240098   1.002   6.427   0.590
13385TIP3   OH240099   1.787   6.491   0.218
13385TIP3    H140100   1.869   6.517   0.177
13385TIP3    H240101   1.754   6.420   0.163
13386TIP3   OH240102   1.097   6.318   0.253
13386TIP3    H140103   1.096   6.333   0.347
13386TIP3    H240104   1.176   6.267   0.237
13387TIP3   OH240105   5.268   7.213   1.230
13387TIP3    H140106   5.282   7.306   1.248
13387TIP3    H240107   5.300   7.200   1.141
13388TIP3   OH240108   5.275   7.649   1.161
13388TIP3    H140109   5.261   7.702   1.083
13388TIP3    H240110   5.212   7.577   1.153
13389TIP3   OH240111   6.778   7.156   1.526
13389TIP3    H140112   6.732   7.231   1.489
13389TIP3    H240113   6.710   7.090   1.538
13390TIP3   OH240114   7.027   7.542   1.491
13390TIP3    H140115   7.002   7.460   1.534
13390TIP3    H240116   7.105   7.571   1.538
13391TIP3   OH240117   6.620   7.946   1.462
13391TIP3    H140118   6.671   7.876   1.422
13391TIP3    H240119   6.618   7.924   1.556
13392TIP3   OH240120   6.597   7.331   1.406
13392TIP3    H140121   6.623   7.375   1.325
13392TIP3    H240122   6.565   7.402   1.462
13393TIP3   OH240123   6.785   7.776   1.320
13393TIP3    H140124   6.841   7.703   1.294
13393TIP3    H240125   6.829   7.853   1.284
13394TIP3   OH240126   6.969   7.601   1.224
13394TIP3    H140127   6.970   7.518   1.177
13394TIP3    H240128   6.997   7.579   1.312
13395TIP3   OH240129   6.565   6.937   1.172
13395TIP3    H140130   6.498   6.948   1.240
13395TIP3    H240131   6.630   7.004   1.191
13396TIP3   OH240132   6.574   6.877   0.886
13396TIP3    H140133   6.571   6.910   0.976
13396TIP3    H240134   6.663   6.844   0.876
13397TIP3   OH240135   6.795   7.088   1.246
13397TIP3    H140136   6.804   7.068   1.340
13397TIP3    H240137   6.886   7.094   1.215
13398TIP3   OH240138   6.826   6.930   1.011
13398TIP3    H140139   6.818   7.004   1.071
13398TIP3    H240140   6.832   6.969   0.925
13399TIP3   OH240141   6.570   7.605   1.452
13399TIP3    H140142   6.606   7.643   1.372
13399TIP3    H240143   6.482   7.642   1.460
13400TIP3   OH240144   7.230   6.221   1.018
13400TIP3    H140145   7.144   6.182   1.002
13400TIP3    H240146   7.228   6.305   0.971
13401TIP3   OH240147   7.089   7.545   0.637
13401TIP3    H140148   7.082   7.638   0.614
13401TIP3    H240149   7.181   7.523   0.620
13402TIP3   OH240150   6.474   7.967   1.029
13402TIP3    H140151   6.390   7.933   0.997
13402TIP3    H240152   6.465   8.062   1.022
13403TIP3   OH240153   6.603   7.803   0.753
13403TIP3    H140154   6.652   7.732   0.711
13403TIP3    H240155   6.644   7.811   0.839
13404TIP3   OH240156   6.715   7.831   1.004
13404TIP3    H140157   6.630   7.851   1.044
13404TIP3    H240158   6.778   7.840   1.075
13405TIP3   OH240159   6.822   7.031   0.761
13405TIP3    H140160   6.782   7.000   0.679
13405TIP3    H240161   6.911   7.057   0.736
13406TIP3   OH240162   6.503   6.424   1.040
13406TIP3    H140163   6.417   6.407   1.078
13406TIP3    H240164   6.548   6.340   1.044
13407TIP3   OH240165   6.729   6.750   1.375
13407TIP3    H140166   6.685   6.752   1.290
13407TIP3    H240167   6.804   6.809   1.364
13408TIP3   OH240168   6.230   6.390   1.099
13408TIP3    H140169   6.211   6.407   1.192
13408TIP3    H240170   6.160   6.434   1.052
13409TIP3   OH240171   6.112   6.515   1.333
13409TIP3    H140172   6.075   6.571   1.265
13409TIP3    H240173   6.191   6.561   1.362
13410TIP3   OH240174   6.323   7.195   1.338
13410TIP3    H140175   6.308   7.101   1.324
13410TIP3    H240176   6.247   7.237   1.297
13411TIP3   OH240177   6.835   6.470   0.971
13411TIP3    H140178   6.799   6.424   1.047
13411TIP3    H240179   6.876   6.549   1.008
13412TIP3   OH240180   6.937   6.700   1.069
13412TIP3    H140181   7.005   6.722   1.133
13412TIP3    H240182   6.910   6.785   1.034
13413TIP3   OH240183   6.528   7.377   0.919
13413TIP3    H140184   6.511   7.469   0.941
13413TIP3    H240185   6.542   7.335   1.004
13414TIP3   OH240186   7.313   6.824   0.892
13414TIP3    H140187   7.235   6.791   0.846
13414TIP3    H240188   7.311   6.918   0.876
13415TIP3   OH240189   7.031   7.639   0.893
13415TIP3    H140190   7.005   7.580   0.964
13415TIP3    H240191   7.037   7.582   0.816
13416TIP3   OH240192   6.055   7.739   1.366
13416TIP3    H140193   6.026   7.674   1.429
13416TIP3    H240194   6.043   7.823   1.410
13417TIP3   OH240195   6.779   7.424   0.805
13417TIP3    H140196   6.837   7.416   0.880
13417TIP3    H240197   6.692   7.401   0.839
13418TIP3   OH240198   6.970   7.397   1.018
13418TIP3    H140199   6.911   7.323   1.028
13418TIP3    H240200   7.058   7.359   1.018
13419TIP3   OH240201   6.129   7.336   0.729
13419TIP3    H140202   6.137   7.246   0.697
13419TIP3    H240203   6.133   7.328   0.824
13420TIP3   OH240204   5.937   7.426   1.034
13420TIP3    H140205   6.009   7.397   1.091
13420TIP3    H240206   5.949   7.521   1.027
13421TIP3   OH240207   6.955   6.551   1.338
13421TIP3    H140208   6.866   6.531   1.308
13421TIP3    H240209   6.948   6.637   1.381
13422TIP3   OH240210   6.453   7.625   0.986
13422TIP3    H140211   6.462   7.667   1.072
13422TIP3    H240212   6.406   7.689   0.933
13423TIP3   OH240213   6.176   7.620   1.147
13423TIP3    H140214   6.194   7.704   1.104
13423TIP3    H240215   6.126   7.644   1.225
13424TIP3   OH240216   5.817   7.217   1.176
13424TIP3    H140217   5.847   7.294   1.128
13424TIP3    H240218   5.897   7.175   1.207
13425TIP3   OH240219   1.407  -0.021   1.571
13425TIP3    H140220   1.365   0.042   1.513
13425TIP3    H240221   1.501  -0.008   1.557
13426TIP3   OH240222   6.298   7.548   0.690
13426TIP3    H140223   6.255   7.465   0.711
13426TIP3    H240224   6.377   7.523   0.642
13427TIP3   OH240225   6.732   7.609   0.616
13427TIP3    H140226   6.767   7.547   0.681
13427TIP3    H240227   6.785   7.594   0.538
13428TIP3   OH240228   6.076   7.147   0.939
13428TIP3    H140229   6.056   7.075   0.999
13428TIP3    H240230   6.063   7.109   0.852
13429TIP3   OH240231   6.452   7.263   0.683
13429TIP3    H140232   6.473   7.285   0.774
13429TIP3    H240233   6.455   7.167   0.681
13430TIP3   OH240234   6.068   6.987   1.164
13430TIP3    H140235   6.147   6.977   1.218
13430TIP3    H240236   6.040   6.897   1.146
13431TIP3   OH240237   6.344   6.692   1.151
13431TIP3    H140238   6.252   6.686   1.126
13431TIP3    H240239   6.392   6.673   1.071
13432TIP3   OH240240   7.074   7.097   0.667
13432TIP3    H140241   7.063   7.044   0.588
13432TIP3    H240242   7.037   7.182   0.645
13433TIP3   OH240243   6.015   7.904   0.878
13433TIP3    H140244   6.046   7.814   0.879
13433TIP3    H240245   6.029   7.934   0.788
13434TIP3   OH240246   5.557   7.197   1.105
13434TIP3    H140247   5.652   7.197   1.111
13434TIP3    H240248   5.534   7.108   1.080
13435TIP3   OH240249   1.681   0.046   1.523
13435TIP3    H140250   1.679   0.130   1.569
13435TIP3    H240251   1.733   0.063   1.445
13436TIP3   OH240252   7.228   7.300   1.007
13436TIP3    H140253   7.281   7.370   0.967
13436TIP3    H240254   7.278   7.274   1.084
13437TIP3   OH240255   7.377   7.195   1.207
13437TIP3    H140256   7.334   7.130   1.263
13437TIP3    H240257   7.451   7.226   1.259
13438TIP3   OH240258   7.336   7.531   1.556
13438TIP3    H140259   7.414   7.481   1.576
13438TIP3    H240260   7.369   7.617   1.529
13439TIP3   OH240261   7.284   7.089   0.839
13439TIP3    H140262   7.212   7.089   0.777
13439TIP3    H240263   7.268   7.166   0.894
13440TIP3   OH240264   7.090   6.756   0.747
13440TIP3    H140265   7.059   6.765   0.657
13440TIP3    H240266   7.102   6.662   0.759
13441TIP3   OH240267   7.267   6.982   1.347
13441TIP3    H140268   7.218   6.919   1.294
13441TIP3    H240269   7.204   7.013   1.412
13442TIP3   OH240270   7.130   6.491   0.742
13442TIP3    H140271   7.214   6.477   0.784
13442TIP3    H240272   7.074   6.420   0.774
13443TIP3   OH240273   7.166   6.728   1.216
13443TIP3    H140274   7.205   6.700   1.298
13443TIP3    H240275   7.164   6.649   1.162
13444TIP3   OH240276   7.268   6.376   1.325
13444TIP3    H140277   7.235   6.400   1.412
13444TIP3    H240278   7.201   6.409   1.265
13445TIP3   OH240279   7.375   6.432   0.857
13445TIP3    H140280   7.401   6.351   0.813
13445TIP3    H240281   7.435   6.498   0.821
13446TIP3   OH240282   6.905   7.972   1.172
13446TIP3    H140283   6.963   7.954   1.098
13446TIP3    H240284   6.958   8.024   1.232
13447TIP3   OH240285   6.919   6.274   1.173
13447TIP3    H140286   6.852   6.312   1.229
13447TIP3    H240287   6.974   6.223   1.233
13448TIP3   OH240288   5.536   7.701   1.344
13448TIP3    H140289   5.544   7.673   1.253
13448TIP3    H240290   5.527   7.797   1.338
13449TIP3   OH240291   6.335   7.796   0.804
13449TIP3    H140292   6.424   7.820   0.779
13449TIP3    H240293   6.317   7.715   0.757
13450TIP3   OH240294   7.048   7.904   0.939
13450TIP3    H140295   7.040   7.809   0.932
13450TIP3    H240296   7.008   7.938   0.859
13451TIP3   OH240297   5.718   7.696   0.961
13451TIP3    H140298   5.665   7.640   1.017
13451TIP3    H240299   5.757   7.636   0.897
13452TIP3   OH240300   0.039   7.432   0.896
13452TIP3    H140301   0.011   7.520   0.869
13452TIP3    H240302  -0.031   7.375   0.866
13453TIP3   OH240303   0.042   7.431   1.309
13453TIP3    H140304   0.088   7.406   1.390
13453TIP3    H240305   0.000   7.350   1.280
13454TIP3   OH240306   7.844   7.347   1.632
13454TIP3    H140307   7.857   7.303   1.716
13454TIP3    H240308   7.928   7.338   1.587
13455TIP3   OH240309   0.314   7.720   0.982
13455TIP3    H140310   0.292   7.661   1.054
13455TIP3    H240311   0.331   7.804   1.024
13456TIP3   OH240312   7.840   7.714   1.389
13456TIP3    H140313   7.811   7.624   1.373
13456TIP3    H240314   7.929   7.717   1.355
13457TIP3   OH240315   7.570   7.034   1.082
13457TIP3    H140316   7.584   7.124   1.114
13457TIP3    H240317   7.476   7.019   1.093
13458TIP3   OH240318   7.615   7.243   1.332
13458TIP3    H140319   7.665   7.166   1.361
13458TIP3    H240320   7.681   7.312   1.324
13459TIP3   OH240321   2.798   0.154   0.996
13459TIP3    H140322   2.830   0.086   0.937
13459TIP3    H240323   2.776   0.107   1.076
13460TIP3   OH240324   8.345   7.642   1.327
13460TIP3    H140325   8.391   7.564   1.295
13460TIP3    H240326   8.414   7.704   1.348
13461TIP3   OH240327   0.839   6.987   1.308
13461TIP3    H140328   0.858   7.071   1.349
13461TIP3    H240329   0.838   7.006   1.214
13462TIP3   OH240330   0.252   7.133   1.357
13462TIP3    H140331   0.288   7.048   1.382
13462TIP3    H240332   0.216   7.119   1.270
13463TIP3   OH240333   8.144   6.800   1.317
13463TIP3    H140334   8.121   6.880   1.268
13463TIP3    H240335   8.085   6.733   1.281
13464TIP3   OH240336   0.305   6.898   0.946
13464TIP3    H140337   0.372   6.888   1.013
13464TIP3    H240338   0.353   6.933   0.870
13465TIP3   OH240339   7.737   7.011   1.415
13465TIP3    H140340   7.815   6.981   1.462
13465TIP3    H240341   7.664   6.967   1.458
13466TIP3   OH240342   8.170   7.223   1.245
13466TIP3    H140343   8.265   7.213   1.248
13466TIP3    H240344   8.139   7.139   1.213
13467TIP3   OH240345   0.886   7.207   1.460
13467TIP3    H140346   0.798   7.243   1.472
13467TIP3    H240347   0.923   7.205   1.548
13468TIP3   OH240348   8.443   7.651   0.753
13468TIP3    H140349   8.402   7.623   0.671
13468TIP3    H240350   8.391   7.727   0.781
13469TIP3   OH240351   8.207   7.565   1.557
13469TIP3    H140352   8.152   7.634   1.592
13469TIP3    H240353   8.251   7.604   1.482
13470TIP3   OH240354   0.476   6.908   1.156
13470TIP3    H140355   0.430   6.887   1.237
13470TIP3    H240356   0.522   6.989   1.175
13471TIP3   OH240357   7.974   6.917   1.515
13471TIP3    H140358   8.033   6.975   1.563
13471TIP3    H240359   8.033   6.855   1.471
13472TIP3   OH240360   8.026   7.759   1.654
13472TIP3    H140361   8.003   7.844   1.617
13472TIP3    H240362   7.943   7.710   1.656
13473TIP3   OH240363   7.394   7.480   0.877
13473TIP3    H140364   7.371   7.494   0.785
13473TIP3    H240365   7.407   7.568   0.912
13474TIP3   OH240366   0.349   7.967   1.111
13474TIP3    H140367   0.265   7.961   1.155
13474TIP3    H240368   0.347   8.051   1.066
13475TIP3   OH240369   0.615   6.902   1.472
13475TIP3    H140370   0.526   6.900   1.436
13475TIP3    H240371   0.671   6.923   1.397
13476TIP3   OH240372   8.466   6.505   1.474
13476TIP3    H140373   8.451   6.410   1.467
13476TIP3    H240374   8.396   6.535   1.532
13477TIP3   OH240375   0.058   8.005   0.790
13477TIP3    H140376   0.110   7.926   0.775
13477TIP3    H240377   0.114   8.076   0.760
13478TIP3   OH240378   0.198   7.775   0.737
13478TIP3    H140379   0.123   7.716   0.734
13478TIP3    H240380   0.246   7.749   0.816
13479TIP3   OH240381   0.566   7.856   1.470
13479TIP3    H140382   0.545   7.785   1.410
13479TIP3    H240383   0.557   7.935   1.418
13480TIP3   OH240384   8.368   7.274   0.741
13480TIP3    H140385   8.286   7.320   0.725
13480TIP3    H240386   8.412   7.273   0.656
13481TIP3   OH240387   8.340   7.071   0.435
13481TIP3    H140388   8.405   7.123   0.482
13481TIP3    H240389   8.392   7.007   0.385
13482TIP3   OH240390   0.753   7.524   1.311
13482TIP3    H140391   0.671   7.574   1.314
13482TIP3    H240392   0.785   7.538   1.222
13483TIP3   OH240393   0.222   7.357   0.707
13483TIP3    H140394   0.168   7.387   0.781
13483TIP3    H240395   0.305   7.330   0.747
13484TIP3   OH240396   0.436   7.374   1.629
13484TIP3    H140397   0.446   7.457   1.675
13484TIP3    H240398   0.350   7.380   1.587
13485TIP3   OH240399   7.958   7.346   1.109
13485TIP3    H140400   7.923   7.284   1.044
13485TIP3    H240401   8.036   7.302   1.143
13486TIP3   OH240402   8.086   7.737   1.259
13486TIP3    H140403   8.069   7.734   1.164
13486TIP3    H240404   8.176   7.706   1.268
13487TIP3   OH240405   8.073   7.336   1.478
13487TIP3    H140406   8.107   7.308   1.393
13487TIP3    H240407   8.124   7.415   1.499
13488TIP3   OH240408   0.119   7.966   1.250
13488TIP3    H140409   0.095   8.047   1.295
13488TIP3    H240410   0.102   7.897   1.314
13489TIP3   OH240411   8.224   7.903   1.786
13489TIP3    H140412   8.169   7.959   1.842
13489TIP3    H240413   8.163   7.841   1.747
13490TIP3   OH240414   0.057   7.220   0.534
13490TIP3    H140415   0.115   7.278   0.583
13490TIP3    H240416   0.084   7.230   0.442
13491TIP3   OH240417   8.307   7.891   0.795
13491TIP3    H140418   8.390   7.939   0.802
13491TIP3    H240419   8.248   7.951   0.749
13492TIP3   OH240420   0.569   6.447   0.593
13492TIP3    H140421   0.492   6.467   0.645
13492TIP3    H240422   0.581   6.524   0.537
13493TIP3   OH240423   7.826   7.183   0.916
13493TIP3    H140424   7.754   7.234   0.881
13493TIP3    H240425   7.787   7.100   0.941
13494TIP3   OH240426   0.393   7.823   0.147
13494TIP3    H140427   0.387   7.916   0.128
13494TIP3    H240428   0.480   7.798   0.116
13495TIP3   OH240429   7.450   7.784   1.475
13495TIP3    H140430   7.543   7.800   1.494
13495TIP3    H240431   7.405   7.859   1.515
13496TIP3   OH240432   3.643   0.099   1.511
13496TIP3    H140433   3.645   0.010   1.546
13496TIP3    H240434   3.558   0.135   1.539
13497TIP3   OH240435   2.757   0.002   1.645
13497TIP3    H140436   2.768   0.091   1.679
13497TIP3    H240437   2.685  -0.034   1.696
13498TIP3   OH240438   2.532   0.102   0.624
13498TIP3    H140439   2.486   0.086   0.542
13498TIP3    H240440   2.495   0.185   0.657
13499TIP3   OH240441   2.730   0.035   0.248
13499TIP3    H140442   2.781  -0.038   0.212
13499TIP3    H240443   2.766   0.046   0.337
13500TIP3   OH240444   2.785   0.077   0.519
13500TIP3    H140445   2.699   0.079   0.561
13500TIP3    H240446   2.845   0.048   0.587
13501TIP3   OH240447   0.729   7.336   1.730
13501TIP3    H140448   0.639   7.370   1.735
13501TIP3    H240449   0.719   7.241   1.727
13502TIP3   OH240450   0.423   7.139   1.771
13502TIP3    H140451   0.412   7.170   1.860
13502TIP3    H240452   0.420   7.219   1.717
13503TIP3   OH240453   0.138   7.221   0.274
13503TIP3    H140454   0.096   7.215   0.188
13503TIP3    H240455   0.224   7.259   0.256
13504TIP3   OH240456   8.348   6.622   0.589
13504TIP3    H140457   8.311   6.629   0.677
13504TIP3    H240458   8.312   6.541   0.554
13505TIP3   OH240459   8.156   7.108   1.615
13505TIP3    H140460   8.157   7.142   1.704
13505TIP3    H240461   8.127   7.182   1.561
13506TIP3   OH240462   8.058   6.997   1.141
13506TIP3    H140463   7.963   6.990   1.154
13506TIP3    H240464   8.073   6.959   1.054
13507TIP3   OH240465  -0.000   7.072   0.873
13507TIP3    H140466  -0.049   7.144   0.833
13507TIP3    H240467   0.057   7.040   0.803
13508TIP3   OH240468   0.160   7.083   1.100
13508TIP3    H140469   0.095   7.106   1.033
13508TIP3    H240470   0.208   7.009   1.062
13509TIP3   OH240471   8.019   6.609   0.564
13509TIP3    H140472   8.011   6.620   0.659
13509TIP3    H240473   7.942   6.651   0.528
13510TIP3   OH240474   7.631   6.756   1.317
13510TIP3    H140475   7.568   6.794   1.379
13510TIP3    H240476   7.589   6.676   1.286
13511TIP3   OH240477   7.582   6.763   0.934
13511TIP3    H140478   7.620   6.756   0.847
13511TIP3    H240479   7.490   6.785   0.918
13512TIP3   OH240480   0.177   7.327   1.531
13512TIP3    H140481   0.206   7.259   1.470
13512TIP3    H240482   0.150   7.279   1.609
13513TIP3   OH240483   8.393   6.790   1.193
13513TIP3    H140484   8.316   6.795   1.249
13513TIP3    H240485   8.467   6.788   1.253
13514TIP3   OH240486   7.810   6.880   1.161
13514TIP3    H140487   7.793   6.905   1.252
13514TIP3    H240488   7.864   6.801   1.167
13515TIP3   OH240489   8.039   6.866   0.897
13515TIP3    H140490   8.132   6.880   0.879
13515TIP3    H240491   7.995   6.887   0.815
13516TIP3   OH240492   0.339   6.871   1.396
13516TIP3    H140493   0.331   6.878   1.491
13516TIP3    H240494   0.266   6.815   1.369
13517TIP3   OH240495   7.911   6.893   0.657
13517TIP3    H140496   7.850   6.844   0.602
13517TIP3    H240497   7.966   6.941   0.595
13518TIP3   OH240498   3.394   0.664   1.686
13518TIP3    H140499   3.377   0.601   1.616
13518TIP3    H240500   3.337   0.739   1.666
13519TIP3   OH240501   8.440   7.170   1.277
13519TIP3    H140502   8.505   7.120   1.227
13519TIP3    H240503   8.440   7.129   1.363
13520TIP3   OH240504   7.952   6.643   1.194
13520TIP3    H140505   7.922   6.582   1.261
13520TIP3    H240506   7.972   6.588   1.118
13521TIP3   OH240507   8.423   7.068   1.531
13521TIP3    H140508   8.331   7.065   1.560
13521TIP3    H240509   8.472   7.093   1.609
13522TIP3   OH240510   8.129   7.412   0.695
13522TIP3    H140511   8.055   7.357   0.671
13522TIP3    H240512   8.102   7.457   0.775
13523TIP3   OH240513   0.515   7.660   1.286
13523TIP3    H140514   0.547   7.715   1.214
13523TIP3    H240515   0.434   7.621   1.254
13524TIP3   OH240516   0.100   6.726   0.588
13524TIP3    H140517   0.007   6.705   0.584
13524TIP3    H240518   0.103   6.821   0.597
13525TIP3   OH240519   0.028   7.751   1.679
13525TIP3    H140520  -0.001   7.718   1.764
13525TIP3    H240521  -0.008   7.840   1.675
13526TIP3   OH240522   0.160   6.991   0.658
13526TIP3    H140523   0.256   6.996   0.663
13526TIP3    H240524   0.135   7.066   0.604
13527TIP3   OH240525   7.819   7.433   1.330
13527TIP3    H140526   7.866   7.414   1.249
13527TIP3    H240527   7.878   7.404   1.400
13528TIP3   OH240528   8.280   7.574   0.534
13528TIP3    H140529   8.232   7.657   0.531
13528TIP3    H240530   8.226   7.517   0.587
13529TIP3   OH240531   3.026   0.010   1.577
13529TIP3    H140532   2.930   0.004   1.578
13529TIP3    H240533   3.049   0.044   1.664
13530TIP3   OH240534   0.586   7.091   0.493
13530TIP3    H140535   0.532   7.041   0.433
13530TIP3    H240536   0.587   7.180   0.458
13531TIP3   OH240537   0.813   7.852   1.576
13531TIP3    H140538   0.722   7.849   1.548
13531TIP3    H240539   0.863   7.830   1.498
13532TIP3   OH240540   0.329   7.886   0.415
13532TIP3    H140541   0.273   7.823   0.462
13532TIP3    H240542   0.341   7.848   0.328
13533TIP3   OH240543   0.285   7.530   1.193
13533TIP3    H140544   0.195   7.509   1.218
13533TIP3    H240545   0.319   7.450   1.153
13534TIP3   OH240546   7.928   7.779   1.014
13534TIP3    H140547   7.926   7.848   0.947
13534TIP3    H240548   7.863   7.807   1.079
13535TIP3   OH240549   7.525   7.056   0.708
13535TIP3    H140550   7.573   7.136   0.731
13535TIP3    H240551   7.442   7.064   0.755
13536TIP3   OH240552   8.027   7.535   0.915
13536TIP3    H140553   8.000   7.623   0.943
13536TIP3    H240554   8.003   7.479   0.988
13537TIP3   OH240555   2.555   0.066   1.454
13537TIP3    H140556   2.584   0.143   1.405
13537TIP3    H240557   2.633   0.039   1.503
13538TIP3   OH240558   2.174  -0.003   0.862
13538TIP3    H140559   2.097   0.048   0.887
13538TIP3    H240560   2.248   0.057   0.873
13539TIP3   OH240561   0.089   7.745   1.414
13539TIP3    H140562   0.076   7.743   1.509
13539TIP3    H240563   0.158   7.680   1.398
13540TIP3   OH240564   0.073   7.632   0.295
13540TIP3    H140565   0.118   7.601   0.374
13540TIP3    H240566  -0.012   7.588   0.297
13541TIP3   OH240567   3.171   0.209   1.454
13541TIP3    H140568   3.106   0.146   1.485
13541TIP3    H240569   3.126   0.258   1.386
13542TIP3   OH240570   3.228   0.083   0.111
13542TIP3    H140571   3.249   0.142   0.039
13542TIP3    H240572   3.156   0.126   0.158
13543TIP3   OH240573   0.229   7.539   0.498
13543TIP3    H140574   0.217   7.486   0.577
13543TIP3    H240575   0.324   7.543   0.486
13544TIP3   OH240576   7.678   7.961   1.569
13544TIP3    H140577   7.772   7.947   1.559
13544TIP3    H240578   7.671   8.024   1.641
13545TIP3   OH240579   7.941   7.592   0.313
13545TIP3    H140580   7.945   7.499   0.291
13545TIP3    H240581   7.916   7.593   0.406
13546TIP3   OH240582   7.868   7.619   0.585
13546TIP3    H140583   7.939   7.593   0.643
13546TIP3    H240584   7.864   7.714   0.592
13547TIP3   OH240585   7.607   7.309   0.799
13547TIP3    H140586   7.539   7.356   0.848
13547TIP3    H240587   7.628   7.367   0.726
13548TIP3   OH240588   0.310   6.914   1.660
13548TIP3    H140589   0.347   6.994   1.697
13548TIP3    H240590   0.260   6.875   1.732
13549TIP3   OH240591   0.165   6.679   0.852
13549TIP3    H140592   0.142   6.697   0.761
13549TIP3    H240593   0.205   6.760   0.884
13550TIP3   OH240594   8.131   7.802   0.533
13550TIP3    H140595   8.048   7.830   0.572
13550TIP3    H240596   8.156   7.873   0.475
13551TIP3   OH240597   8.317   6.879   0.941
13551TIP3    H140598   8.377   6.948   0.915
13551TIP3    H240599   8.340   6.860   1.032
13552TIP3   OH240600   0.090   7.203   1.762
13552TIP3    H140601   0.023   7.269   1.778
13552TIP3    H240602   0.112   7.171   1.850
13553TIP3   OH240603   8.480   6.582   1.027
13553TIP3    H140604   8.460   6.661   1.078
13553TIP3    H240605   8.549   6.609   0.967
13554TIP3   OH240606   7.879   7.891   0.613
13554TIP3    H140607   7.863   7.958   0.548
13554TIP3    H240608   7.860   7.933   0.697
13555TIP3   OH240609   7.990   6.596   0.846
13555TIP3    H140610   7.981   6.687   0.875
13555TIP3    H240611   8.084   6.579   0.849
13556TIP3   OH240612   0.678   7.061   1.707
13556TIP3    H140613   0.583   7.072   1.715
13556TIP3    H240614   0.689   7.004   1.631
13557TIP3   OH240615   0.373   7.277   1.099
13557TIP3    H140616   0.296   7.220   1.109
13557TIP3    H240617   0.441   7.235   1.151
13558TIP3   OH240618   7.625   7.485   0.581
13558TIP3    H140619   7.696   7.549   0.589
13558TIP3    H240620   7.658   7.421   0.518
13559TIP3   OH240621   7.554   6.783   0.663
13559TIP3    H140622   7.560   6.877   0.677
13559TIP3    H240623   7.475   6.771   0.611
13560TIP3   OH240624   3.197   0.218   1.032
13560TIP3    H140625   3.151   0.271   0.967
13560TIP3    H240626   3.290   0.230   1.012
13561TIP3   OH240627   7.436   7.748   0.956
13561TIP3    H140628   7.407   7.782   1.041
13561TIP3    H240629   7.528   7.773   0.950
13562TIP3   OH240630   8.083   7.799   0.205
13562TIP3    H140631   8.038   7.727   0.248
13562TIP3    H240632   8.158   7.758   0.161
13563TIP3   OH240633   3.140   0.087   1.813
13563TIP3    H140634   3.197   0.011   1.813
13563TIP3    H240635   3.197   0.161   1.836
13564TIP3   OH240636   0.025   7.841   0.125
13564TIP3    H140637   0.059   7.774   0.184
13564TIP3    H240638   0.081   7.834   0.047
13565TIP3   OH240639   7.747   7.290   0.434
13565TIP3    H140640   7.801   7.267   0.510
13565TIP3    H240641   7.811   7.303   0.364
13566TIP3   OH240642   8.322   7.514   0.268
13566TIP3    H140643   8.297   7.528   0.359
13566TIP3    H240644   8.304   7.422   0.251
13567TIP3   OH240645   0.379   7.832   1.671
13567TIP3    H140646   0.447   7.844   1.604
13567TIP3    H240647   0.301   7.872   1.634
13568TIP3   OH240648   7.924   7.230   0.644
13568TIP3    H140649   7.905   7.195   0.732
13568TIP3    H240650   7.974   7.160   0.601
13569TIP3   OH240651   8.066   7.045   0.490
13569TIP3    H140652   8.036   7.049   0.399
13569TIP3    H240653   8.162   7.051   0.483
13570TIP3   OH240654   0.368   7.330   0.160
13570TIP3    H140655   0.359   7.285   0.076
13570TIP3    H240656   0.340   7.420   0.142
13571TIP3   OH240657   8.400   7.403   1.693
13571TIP3    H140658   8.467   7.426   1.629
13571TIP3    H240659   8.324   7.456   1.668
13572TIP3   OH240660   0.491   7.599   1.766
13572TIP3    H140661   0.438   7.675   1.744
13572TIP3    H240662   0.578   7.635   1.786
13573TIP3   OH240663   2.213   0.064   0.411
13573TIP3    H140664   2.305   0.051   0.388
13573TIP3    H240665   2.178   0.115   0.338
13574TIP3   OH240666   7.352   7.479   0.591
13574TIP3    H140667   7.447   7.493   0.587
13574TIP3    H240668   7.339   7.392   0.554
13575TIP3   OH240669   7.215   8.051   1.096
13575TIP3    H140670   7.168   7.997   1.032
13575TIP3    H240671   7.279   7.991   1.134
13576TIP3   OH240672   7.402   7.874   1.206
13576TIP3    H140673   7.396   7.818   1.283
13576TIP3    H240674   7.459   7.946   1.234
13577TIP3   OH240675   3.472   0.263   1.022
13577TIP3    H140676   3.477   0.274   1.117
13577TIP3    H240677   3.469   0.353   0.988
13578TIP3   OH240678   3.485   0.298   1.292
13578TIP3    H140679   3.451   0.210   1.309
13578TIP3    H240680   3.522   0.326   1.376
13579TIP3   OH240681   0.509   7.550   0.500
13579TIP3    H140682   0.517   7.643   0.520
13579TIP3    H240683   0.551   7.506   0.574
13580TIP3   OH240684   0.632   7.409   0.700
13580TIP3    H140685   0.566   7.362   0.750
13580TIP3    H240686   0.695   7.439   0.766
13581TIP3   OH240687   0.701   7.807   1.135
13581TIP3    H140688   0.749   7.740   1.086
13581TIP3    H240689   0.690   7.878   1.072
13582TIP3   OH240690   3.349   0.057   1.308
13582TIP3    H140691   3.279   0.104   1.354
13582TIP3    H240692   3.305   0.016   1.233
13583TIP3   OH240693   0.571   7.327   0.347
13583TIP3    H140694   0.504   7.317   0.279
13583TIP3    H240695   0.546   7.407   0.393
13584TIP3   OH240696   0.452   6.970   0.298
13584TIP3    H140697   0.463   7.009   0.212
13584TIP3    H240698   0.418   6.882   0.280
13585TIP3   OH240699   0.448   7.257   0.834
13585TIP3    H140700   0.453   7.162   0.822
13585TIP3    H240701   0.427   7.268   0.927
13586TIP3   OH240702   7.571   7.381   1.577
13586TIP3    H140703   7.570   7.333   1.494
13586TIP3    H240704   7.662   7.382   1.603
13587TIP3   OH240705   0.743   7.710   1.799
13587TIP3    H140706   0.807   7.640   1.787
13587TIP3    H240707   0.765   7.775   1.732
13588TIP3   OH240708   0.931   7.515   1.720
13588TIP3    H140709   0.862   7.450   1.715
13588TIP3    H240710   0.978   7.494   1.801
13589TIP3   OH240711   0.380   6.707   0.266
13589TIP3    H140712   0.442   6.675   0.331
13589TIP3    H240713   0.298   6.663   0.288
13590TIP3   OH240714   0.452   6.985   0.722
13590TIP3    H140715   0.497   6.901   0.733
13590TIP3    H240716   0.497   7.027   0.648
13591TIP3   OH240717   0.587   7.150   1.224
13591TIP3    H140718   0.669   7.172   1.180
13591TIP3    H240719   0.592   7.194   1.309
13592TIP3   OH240720   0.631   7.309   1.442
13592TIP3    H140721   0.564   7.335   1.505
13592TIP3    H240722   0.664   7.391   1.405
13593TIP3   OH240723   0.564   6.732   0.771
13593TIP3    H140724   0.604   6.718   0.857
13593TIP3    H240725   0.501   6.661   0.762
13594TIP3   OH240726   0.617   6.651   0.416
13594TIP3    H140727   0.660   6.591   0.355
13594TIP3    H240728   0.667   6.732   0.409
13595TIP3   OH240729   7.560   6.578   1.133
13595TIP3    H140730   7.517   6.492   1.131
13595TIP3    H240731   7.535   6.619   1.050
13596TIP3   OH240732   3.032   0.187   0.675
13596TIP3    H140733   3.090   0.181   0.599
13596TIP3    H240734   3.065   0.262   0.725
13597TIP3   OH240735   2.309   0.006   1.573
13597TIP3    H140736   2.270   0.092   1.557
13597TIP3    H240737   2.398   0.012   1.537
13598TIP3   OH240738   2.793   0.252   1.749
13598TIP3    H140739   2.828   0.266   1.837
13598TIP3    H240740   2.842   0.314   1.694
13599TIP3   OH240741   2.933   0.441   1.614
13599TIP3    H140742   2.979   0.440   1.530
13599TIP3    H240743   2.970   0.516   1.661
13600TIP3   OH240744   1.981   0.275   1.633
13600TIP3    H140745   1.896   0.310   1.606
13600TIP3    H240746   1.991   0.305   1.724
13601TIP3   OH240747   2.225   0.260   1.501
13601TIP3    H140748   2.138   0.269   1.540
13601TIP3    H240749   2.213   0.286   1.410
13602TIP3   OH240750   2.635   0.280   1.300
13602TIP3    H140751   2.566   0.294   1.235
13602TIP3    H240752   2.648   0.366   1.340
13603TIP3   OH240753   2.896   0.206   1.337
13603TIP3    H140754   2.804   0.230   1.324
13603TIP3    H240755   2.945   0.273   1.289
13604TIP3   OH240756   3.097   0.371   1.238
13604TIP3    H140757   3.089   0.457   1.196
13604TIP3    H240758   3.131   0.314   1.169
13605TIP3   OH240759   1.900   0.049   1.338
13605TIP3    H140760   1.930   0.025   1.425
13605TIP3    H240761   1.969   0.016   1.279
13606TIP3   OH240762   7.772   7.924   1.222
13606TIP3    H140763   7.784   7.856   1.288
13606TIP3    H240764   7.853   7.975   1.225
13607TIP3   OH240765   8.027   8.011   1.262
13607TIP3    H140766   8.058   7.920   1.261
13607TIP3    H240767   8.089   8.057   1.320
13608TIP3   OH240768   0.119   6.705   1.330
13608TIP3    H140769   0.081   6.633   1.381
13608TIP3    H240770   0.183   6.662   1.273
13609TIP3   OH240771   0.595   6.593   1.233
13609TIP3    H140772   0.636   6.647   1.165
13609TIP3    H240773   0.502   6.616   1.229
13610TIP3   OH240774   0.712   6.683   1.002
13610TIP3    H140775   0.783   6.628   0.968
13610TIP3    H240776   0.743   6.773   0.987
13611TIP3   OH240777   7.877   6.444   1.374
13611TIP3    H140778   7.786   6.415   1.375
13611TIP3    H240779   7.923   6.377   1.324
13612TIP3   OH240780   7.648   6.283   0.889
13612TIP3    H140781   7.682   6.320   0.808
13612TIP3    H240782   7.694   6.331   0.958
13613TIP3   OH240783   8.330   6.464   1.226
13613TIP3    H140784   8.375   6.503   1.151
13613TIP3    H240785   8.370   6.507   1.302
13614TIP3   OH240786   0.317   6.587   1.179
13614TIP3    H140787   0.329   6.561   1.088
13614TIP3    H240788   0.303   6.505   1.226
13615TIP3   OH240789   0.380   6.522   0.777
13615TIP3    H140790   0.300   6.570   0.797
13615TIP3    H240791   0.366   6.435   0.816
13616TIP3   OH240792   7.282   7.877   0.713
13616TIP3    H140793   7.265   7.806   0.774
13616TIP3    H240794   7.351   7.928   0.754
13617TIP3   OH240795   7.789   6.448   0.715
13617TIP3    H140796   7.840   6.396   0.653
13617TIP3    H240797   7.854   6.496   0.767
13618TIP3   OH240798   8.263   6.625   0.853
13618TIP3    H140799   8.329   6.576   0.904
13618TIP3    H240800   8.277   6.716   0.878
13619TIP3   OH240801   8.143   8.020   0.353
13619TIP3    H140802   8.226   8.050   0.316
13619TIP3    H240803   8.114   7.949   0.295
13620TIP3   OH240804   3.183   0.145   0.447
13620TIP3    H140805   3.181   0.049   0.439
13620TIP3    H240806   3.137   0.176   0.369
13621TIP3   OH240807   3.400   0.158   1.620
13621TIP3    H140808   3.315   0.170   1.578
13621TIP3    H240809   3.405   0.226   1.687
13622TIP3   OH240810   1.824   7.675   0.389
13622TIP3    H140811   1.793   7.765   0.379
13622TIP3    H240812   1.759   7.622   0.345
13623TIP3   OH240813   1.819   7.668   0.757
13623TIP3    H140814   1.893   7.614   0.786
13623TIP3    H240815   1.763   7.607   0.709
13624TIP3   OH240816   1.131   7.575   1.119
13624TIP3    H140817   1.159   7.495   1.162
13624TIP3    H240818   1.169   7.646   1.171
13625TIP3   OH240819   2.093   7.975   0.454
13625TIP3    H140820   2.072   7.920   0.529
13625TIP3    H240821   2.115   8.060   0.492
13626TIP3   OH240822   1.137   7.970   0.867
13626TIP3    H140823   1.112   7.877   0.872
13626TIP3    H240824   1.227   7.968   0.836
13627TIP3   OH240825   0.809   7.199   0.626
13627TIP3    H140826   0.759   7.276   0.651
13627TIP3    H240827   0.745   7.142   0.583
13628TIP3   OH240828   0.870   7.462   0.828
13628TIP3    H140829   0.922   7.392   0.867
13628TIP3    H240830   0.918   7.489   0.750
13629TIP3   OH240831   4.586   0.401   0.464
13629TIP3    H140832   4.616   0.325   0.415
13629TIP3    H240833   4.576   0.369   0.554
13630TIP3   OH240834   1.644   7.890   0.806
13630TIP3    H140835   1.692   7.809   0.789
13630TIP3    H240836   1.712   7.956   0.822
13631TIP3   OH240837   1.391   7.068   0.777
13631TIP3    H140838   1.365   7.147   0.728
13631TIP3    H240839   1.337   6.998   0.739
13632TIP3   OH240840   2.063   7.194   0.414
13632TIP3    H140841   2.119   7.121   0.438
13632TIP3    H240842   2.109   7.237   0.342
13633TIP3   OH240843   1.023   7.262   0.934
13633TIP3    H140844   1.105   7.240   0.979
13633TIP3    H240845   1.024   7.208   0.855
13634TIP3   OH240846   1.466   7.484   0.703
13634TIP3    H140847   1.554   7.457   0.731
13634TIP3    H240848   1.423   7.402   0.679
13635TIP3   OH240849   1.343   6.993   1.216
13635TIP3    H140850   1.323   7.061   1.151
13635TIP3    H240851   1.420   7.026   1.262
13636TIP3   OH240852   1.674   7.885   0.285
13636TIP3    H140853   1.672   7.874   0.190
13636TIP3    H240854   1.646   7.976   0.299
13637TIP3   OH240855   1.470   7.843   1.027
13637TIP3    H140856   1.415   7.912   1.063
13637TIP3    H240857   1.517   7.886   0.955
13638TIP3   OH240858   1.269   7.155   1.007
13638TIP3    H140859   1.320   7.229   1.038
13638TIP3    H240860   1.312   7.127   0.927
13639TIP3   OH240861   4.138   0.025   1.132
13639TIP3    H140862   4.118   0.082   1.057
13639TIP3    H240863   4.056   0.022   1.182
13640TIP3   OH240864   4.994   0.198   0.585
13640TIP3    H140865   4.909   0.191   0.629
13640TIP3    H240866   4.990   0.283   0.540
13641TIP3   OH240867   4.678   0.234   0.263
13641TIP3    H140868   4.729   0.155   0.246
13641TIP3    H240869   4.737   0.306   0.238
13642TIP3   OH240870   1.994   8.032   0.203
13642TIP3    H140871   2.008   7.958   0.144
13642TIP3    H240872   2.032   8.003   0.286
13643TIP3   OH240873   1.652   7.546   0.212
13643TIP3    H140874   1.572   7.594   0.194
13643TIP3    H240875   1.700   7.547   0.129
13644TIP3   OH240876   7.310   3.316   6.859
13644TIP3    H140877   7.373   3.373   6.903
13644TIP3    H240878   7.363   3.253   6.811
13645TIP3   OH240879   2.010   7.622   0.192
13645TIP3    H140880   1.957   7.646   0.268
13645TIP3    H240881   2.093   7.592   0.229
13646TIP3   OH240882   1.215   7.550   0.613
13646TIP3    H140883   1.208   7.455   0.618
13646TIP3    H240884   1.303   7.570   0.646
13647TIP3   OH240885   1.381   7.955   0.737
13647TIP3    H140886   1.372   7.973   0.644
13647TIP3    H240887   1.475   7.940   0.750
13648TIP3   OH240888   1.395   7.592   0.950
13648TIP3    H140889   1.434   7.577   0.864
13648TIP3    H240890   1.416   7.683   0.971
13649TIP3   OH240891   4.754   0.193   0.710
13649TIP3    H140892   4.730   0.270   0.761
13649TIP3    H240893   4.737   0.119   0.768
13650TIP3   OH240894   4.323   0.123   1.316
13650TIP3    H140895   4.282   0.202   1.350
13650TIP3    H240896   4.260   0.089   1.252
13651TIP3   OH240897   1.847   7.488   0.015
13651TIP3    H140898   1.906   7.544   0.066
13651TIP3    H240899   1.877   7.498  -0.075
13652TIP3   OH240900   1.212   7.692   1.355
13652TIP3    H140901   1.232   7.738   1.437
13652TIP3    H240902   1.132   7.643   1.374
13653TIP3   OH240903   4.423   0.137   0.290
13653TIP3    H140904   4.511   0.174   0.287
13653TIP3    H240905   4.370   0.195   0.236
13654TIP3   OH240906   4.138   0.314   1.426
13654TIP3    H140907   4.080   0.307   1.350
13654TIP3    H240908   4.104   0.251   1.488
13655TIP3   OH240909   2.270   6.690   0.005
13655TIP3    H140910   2.214   6.730   0.072
13655TIP3    H240911   2.333   6.758  -0.018
13656TIP3   OH240912   1.057   7.444   0.391
13656TIP3    H140913   0.983   7.482   0.344
13656TIP3    H240914   1.039   7.350   0.392
13657TIP3   OH240915   7.830   4.079   6.570
13657TIP3    H140916   7.834   4.172   6.548
13657TIP3    H240917   7.918   4.047   6.555
13658TIP3   OH240918   0.912   7.811   1.323
13658TIP3    H140919   0.839   7.819   1.262
13658TIP3    H240920   0.925   7.717   1.332
13659TIP3   OH240921   3.558   0.009   0.959
13659TIP3    H140922   3.653   0.023   0.968
13659TIP3    H240923   3.519   0.092   0.988
13660TIP3   OH240924   4.564   0.269   1.056
13660TIP3    H140925   4.585   0.336   1.121
13660TIP3    H240926   4.564   0.187   1.105
13661TIP3   OH240927   4.321   0.342   0.109
13661TIP3    H140928   4.282   0.324   0.023
13661TIP3    H240929   4.289   0.430   0.131
13662TIP3   OH240930   3.762   0.223   0.484
13662TIP3    H140931   3.797   0.211   0.572
13662TIP3    H240932   3.712   0.144   0.466
13663TIP3   OH240933   7.361   4.297   6.674
13663TIP3    H140934   7.411   4.224   6.638
13663TIP3    H240935   7.395   4.308   6.762
13664TIP3   OH240936   4.576   0.328   0.004
13664TIP3    H140937   4.490   0.329   0.046
13664TIP3    H240938   4.635   0.296   0.072
13665TIP3   OH240939   1.094   8.014   1.370
13665TIP3    H140940   1.169   7.997   1.427
13665TIP3    H240941   1.055   7.928   1.354
13666TIP3   OH240942   0.507   6.272   1.450
13666TIP3    H140943   0.543   6.188   1.420
13666TIP3    H240944   0.579   6.333   1.440
13667TIP3   OH240945   7.602   3.480   6.701
13667TIP3    H140946   7.556   3.471   6.617
13667TIP3    H240947   7.687   3.517   6.677
13668TIP3   OH240948   1.641   6.879   0.071
13668TIP3    H140949   1.599   6.885   0.157
13668TIP3    H240950   1.604   6.800   0.032
13669TIP3   OH240951   1.415   7.364   1.093
13669TIP3    H140952   1.366   7.378   1.174
13669TIP3    H240953   1.407   7.446   1.045
13670TIP3   OH240954   1.280   7.275   0.624
13670TIP3    H140955   1.199   7.234   0.653
13670TIP3    H240956   1.297   7.236   0.538
13671TIP3   OH240957   1.766   7.321   0.323
13671TIP3    H140958   1.724   7.398   0.285
13671TIP3    H240959   1.833   7.296   0.260
13672TIP3   OH240960   1.872   7.298   0.579
13672TIP3    H140961   1.822   7.326   0.503
13672TIP3    H240962   1.945   7.247   0.543
13673TIP3   OH240963   1.236   7.384   1.302
13673TIP3    H140964   1.246   7.436   1.381
13673TIP3    H240965   1.221   7.295   1.333
13674TIP3   OH240966   1.308   6.865   0.052
13674TIP3    H140967   1.292   6.867   0.147
13674TIP3    H240968   1.230   6.905   0.014
13675TIP3   OH240969   0.827   6.908   0.906
13675TIP3    H140970   0.914   6.933   0.938
13675TIP3    H240971   0.842   6.878   0.817
13676TIP3   OH240972   0.769   6.889   0.420
13676TIP3    H140973   0.809   6.922   0.339
13676TIP3    H240974   0.705   6.955   0.444
13677TIP3   OH240975   1.647   7.049   0.678
13677TIP3    H140976   1.560   7.057   0.716
13677TIP3    H240977   1.706   7.081   0.746
13678TIP3   OH240978   1.063   7.129   0.695
13678TIP3    H140979   0.974   7.141   0.664
13678TIP3    H240980   1.085   7.039   0.668
13679TIP3   OH240981   1.315   7.136   0.391
13679TIP3    H140982   1.410   7.139   0.380
13679TIP3    H240983   1.280   7.152   0.303
13680TIP3   OH240984   1.205   7.166   0.142
13680TIP3    H140985   1.143   7.111   0.093
13680TIP3    H240986   1.265   7.200   0.076
13681TIP3   OH240987   1.197   7.802   1.603
13681TIP3    H140988   1.252   7.880   1.603
13681TIP3    H240989   1.133   7.817   1.672
13682TIP3   OH240990   1.706   7.387   0.781
13682TIP3    H140991   1.769   7.346   0.721
13682TIP3    H240992   1.740   7.368   0.868
13683TIP3   OH240993   1.220   6.889   0.651
13683TIP3    H140994   1.184   6.817   0.704
13683TIP3    H240995   1.230   6.852   0.564
13684TIP3   OH240996   1.403   7.677   0.167
13684TIP3    H140997   1.342   7.608   0.140
13684TIP3    H240998   1.361   7.716   0.244
13685TIP3   OH240999   1.890   6.987   0.063
13685TIP3    H141000   1.797   6.964   0.060
13685TIP3    H241001   1.890   7.083   0.067
13686TIP3   OH241002   1.849   7.888   1.138
13686TIP3    H141003   1.908   7.857   1.206
13686TIP3    H241004   1.811   7.968   1.174
13687TIP3   OH241005   1.953   7.255   0.119
13687TIP3    H141006   2.048   7.258   0.110
13687TIP3    H241007   1.922   7.332   0.071
13688TIP3   OH241008   1.114   7.694   0.862
13688TIP3    H141009   1.161   7.644   0.795
13688TIP3    H241010   1.137   7.651   0.944
13689TIP3   OH241011   1.581   7.824   0.019
13689TIP3    H141012   1.540   7.910   0.013
13689TIP3    H241013   1.519   7.771   0.069
13690TIP3   OH241014   0.985   7.566   1.455
13690TIP3    H141015   0.964   7.562   1.548
13690TIP3    H241016   0.910   7.526   1.411
13691TIP3   OH241017   4.855   0.273   1.061
13691TIP3    H141018   4.767   0.273   1.023
13691TIP3    H241019   4.852   0.340   1.130
13692TIP3   OH241020   8.037   3.328   6.908
13692TIP3    H141021   7.982   3.286   6.841
13692TIP3    H241022   8.048   3.417   6.876
13693TIP3   OH241023   7.778   4.146   6.837
13693TIP3    H141024   7.742   4.074   6.888
13693TIP3    H241025   7.789   4.110   6.749
13694TIP3   OH241026   2.047   7.810   0.675
13694TIP3    H141027   1.962   7.767   0.681
13694TIP3    H241028   2.107   7.740   0.649
13695TIP3   OH241029   4.055  -0.002   0.473
13695TIP3    H141030   4.062   0.074   0.415
13695TIP3    H241031   3.976   0.014   0.524
13696TIP3   OH241032   0.822   7.322   0.226
13696TIP3    H141033   0.797   7.336   0.135
13696TIP3    H241034   0.739   7.324   0.274
13697TIP3   OH241035   1.279   7.752   0.413
13697TIP3    H141036   1.254   7.844   0.420
13697TIP3    H241037   1.369   7.749   0.446
13698TIP3   OH241038   4.417   0.276   0.822
13698TIP3    H141039   4.435   0.367   0.798
13698TIP3    H241040   4.472   0.259   0.898
13699TIP3   OH241041   3.988   0.233   0.331
13699TIP3    H141042   3.904   0.238   0.376
13699TIP3    H241043   4.004   0.323   0.301
13700TIP3   OH241044   1.899   7.985   0.873
13700TIP3    H141045   1.894   7.948   0.962
13700TIP3    H241046   1.965   7.932   0.829
13701TIP3   OH241047   7.542   3.883   6.734
13701TIP3    H141048   7.582   3.862   6.818
13701TIP3    H241049   7.457   3.838   6.735
13702TIP3   OH241050   7.854   4.349   6.532
13702TIP3    H141051   7.876   4.408   6.461
13702TIP3    H241052   7.783   4.393   6.579
13703TIP3   OH241053   2.039   7.830   0.014
13703TIP3    H141054   2.025   7.756   0.073
13703TIP3    H241055   2.132   7.825  -0.009
13704TIP3   OH241056   3.736   0.148   1.217
13704TIP3    H141057   3.810   0.122   1.161
13704TIP3    H241058   3.707   0.232   1.181
13705TIP3   OH241059   6.903   3.840   6.731
13705TIP3    H141060   6.906   3.748   6.703
13705TIP3    H241061   6.872   3.837   6.821
13706TIP3   OH241062   1.178   7.867   0.062
13706TIP3    H141063   1.271   7.855   0.081
13706TIP3    H241064   1.164   7.961   0.069
13707TIP3   OH241065   0.921   7.664   0.318
13707TIP3    H141066   0.829   7.675   0.344
13707TIP3    H241067   0.925   7.697   0.228
13708TIP3   OH241068   1.917   6.960   0.336
13708TIP3    H141069   1.906   6.962   0.240
13708TIP3    H241070   1.957   7.044   0.357
13709TIP3   OH241071   4.266   0.037   0.014
13709TIP3    H141072   4.182   0.068   0.048
13709TIP3    H241073   4.296   0.106  -0.044
13710TIP3   OH241074   1.591   7.135   0.419
13710TIP3    H141075   1.651   7.199   0.382
13710TIP3    H241076   1.622   7.122   0.508
13711TIP3   OH241077   1.750   6.848   0.522
13711TIP3    H141078   1.724   6.923   0.575
13711TIP3    H241079   1.814   6.884   0.460
13712TIP3   OH241080   4.015   0.123   0.082
13712TIP3    H141081   3.995   0.193   0.019
13712TIP3    H241082   4.000   0.164   0.167
13713TIP3   OH241083   1.269   6.859   0.338
13713TIP3    H141084   1.261   6.952   0.360
13713TIP3    H241085   1.363   6.843   0.337
13714TIP3   OH241086   2.260   7.536   0.580
13714TIP3    H141087   2.174   7.519   0.617
13714TIP3    H241088   2.321   7.525   0.653
13715TIP3   OH241089   0.917   7.753   0.058
13715TIP3    H141090   0.984   7.821   0.052
13715TIP3    H241091   0.947   7.685  -0.002
13716TIP3   OH241092   0.822   7.042   0.199
13716TIP3    H141093   0.841   7.135   0.211
13716TIP3    H241094   0.752   7.040   0.135
13717TIP3   OH241095   5.010   0.457   0.492
13717TIP3    H141096   4.963   0.512   0.428
13717TIP3    H241097   5.102   0.466   0.468
13718TIP3   OH241098   1.375   6.745   0.980
13718TIP3    H141099   1.297   6.730   0.927
13718TIP3    H241100   1.342   6.750   1.070
13719TIP3   OH241101   3.613  -0.004   0.459
13719TIP3    H141102   3.556   0.021   0.532
13719TIP3    H241103   3.564   0.021   0.381
13720TIP3   OH241104   3.813   0.526   1.492
13720TIP3    H141105   3.874   0.497   1.560
13720TIP3    H241106   3.732   0.480   1.512
13721TIP3   OH241107   7.051   4.048   6.632
13721TIP3    H141108   7.004   3.974   6.672
13721TIP3    H241109   7.125   4.008   6.586
13722TIP3   OH241110   7.490   4.087   6.555
13722TIP3    H141111   7.527   4.024   6.616
13722TIP3    H241112   7.548   4.083   6.479
13723TIP3   OH241113   6.710   3.546   6.860
13723TIP3    H141114   6.764   3.518   6.935
13723TIP3    H241115   6.772   3.555   6.788
13724TIP3   OH241116   7.292   3.762   6.693
13724TIP3    H141117   7.265   3.773   6.784
13724TIP3    H241118   7.275   3.670   6.674
13725TIP3   OH241119   1.226   7.468   0.127
13725TIP3    H141120   1.178   7.403   0.178
13725TIP3    H241121   1.283   7.416   0.069
13726TIP3   OH241122   1.473   7.594   1.346
13726TIP3    H141123   1.388   7.628   1.320
13726TIP3    H241124   1.533   7.623   1.277
13727TIP3   OH241125   7.038   3.293   6.907
13727TIP3    H141126   7.007   3.295   6.817
13727TIP3    H241127   7.133   3.294   6.900
13728TIP3   OH241128   7.831   3.584   6.588
13728TIP3    H141129   7.817   3.544   6.503
13728TIP3    H241130   7.806   3.676   6.576
13729TIP3   OH241131   1.653   7.686   1.152
13729TIP3    H141132   1.732   7.739   1.140
13729TIP3    H241133   1.583   7.737   1.109
13730TIP3   OH241134   6.844   4.331   6.835
13730TIP3    H141135   6.937   4.321   6.812
13730TIP3    H241136   6.807   4.382   6.763
13731TIP3   OH241137   0.640   7.744   0.046
13731TIP3    H141138   0.734   7.757   0.059
13731TIP3    H241139   0.632   7.652   0.022
13732TIP3   OH241140   3.387   0.303   0.534
13732TIP3    H141141   3.320   0.251   0.489
13732TIP3    H241142   3.431   0.241   0.592
13733TIP3   OH241143   3.522   0.132   0.702
13733TIP3    H141144   3.506   0.069   0.772
13733TIP3    H241145   3.571   0.203   0.743
13734TIP3   OH241146   7.980   3.797   6.922
13734TIP3    H141147   8.032   3.869   6.886
13734TIP3    H241148   8.026   3.771   7.002
13735TIP3   OH241149   2.426   7.703   0.215
13735TIP3    H141150   2.355   7.647   0.246
13735TIP3    H241151   2.435   7.770   0.283
13736TIP3   OH241152   5.253  -0.017   0.514
13736TIP3    H141153   5.304   0.015   0.588
13736TIP3    H241154   5.171   0.031   0.518
13737TIP3   OH241155   5.197   0.329   0.722
13737TIP3    H141156   5.169   0.347   0.811
13737TIP3    H241157   5.124   0.280   0.684
13738TIP3   OH241158   8.033   3.570   6.775
13738TIP3    H141159   7.965   3.566   6.707
13738TIP3    H241160   8.014   3.650   6.823
13739TIP3   OH241161   7.875   3.225   6.720
13739TIP3    H141162   7.837   3.262   6.640
13739TIP3    H241163   7.870   3.130   6.706
13740TIP3   OH241164   2.240   7.519   0.307
13740TIP3    H141165   2.249   7.426   0.286
13740TIP3    H241166   2.244   7.523   0.402
13741TIP3   OH241167   0.862   7.593   1.068
13741TIP3    H141168   0.851   7.556   0.980
13741TIP3    H241169   0.957   7.595   1.080
13742TIP3   OH241170   7.853   2.953   6.698
13742TIP3    H141171   7.908   2.911   6.763
13742TIP3    H241172   7.766   2.915   6.712
13743TIP3   OH241173   2.260   7.248   0.204
13743TIP3    H141174   2.276   7.154   0.195
13743TIP3    H241175   2.298   7.286   0.124
13744TIP3   OH241176   1.083   6.932   1.000
13744TIP3    H141177   1.131   6.872   0.942
13744TIP3    H241178   1.146   7.002   1.018
13745TIP3   OH241179   0.838   7.229   1.142
13745TIP3    H141180   0.893   7.242   1.065
13745TIP3    H241181   0.872   7.292   1.206
13746TIP3   OH241182   8.104   2.894   6.879
13746TIP3    H141183   8.135   2.834   6.812
13746TIP3    H241184   8.150   2.976   6.861
13747TIP3   OH241185   0.830   6.772   0.657
13747TIP3    H141186   0.744   6.742   0.686
13747TIP3    H241187   0.813   6.816   0.574
13748TIP3   OH241188   4.818   0.439   0.158
13748TIP3    H141189   4.875   0.433   0.082
13748TIP3    H241190   4.857   0.508   0.212
13749TIP3   OH241191   0.906   6.907   1.563
13749TIP3    H141192   0.984   6.855   1.543
13749TIP3    H241193   0.869   6.929   1.478
13750TIP3   OH241194   3.883   0.226   1.565
13750TIP3    H141195   3.813   0.208   1.628
13750TIP3    H241196   3.932   0.298   1.604
13751TIP3   OH241197   4.122   0.243   0.953
13751TIP3    H141198   4.065   0.320   0.946
13751TIP3    H241199   4.204   0.277   0.988
13752TIP3   OH241200   3.739   0.396   1.115
13752TIP3    H141201   3.732   0.453   1.038
13752TIP3    H241202   3.716   0.452   1.189
13753TIP3   OH241203   3.975   0.480   0.970
13753TIP3    H141204   3.923   0.537   1.026
13753TIP3    H241205   3.953   0.507   0.881
13754TIP3   OH241206   4.484   0.543   0.718
13754TIP3    H141207   4.391   0.536   0.697
13754TIP3    H241208   4.493   0.631   0.756
13755TIP3   OH241209   4.706   0.435   0.831
13755TIP3    H141210   4.644   0.479   0.772
13755TIP3    H241211   4.781   0.493   0.835
13756TIP3   OH241212   4.952   0.666   0.671
13756TIP3    H141213   4.988   0.619   0.746
13756TIP3    H241214   4.959   0.605   0.598
13757TIP3   OH241215   3.693   0.314   0.830
13757TIP3    H141216   3.694   0.304   0.925
13757TIP3    H241217   3.772   0.268   0.800
13758TIP3   OH241218   3.898   0.173   0.720
13758TIP3    H141219   3.914   0.096   0.774
13758TIP3    H241220   3.985   0.205   0.696
13759TIP3   OH241221   4.164   0.234   0.677
13759TIP3    H141222   4.242   0.196   0.637
13759TIP3    H241223   4.169   0.209   0.770
13760TIP3   OH241224   1.135   6.699   0.836
13760TIP3    H141225   1.043   6.675   0.844
13760TIP3    H241226   1.179   6.618   0.812
13761TIP3   OH241227   0.974   6.574   0.493
13761TIP3    H141228   0.989   6.615   0.407
13761TIP3    H241229   0.927   6.640   0.543
13762TIP3   OH241230   1.580   6.707   0.714
13762TIP3    H141231   1.639   6.752   0.653
13762TIP3    H241232   1.552   6.775   0.775
13763TIP3   OH241233   2.128   6.782   0.223
13763TIP3    H141234   2.073   6.847   0.267
13763TIP3    H241235   2.141   6.713   0.287
13764TIP3   OH241236   3.478   0.105   0.244
13764TIP3    H141237   3.393   0.071   0.214
13764TIP3    H241238   3.479   0.196   0.214
13765TIP3   OH241239   1.063   6.687   0.244
13765TIP3    H141240   1.108   6.629   0.183
13765TIP3    H241241   1.132   6.744   0.277
13766TIP3   OH241242   1.542   6.882   0.331
13766TIP3    H141243   1.602   6.830   0.385
13766TIP3    H241244   1.561   6.973   0.355
13767TIP3   OH241245   7.108   4.269   6.780
13767TIP3    H141246   7.190   4.300   6.740
13767TIP3    H241247   7.077   4.200   6.722
13768TIP3   OH241248   7.810   4.414   6.874
13768TIP3    H141249   7.805   4.319   6.864
13768TIP3    H241250   7.767   4.448   6.795
13769TIP3   OH241251   6.407   4.116   6.830
13769TIP3    H141252   6.404   4.131   6.924
13769TIP3    H241253   6.488   4.066   6.816
13770TIP3   OH241254   2.567   7.463   0.172
13770TIP3    H141255   2.537   7.554   0.179
13770TIP3    H241256   2.592   7.453   0.080
13771TIP3   OH241257   8.144   3.986   6.809
13771TIP3    H141258   8.111   4.001   6.721
13771TIP3    H241259   8.175   4.072   6.838
13772TIP3   OH241260   0.068   3.668   6.831
13772TIP3    H141261  -0.012   3.719   6.818
13772TIP3    H241262   0.042   3.599   6.893
13773TIP3   OH241263   5.338   0.325   0.473
13773TIP3    H141264   5.419   0.276   0.486
13773TIP3    H241265   5.300   0.332   0.560
13774TIP3   OH241266   0.404   4.563   6.544
13774TIP3    H141267   0.409   4.594   6.454
13774TIP3    H241268   0.414   4.642   6.597
13775TIP3   OH241269   8.382   4.472   6.919
13775TIP3    H141270   8.361   4.459   7.011
13775TIP3    H241271   8.343   4.397   6.874
13776TIP3   OH241272   0.232   3.176   6.494
13776TIP3    H141273   0.175   3.108   6.529
13776TIP3    H241274   0.208   3.182   6.401
13777TIP3   OH241275   8.230   3.135   6.846
13777TIP3    H141276   8.273   3.171   6.768
13777TIP3    H241277   8.174   3.205   6.878
13778TIP3   OH241278   0.165   3.397   6.650
13778TIP3    H141279   0.077   3.374   6.619
13778TIP3    H241280   0.223   3.334   6.606
13779TIP3   OH241281   0.411   3.851   6.702
13779TIP3    H141282   0.354   3.871   6.627
13779TIP3    H241283   0.365   3.890   6.777
13780TIP3   OH241284   0.536   4.037   6.425
13780TIP3    H141285   0.542   4.099   6.498
13780TIP3    H241286   0.546   3.951   6.466
13781TIP3   OH241287   0.189   4.266   6.851
13781TIP3    H141288   0.174   4.355   6.819
13781TIP3    H241289   0.145   4.263   6.936
13782TIP3   OH241290   8.261   3.554   6.619
13782TIP3    H141291   8.306   3.636   6.638
13782TIP3    H241292   8.182   3.556   6.672
13783TIP3   OH241293   0.294   4.003   6.898
13783TIP3    H141294   0.247   4.083   6.874
13783TIP3    H241295   0.318   4.015   6.990
13784TIP3   OH241296   0.114   4.526   6.780
13784TIP3    H141297   0.031   4.520   6.828
13784TIP3    H241298   0.141   4.617   6.789
13785TIP3   OH241299   0.135   4.097   6.251
13785TIP3    H141300   0.089   4.016   6.273
13785TIP3    H241301   0.143   4.143   6.334
13786TIP3   OH241302   0.059   4.184   6.510
13786TIP3    H141303   0.145   4.183   6.552
13786TIP3    H241304   0.036   4.277   6.506
13787TIP3   OH241305   8.339   3.810   6.714
13787TIP3    H141306   8.273   3.855   6.767
13787TIP3    H241307   8.361   3.872   6.645
13788TIP3   OH241308   0.519   4.312   6.561
13788TIP3    H141309   0.477   4.396   6.581
13788TIP3    H241310   0.595   4.335   6.508
13789TIP3   OH241311   0.023   4.452   6.525
13789TIP3    H141312   0.059   4.510   6.458
13789TIP3    H241313   0.058   4.486   6.608
13790TIP3   OH241314   8.338   4.027   6.518
13790TIP3    H141315   8.404   4.096   6.524
13790TIP3    H241316   8.376   3.963   6.458
13791TIP3   OH241317   8.318   3.279   6.627
13791TIP3    H141318   8.306   3.374   6.630
13791TIP3    H241319   8.314   3.258   6.533
13792TIP3   OH241320   8.210   4.250   6.881
13792TIP3    H141321   8.169   4.288   6.959
13792TIP3    H241322   8.167   4.294   6.808
13793TIP3   OH241323   0.318   4.380   6.112
13793TIP3    H141324   0.268   4.366   6.193
13793TIP3    H241325   0.393   4.322   6.120
13794TIP3   OH241326   8.455   3.826   6.389
13794TIP3    H141327   8.493   3.773   6.458
13794TIP3    H241328   8.496   3.794   6.309
13795TIP3   OH241329   0.524   3.922   6.166
13795TIP3    H141330   0.554   3.964   6.247
13795TIP3    H241331   0.459   3.858   6.196
13796TIP3   OH241332   0.098   3.678   6.560
13796TIP3    H141333   0.093   3.662   6.654
13796TIP3    H241334   0.168   3.620   6.529
13797TIP3   OH241335   0.296   3.546   6.419
13797TIP3    H141336   0.314   3.617   6.357
13797TIP3    H241337   0.345   3.471   6.386
13798TIP3   OH241338   0.151   4.613   6.343
13798TIP3    H141339   0.242   4.633   6.323
13798TIP3    H241340   0.102   4.646   6.268
13799TIP3   OH241341   8.076   3.973   6.530
13799TIP3    H141342   8.168   3.998   6.524
13799TIP3    H241343   8.071   3.888   6.486
13800TIP3   OH241344   5.192   0.556   0.015
13800TIP3    H141345   5.124   0.507  -0.030
13800TIP3    H241346   5.236   0.490   0.070
13801TIP3   OH241347   5.333   0.397   0.195
13801TIP3    H141348   5.319   0.334   0.266
13801TIP3    H241349   5.351   0.480   0.240
13802TIP3   OH241350   8.092   4.381   6.674
13802TIP3    H141351   8.012   4.348   6.635
13802TIP3    H241352   8.099   4.471   6.641
13803TIP3   OH241353   0.049   3.004   6.630
13803TIP3    H141354   0.122   2.949   6.659
13803TIP3    H241355   0.026   3.056   6.707
13804TIP3   OH241356   0.429   4.588   6.266
13804TIP3    H141357   0.517   4.551   6.277
13804TIP3    H241358   0.387   4.528   6.204
13805TIP3   OH241359   8.195   4.373   6.331
13805TIP3    H141360   8.209   4.397   6.423
13805TIP3    H241361   8.277   4.331   6.304
13806TIP3   OH241362   7.479   1.080   1.358
13806TIP3    H141363   7.539   1.037   1.297
13806TIP3    H241364   7.515   1.168   1.368
13807TIP3   OH241365   7.209   0.358   1.096
13807TIP3    H141366   7.269   0.409   1.152
13807TIP3    H241367   7.266   0.296   1.051
13808TIP3   OH241368   7.422   0.499   1.193
13808TIP3    H141369   7.431   0.590   1.223
13808TIP3    H241370   7.464   0.498   1.107
13809TIP3   OH241371   7.771   1.112   0.805
13809TIP3    H141372   7.770   1.204   0.779
13809TIP3    H241373   7.859   1.082   0.783
13810TIP3   OH241374   7.028   1.391   1.263
13810TIP3    H141375   7.040   1.399   1.169
13810TIP3    H241376   7.027   1.482   1.294
13811TIP3   OH241377   7.297   1.305   0.913
13811TIP3    H141378   7.339   1.234   0.864
13811TIP3    H241379   7.318   1.287   1.004
13812TIP3   OH241380   7.325   1.332   1.186
13812TIP3    H141381   7.269   1.278   1.241
13812TIP3    H241382   7.407   1.341   1.235
13813TIP3   OH241383   7.525   0.506   0.940
13813TIP3    H141384   7.475   0.514   0.859
13813TIP3    H241385   7.610   0.544   0.919
13814TIP3   OH241386   7.204   0.871   1.122
13814TIP3    H141387   7.162   0.955   1.138
13814TIP3    H241388   7.171   0.814   1.191
13815TIP3   OH241389   7.993   0.428   1.144
13815TIP3    H141390   7.932   0.369   1.101
13815TIP3    H241391   7.993   0.507   1.090
13816TIP3   OH241392   7.675   1.171   1.058
13816TIP3    H141393   7.661   1.087   1.103
13816TIP3    H241394   7.707   1.147   0.971
13817TIP3   OH241395   7.446   0.917   0.979
13817TIP3    H141396   7.505   0.915   1.055
13817TIP3    H241397   7.360   0.897   1.015
13818TIP3   OH241398   7.777   1.384   0.767
13818TIP3    H141399   7.804   1.442   0.696
13818TIP3    H241400   7.711   1.434   0.815
13819TIP3   OH241401   7.633   0.910   1.185
13819TIP3    H141402   7.613   0.842   1.249
13819TIP3    H241403   7.725   0.897   1.165
13820TIP3   OH241404   6.842   0.890   0.972
13820TIP3    H141405   6.846   0.797   0.948
13820TIP3    H241406   6.769   0.895   1.035
13821TIP3   OH241407   7.080   1.102   1.195
13821TIP3    H141408   7.116   1.134   1.277
13821TIP3    H241409   7.040   1.179   1.154
13822TIP3   OH241410   6.679   1.121   1.154
13822TIP3    H141411   6.703   1.186   1.089
13822TIP3    H241412   6.739   1.136   1.227
13823TIP3   OH241413   6.978   1.099   0.866
13823TIP3    H141414   6.933   1.026   0.909
13823TIP3    H241415   7.046   1.056   0.814
13824TIP3   OH241416   7.411   1.103   0.777
13824TIP3    H141417   7.440   1.036   0.838
13824TIP3    H241418   7.470   1.094   0.702
13825TIP3   OH241419   6.588   0.626   1.037
13825TIP3    H141420   6.609   0.644   1.128
13825TIP3    H241421   6.673   0.622   0.993
13826TIP3   OH241422   7.144   0.794   0.864
13826TIP3    H141423   7.151   0.818   0.956
13826TIP3    H241424   7.151   0.698   0.863
13827TIP3   OH241425   6.933   0.315   1.126
13827TIP3    H141426   6.901   0.343   1.040
13827TIP3    H241427   7.026   0.340   1.126
13828TIP3   OH241428   7.742   0.631   0.819
13828TIP3    H141429   7.727   0.588   0.735
13828TIP3    H241430   7.712   0.721   0.806
13829TIP3   OH241431   6.759   1.315   0.987
13829TIP3    H141432   6.850   1.344   0.992
13829TIP3    H241433   6.724   1.359   0.910
13830TIP3   OH241434   7.897   0.860   1.151
13830TIP3    H141435   7.968   0.920   1.126
13830TIP3    H241436   7.934   0.806   1.220
13831TIP3   OH241437   7.960   0.651   1.322
13831TIP3    H141438   7.977   0.633   1.415
13831TIP3    H241439   7.947   0.564   1.283
13832TIP3   OH241440   7.957   0.645   0.986
13832TIP3    H141441   7.884   0.629   0.926
13832TIP3    H241442   7.931   0.723   1.035
13833TIP3   OH241443   7.826   0.327   0.953
13833TIP3    H141444   7.807   0.335   0.860
13833TIP3    H241445   7.774   0.252   0.982
13834TIP3   OH241446   7.714   0.099   1.050
13834TIP3    H141447   7.799   0.078   1.090
13834TIP3    H241448   7.656   0.029   1.079
13835TIP3   OH241449   5.122   7.981   1.118
13835TIP3    H141450   5.071   7.910   1.077
13835TIP3    H241451   5.185   8.007   1.051
13836TIP3   OH241452   7.788   1.417   1.375
13836TIP3    H141453   7.773   1.433   1.282
13836TIP3    H241454   7.757   1.497   1.419
13837TIP3   OH241455   7.037   1.335   0.986
13837TIP3    H141456   7.128   1.338   0.956
13837TIP3    H241457   7.001   1.257   0.945
13838TIP3   OH241458   7.734   1.437   1.102
13838TIP3    H141459   7.716   1.343   1.091
13838TIP3    H241460   7.683   1.479   1.033
13839TIP3   OH241461   0.715   0.971   1.046
13839TIP3    H141462   0.686   1.060   1.024
13839TIP3    H241463   0.644   0.915   1.016
13840TIP3   OH241464   0.714   0.992   1.431
13840TIP3    H141465   0.760   0.967   1.512
13840TIP3    H241466   0.671   0.912   1.402
13841TIP3   OH241467   0.986   1.276   1.130
13841TIP3    H141468   0.974   1.210   1.199
13841TIP3    H241469   1.010   1.356   1.178
13842TIP3   OH241470   0.011   1.263   1.478
13842TIP3    H141471  -0.006   1.170   1.494
13842TIP3    H241472   0.106   1.271   1.478
13843TIP3   OH241473   8.239   0.525   1.252
13843TIP3    H141474   8.232   0.606   1.302
13843TIP3    H241475   8.149   0.504   1.227
13844TIP3   OH241476   8.317   0.745   1.424
13844TIP3    H141477   8.329   0.734   1.519
13844TIP3    H241478   8.368   0.822   1.402
13845TIP3   OH241479   0.635   1.709   1.144
13845TIP3    H141480   0.665   1.646   1.079
13845TIP3    H241481   0.624   1.658   1.224
13846TIP3   OH241482   0.523   1.201   1.467
13846TIP3    H141483   0.567   1.124   1.431
13846TIP3    H241484   0.592   1.248   1.514
13847TIP3   OH241485   1.555   0.533   1.455
13847TIP3    H141486   1.555   0.626   1.478
13847TIP3    H241487   1.596   0.530   1.369
13848TIP3   OH241488   0.888   0.660   1.521
13848TIP3    H141489   0.952   0.597   1.554
13848TIP3    H241490   0.883   0.643   1.427
13849TIP3   OH241491   0.349   0.417   1.459
13849TIP3    H141492   0.298   0.477   1.404
13849TIP3    H241493   0.364   0.341   1.403
13850TIP3   OH241494   0.983   0.443   1.093
13850TIP3    H141495   1.048   0.439   1.163
13850TIP3    H241496   1.030   0.482   1.019
13851TIP3   OH241497   0.352   0.767   1.391
13851TIP3    H141498   0.445   0.747   1.396
13851TIP3    H241499   0.313   0.689   1.352
13852TIP3   OH241500   1.598   0.766   1.656
13852TIP3    H141501   1.503   0.768   1.644
13852TIP3    H241502   1.614   0.828   1.727
13853TIP3   OH241503   0.595   1.184   0.919
13853TIP3    H141504   0.563   1.164   0.831
13853TIP3    H241505   0.552   1.266   0.942
13854TIP3   OH241506   1.152   0.469   1.301
13854TIP3    H141507   1.166   0.408   1.373
13854TIP3    H241508   1.202   0.547   1.326
13855TIP3   OH241509   8.087   1.026   1.036
13855TIP3    H141510   8.056   1.045   0.947
13855TIP3    H241511   8.112   1.111   1.071
13856TIP3   OH241512   1.025   1.521   1.272
13856TIP3    H141513   0.935   1.511   1.304
13856TIP3    H241514   1.025   1.605   1.226
13857TIP3   OH241515   1.341   0.452   1.630
13857TIP3    H141516   1.258   0.489   1.600
13857TIP3    H241517   1.404   0.477   1.562
13858TIP3   OH241518   0.726   1.555   0.932
13858TIP3    H141519   0.777   1.475   0.921
13858TIP3    H241520   0.785   1.625   0.904
13859TIP3   OH241521   0.879   1.336   0.883
13859TIP3    H141522   0.860   1.254   0.838
13859TIP3    H241523   0.920   1.310   0.965
13860TIP3   OH241524   1.245   1.402   1.629
13860TIP3    H141525   1.235   1.332   1.564
13860TIP3    H241526   1.226   1.482   1.581
13861TIP3   OH241527   0.540   0.818   0.890
13861TIP3    H141528   0.459   0.864   0.872
13861TIP3    H241529   0.588   0.820   0.807
13862TIP3   OH241530   0.516   0.617   0.593
13862TIP3    H141531   0.580   0.670   0.641
13862TIP3    H241532   0.569   0.554   0.545
13863TIP3   OH241533   1.437   1.077   1.493
13863TIP3    H141534   1.350   1.117   1.486
13863TIP3    H241535   1.477   1.092   1.408
13864TIP3   OH241536   0.901   0.908   0.856
13864TIP3    H141537   0.846   0.934   0.929
13864TIP3    H241538   0.984   0.883   0.896
13865TIP3   OH241539   1.119   1.000   1.708
13865TIP3    H141540   1.107   1.089   1.741
13865TIP3    H241541   1.035   0.977   1.669
13866TIP3   OH241542   0.131   0.887   1.256
13866TIP3    H141543   0.096   0.823   1.194
13866TIP3    H241544   0.208   0.845   1.294
13867TIP3   OH241545   0.276   1.313   1.396
13867TIP3    H141546   0.262   1.288   1.305
13867TIP3    H241547   0.360   1.273   1.419
13868TIP3   OH241548   0.238   0.887   1.610
13868TIP3    H141549   0.278   0.841   1.536
13868TIP3    H241550   0.308   0.943   1.644
13869TIP3   OH241551   0.782   1.505   1.393
13869TIP3    H141552   0.766   1.586   1.442
13869TIP3    H241553   0.773   1.436   1.458
13870TIP3   OH241554   0.733   0.769   0.689
13870TIP3    H141555   0.793   0.826   0.737
13870TIP3    H241556   0.761   0.777   0.597
13871TIP3   OH241557   0.477   1.437   0.946
13871TIP3    H141558   0.562   1.482   0.948
13871TIP3    H241559   0.420   1.495   0.896
13872TIP3   OH241560   1.260  -0.001   0.716
13872TIP3    H141561   1.184   0.017   0.771
13872TIP3    H241562   1.269   0.077   0.662
13873TIP3   OH241563   8.497   0.723   1.064
13873TIP3    H141564   8.428   0.777   1.026
13873TIP3    H241565   8.451   0.650   1.104
13874TIP3   OH241566   1.067   1.368   0.298
13874TIP3    H141567   1.065   1.461   0.276
13874TIP3    H241568   1.157   1.341   0.279
13875TIP3   OH241569   1.479   1.784   1.685
13875TIP3    H141570   1.483   1.688   1.691
13875TIP3    H241571   1.396   1.807   1.727
13876TIP3   OH241572   0.370   1.661   0.771
13876TIP3    H141573   0.324   1.640   0.689
13876TIP3    H241574   0.333   1.745   0.798
13877TIP3   OH241575   8.306   1.517   1.139
13877TIP3    H141576   8.350   1.511   1.224
13877TIP3    H241577   8.259   1.434   1.131
13878TIP3   OH241578   0.571   1.590   0.398
13878TIP3    H141579   0.621   1.516   0.363
13878TIP3    H241580   0.606   1.603   0.486
13879TIP3   OH241581   0.623   1.635   0.667
13879TIP3    H141582   0.537   1.638   0.709
13879TIP3    H241583   0.681   1.597   0.734
13880TIP3   OH241584   0.817   0.771   0.431
13880TIP3    H141585   0.766   0.765   0.350
13880TIP3    H241586   0.898   0.814   0.405
13881TIP3   OH241587   0.525   0.168   0.735
13881TIP3    H141588   0.496   0.153   0.825
13881TIP3    H241589   0.487   0.096   0.685
13882TIP3   OH241590   0.205   0.566   1.281
13882TIP3    H141591   0.119   0.546   1.317
13882TIP3    H241592   0.205   0.524   1.195
13883TIP3   OH241593   0.679   0.620   1.018
13883TIP3    H141594   0.629   0.691   0.978
13883TIP3    H241595   0.735   0.588   0.948
13884TIP3   OH241596   0.841   0.631   1.244
13884TIP3    H141597   0.781   0.652   1.172
13884TIP3    H241598   0.890   0.554   1.213
13885TIP3   OH241599   0.187   0.151   0.674
13885TIP3    H141600   0.188   0.167   0.769
13885TIP3    H241601   0.109   0.197   0.643
13886TIP3   OH241602   8.207   0.257   1.085
13886TIP3    H141603   8.221   0.285   0.995
13886TIP3    H241604   8.136   0.313   1.118
13887TIP3   OH241605   0.861   0.901   1.646
13887TIP3    H141606   0.879   0.816   1.605
13887TIP3    H241607   0.851   0.881   1.739
13888TIP3   OH241608   0.609   0.401   1.343
13888TIP3    H141609   0.544   0.426   1.409
13888TIP3    H241610   0.691   0.395   1.392
13889TIP3   OH241611   8.475   0.445   1.353
13889TIP3    H141612   8.391   0.470   1.314
13889TIP3    H241613   8.504   0.370   1.301
13890TIP3   OH241614   0.211   0.419   1.047
13890TIP3    H141615   0.305   0.439   1.039
13890TIP3    H241616   0.174   0.445   0.963
13891TIP3   OH241617   1.050   0.450   1.596
13891TIP3    H141618   1.082   0.394   1.668
13891TIP3    H241619   0.981   0.398   1.555
13892TIP3   OH241620   0.094   0.440   0.802
13892TIP3    H141621   0.028   0.396   0.748
13892TIP3    H241622   0.147   0.489   0.738
13893TIP3   OH241623   1.180   2.110   1.772
13893TIP3    H141624   1.193   2.139   1.682
13893TIP3    H241625   1.218   2.181   1.825
13894TIP3   OH241626   0.625   0.712   1.419
13894TIP3    H141627   0.671   0.675   1.343
13894TIP3    H241628   0.682   0.693   1.493
13895TIP3   OH241629   0.109   0.200   1.318
13895TIP3    H141630   0.061   0.176   1.397
13895TIP3    H241631   0.056   0.163   1.247
13896TIP3   OH241632   0.303   0.954   0.833
13896TIP3    H141633   0.229   0.898   0.812
13896TIP3    H241634   0.280   0.995   0.916
13897TIP3   OH241635   1.200   1.209   1.440
13897TIP3    H141636   1.236   1.257   1.366
13897TIP3    H241637   1.119   1.170   1.406
13898TIP3   OH241638   0.776   0.274   0.735
13898TIP3    H141639   0.682   0.254   0.730
13898TIP3    H241640   0.780   0.369   0.741
13899TIP3   OH241641   0.839   0.537   0.804
13899TIP3    H141642   0.934   0.544   0.815
13899TIP3    H241643   0.815   0.613   0.752
13900TIP3   OH241644   0.009   0.980   1.486
13900TIP3    H141645   0.048   0.962   1.400
13900TIP3    H241646   0.075   0.950   1.549
13901TIP3   OH241647   0.460   1.115   0.679
13901TIP3    H141648   0.414   1.199   0.677
13901TIP3    H241649   0.404   1.057   0.730
13902TIP3   OH241650   0.892   1.532   1.778
13902TIP3    H141651   0.802   1.564   1.775
13902TIP3    H241652   0.941   1.602   1.821
13903TIP3   OH241653   1.244   0.633   0.634
13903TIP3    H141654   1.190   0.585   0.572
13903TIP3    H241655   1.251   0.721   0.596
13904TIP3   OH241656   1.486   1.514   1.699
13904TIP3    H141657   1.397   1.479   1.695
13904TIP3    H241658   1.533   1.470   1.628
13905TIP3   OH241659   0.987   1.439   0.560
13905TIP3    H141660   0.961   1.367   0.617
13905TIP3    H241661   1.007   1.396   0.476
13906TIP3   OH241662   0.968   1.079   1.333
13906TIP3    H141663   0.876   1.056   1.347
13906TIP3    H241664   1.008   0.998   1.302
13907TIP3   OH241665   0.125   1.311   1.148
13907TIP3    H141666   0.118   1.387   1.091
13907TIP3    H241667   0.040   1.306   1.192
13908TIP3   OH241668   8.194   0.603   0.853
13908TIP3    H141669   8.242   0.683   0.876
13908TIP3    H241670   8.110   0.612   0.898
13909TIP3   OH241671   0.211   1.066   1.059
13909TIP3    H141672   0.193   1.156   1.087
13909TIP3    H241673   0.185   1.012   1.134
13910TIP3   OH241674   0.387   1.637   1.600
13910TIP3    H141675   0.425   1.713   1.558
13910TIP3    H241676   0.462   1.580   1.620
13911TIP3   OH241677   0.041   1.536   0.998
13911TIP3    H141678  -0.047   1.540   1.037
13911TIP3    H241679   0.074   1.625   1.004
13912TIP3   OH241680   0.785   1.280   1.561
13912TIP3    H141681   0.851   1.279   1.630
13912TIP3    H241682   0.811   1.210   1.501
13913TIP3   OH241683   0.753   1.174   0.456
13913TIP3    H141684   0.798   1.154   0.538
13913TIP3    H241685   0.668   1.131   0.465
13914TIP3   OH241686   0.987   1.806   1.615
13914TIP3    H141687   0.904   1.764   1.593
13914TIP3    H241688   0.999   1.872   1.547
13915TIP3   OH241689   1.069   1.641   0.260
13915TIP3    H141690   1.094   1.706   0.193
13915TIP3    H241691   0.995   1.682   0.305
13916TIP3   OH241692   0.921   1.116   0.672
13916TIP3    H141693   0.907   1.044   0.734
13916TIP3    H241694   1.015   1.115   0.655
13917TIP3   OH241695   0.100   1.142   0.465
13917TIP3    H141696   0.110   1.051   0.438
13917TIP3    H241697   0.086   1.138   0.560
13918TIP3   OH241698   0.045   1.157   0.738
13918TIP3    H141699   0.113   1.130   0.800
13918TIP3    H241700   0.045   1.252   0.742
13919TIP3   OH241701   8.284   0.852   0.943
13919TIP3    H141702   8.219   0.899   0.995
13919TIP3    H241703   8.303   0.911   0.870
13920TIP3   OH241704   0.843   0.229   0.997
13920TIP3    H141705   0.819   0.251   0.907
13920TIP3    H241706   0.888   0.307   1.030
13921TIP3   OH241707   0.315   1.343   0.675
13921TIP3    H141708   0.230   1.367   0.711
13921TIP3    H241709   0.339   1.417   0.619
13922TIP3   OH241710   0.488   0.433   1.086
13922TIP3    H141711   0.549   0.499   1.052
13922TIP3    H241712   0.516   0.419   1.176
13923TIP3   OH241713   0.661   0.176   1.196
13923TIP3    H141714   0.640   0.254   1.247
13923TIP3    H241715   0.733   0.202   1.139
13924TIP3   OH241716   0.063   1.429   0.748
13924TIP3    H141717   0.043   1.501   0.687
13924TIP3    H241718   0.054   1.468   0.835
13925TIP3   OH241719   0.179   0.162   0.947
13925TIP3    H141720   0.178   0.251   0.983
13925TIP3    H241721   0.269   0.131   0.962
13926TIP3   OH241722   1.057   0.821   1.258
13926TIP3    H141723   0.984   0.759   1.265
13926TIP3    H241724   1.127   0.779   1.308
13927TIP3   OH241725   8.298   1.030   0.728
13927TIP3    H141726   8.370   1.093   0.738
13927TIP3    H241727   8.331   0.966   0.665
13928TIP3   OH241728   8.217   0.329   0.829
13928TIP3    H141729   8.223   0.424   0.836
13928TIP3    H241730   8.168   0.313   0.748
13929TIP3   OH241731   1.038   1.790   1.194
13929TIP3    H141732   0.993   1.840   1.126
13929TIP3    H241733   1.131   1.806   1.178
13930TIP3   OH241734   8.134   1.290   1.121
13930TIP3    H141735   8.099   1.331   1.200
13930TIP3    H241736   8.091   1.335   1.049
13931TIP3   OH241737   0.259   1.341   0.356
13931TIP3    H141738   0.211   1.271   0.400
13931TIP3    H241739   0.333   1.297   0.314
13932TIP3   OH241740   0.700   1.379   0.280
13932TIP3    H141741   0.733   1.315   0.342
13932TIP3    H241742   0.759   1.372   0.204
13933TIP3   OH241743   8.421   0.836   0.582
13933TIP3    H141744   8.473   0.810   0.659
13933TIP3    H241745   8.485   0.848   0.513
13934TIP3   OH241746   0.492   1.058   0.413
13934TIP3    H141747   0.470   1.069   0.505
13934TIP3    H241748   0.479   0.964   0.397
13935TIP3   OH241749   1.012   1.287   1.735
13935TIP3    H141750   1.098   1.318   1.706
13935TIP3    H241751   0.967   1.366   1.765
13936TIP3   OH241752   0.096   0.772   0.792
13936TIP3    H141753   0.076   0.736   0.879
13936TIP3    H241754   0.145   0.702   0.748
13937TIP3   OH241755   0.239   0.593   0.628
13937TIP3    H141756   0.211   0.598   0.537
13937TIP3    H241757   0.335   0.599   0.625
13938TIP3   OH241758   1.039   0.885   0.311
13938TIP3    H141759   1.023   0.841   0.227
13938TIP3    H241760   1.013   0.976   0.295
13939TIP3   OH241761   0.059   1.640   0.566
13939TIP3    H141762   0.149   1.618   0.541
13939TIP3    H241763   0.022   1.685   0.490
13940TIP3   OH241764   8.025   1.019   0.748
13940TIP3    H141765   8.120   1.032   0.741
13940TIP3    H241766   8.010   0.932   0.710
13941TIP3   OH241767   7.940   1.611   1.164
13941TIP3    H141768   7.878   1.550   1.124
13941TIP3    H241769   7.992   1.557   1.224
13942TIP3   OH241770   8.067   1.448   1.344
13942TIP3    H141771   7.988   1.422   1.391
13942TIP3    H241772   8.118   1.498   1.408
13943TIP3   OH241773   1.300   1.860   1.174
13943TIP3    H141774   1.330   1.873   1.264
13943TIP3    H241775   1.370   1.896   1.120
13944TIP3   OH241776   1.331   1.856   1.453
13944TIP3    H141777   1.280   1.775   1.453
13944TIP3    H241778   1.399   1.842   1.519
13945TIP3   OH241779   1.199   1.091   0.647
13945TIP3    H141780   1.258   1.159   0.616
13945TIP3    H241781   1.243   1.053   0.723
13946TIP3   OH241782   1.325   0.955   0.852
13946TIP3    H141783   1.259   0.915   0.909
13946TIP3    H241784   1.392   0.988   0.911
13947TIP3   OH241785   1.377   1.345   1.277
13947TIP3    H141786   1.431   1.275   1.240
13947TIP3    H241787   1.383   1.416   1.214
13948TIP3   OH241788   1.175   1.627   1.481
13948TIP3    H141789   1.102   1.671   1.525
13948TIP3    H241790   1.136   1.586   1.404
13949TIP3   OH241791   1.245   0.868   0.491
13949TIP3    H141792   1.176   0.867   0.425
13949TIP3    H241793   1.228   0.945   0.544
13950TIP3   OH241794   1.101   0.509   0.438
13950TIP3    H141795   1.065   0.558   0.364
13950TIP3    H241796   1.086   0.417   0.416
13951TIP3   OH241797   1.127   0.812   0.989
13951TIP3    H141798   1.134   0.718   0.975
13951TIP3    H241799   1.108   0.821   1.082
13952TIP3   OH241800   1.443   1.191   1.828
13952TIP3    H141801   1.429   1.179   1.734
13952TIP3    H241802   1.407   1.278   1.847
13953TIP3   OH241803   1.614   0.971   1.839
13953TIP3    H141804   1.545   1.034   1.859
13953TIP3    H241805   1.695   1.018   1.857
13954TIP3   OH241806   1.066   0.234   0.405
13954TIP3    H141807   1.126   0.217   0.478
13954TIP3    H241808   0.981   0.204   0.436
13955TIP3   OH241809   1.125   0.539   0.870
13955TIP3    H141810   1.172   0.457   0.882
13955TIP3    H241811   1.166   0.580   0.794
13956TIP3   OH241812   1.276   0.700   1.386
13956TIP3    H141813   1.358   0.719   1.342
13956TIP3    H241814   1.284   0.741   1.472
13957TIP3   OH241815   1.333   0.849   1.609
13957TIP3    H141816   1.261   0.886   1.660
13957TIP3    H241817   1.378   0.925   1.572
13958TIP3   OH241818   1.242   0.291   0.916
13958TIP3    H141819   1.281   0.279   1.002
13958TIP3    H241820   1.183   0.216   0.906
13959TIP3   OH241821   1.309   0.206   0.544
13959TIP3    H141822   1.394   0.174   0.514
13959TIP3    H241823   1.323   0.299   0.564
13960TIP3   OH241824   8.210   0.175   1.350
13960TIP3    H141825   8.121   0.150   1.375
13960TIP3    H241826   8.203   0.199   1.258
13961TIP3   OH241827   0.872   1.756   0.828
13961TIP3    H141828   0.927   1.742   0.750
13961TIP3    H241829   0.916   1.826   0.876
13962TIP3   OH241830   0.150   1.595   1.741
13962TIP3    H141831   0.116   1.682   1.717
13962TIP3    H241832   0.238   1.593   1.705
13963TIP3   OH241833   0.779   1.979   1.748
13963TIP3    H141834   0.858   1.939   1.710
13963TIP3    H241835   0.802   1.994   1.839
13964TIP3   OH241836   0.069   1.841   1.644
13964TIP3    H141837  -0.017   1.864   1.679
13964TIP3    H241838   0.060   1.856   1.549
13965TIP3   OH241839   0.489   1.838   1.439
13965TIP3    H141840   0.418   1.849   1.375
13965TIP3    H241841   0.498   1.925   1.478
13966TIP3   OH241842   0.750   1.766   1.482
13966TIP3    H141843   0.657   1.786   1.471
13966TIP3    H241844   0.795   1.831   1.429
13967TIP3   OH241845   0.971   1.967   1.394
13967TIP3    H141846   0.955   2.051   1.352
13967TIP3    H241847   0.993   1.908   1.322
13968TIP3   OH241848   8.242   1.614   1.501
13968TIP3    H141849   8.257   1.596   1.594
13968TIP3    H241850   8.318   1.577   1.456
13969TIP3   OH241851   8.453   1.504   1.370
13969TIP3    H141852   8.465   1.419   1.413
13969TIP3    H241853   8.540   1.544   1.371
13970TIP3   OH241854   0.219   1.587   1.386
13970TIP3    H141855   0.241   1.495   1.373
13970TIP3    H241856   0.261   1.610   1.469
13971TIP3   OH241857   0.852   0.315   1.461
13971TIP3    H141858   0.805   0.244   1.505
13971TIP3    H241859   0.910   0.270   1.400
13972TIP3   OH241860   1.292   0.150   1.384
13972TIP3    H141861   1.328   0.201   1.311
13972TIP3    H241862   1.197   0.161   1.376
13973TIP3   OH241863   1.386   0.248   1.147
13973TIP3    H141864   1.449   0.178   1.132
13973TIP3    H241865   1.433   0.328   1.127
13974TIP3   OH241866   5.493   7.876   1.052
13974TIP3    H141867   5.566   7.904   0.996
13974TIP3    H241868   5.519   7.900   1.140
13975TIP3   OH241869   6.235   7.975   1.331
13975TIP3    H141870   6.266   8.057   1.291
13975TIP3    H241871   6.160   8.002   1.384
13976TIP3   OH241872   1.020   0.150   1.316
13976TIP3    H141873   1.043   0.113   1.231
13976TIP3    H241874   0.993   0.075   1.369
13977TIP3   OH241875   1.065   0.077   0.899
13977TIP3    H141876   0.983   0.120   0.924
13977TIP3    H241877   1.059  -0.011   0.936
13978TIP3   OH241878   8.017   1.414   0.907
13978TIP3    H141879   7.935   1.379   0.872
13978TIP3    H241880   8.023   1.503   0.872
13979TIP3   OH241881   5.642   7.997   0.844
13979TIP3    H141882   5.670   7.928   0.784
13979TIP3    H241883   5.722   8.047   0.861
13980TIP3   OH241884   0.455   0.165   1.013
13980TIP3    H141885   0.523   0.145   1.077
13980TIP3    H241886   0.447   0.260   1.014
13981TIP3   OH241887   0.315   1.566   0.500
13981TIP3    H141888   0.399   1.593   0.463
13981TIP3    H241889   0.286   1.494   0.444
13982TIP3   OH241890   1.020   1.707   0.598
13982TIP3    H141891   1.014   1.612   0.590
13982TIP3    H241892   0.977   1.740   0.519
13983TIP3   OH241893   8.124   1.408   0.558
13983TIP3    H141894   8.130   1.422   0.652
13983TIP3    H241895   8.204   1.361   0.534
13984TIP3   OH241896   1.224   1.841   1.763
13984TIP3    H141897   1.143   1.814   1.718
13984TIP3    H241898   1.211   1.934   1.782
13985TIP3   OH241899   2.510   1.231   0.534
13985TIP3    H141900   2.475   1.318   0.514
13985TIP3    H241901   2.443   1.170   0.504
13986TIP3   OH241902   2.479   1.219   0.934
13986TIP3    H141903   2.520   1.199   1.019
13986TIP3    H241904   2.439   1.136   0.908
13987TIP3   OH241905   1.807   1.084   1.293
13987TIP3    H141906   1.842   1.030   1.364
13987TIP3    H241907   1.884   1.111   1.243
13988TIP3   OH241908   2.772   1.486   0.605
13988TIP3    H141909   2.740   1.429   0.675
13988TIP3    H241910   2.783   1.571   0.646
13989TIP3   OH241911   1.790   1.512   0.994
13989TIP3    H141912   1.776   1.418   0.996
13989TIP3    H241913   1.884   1.522   0.980
13990TIP3   OH241914   1.477   0.734   0.770
13990TIP3    H141915   1.439   0.818   0.794
13990TIP3    H241916   1.404   0.685   0.731
13991TIP3   OH241917   1.560   1.026   0.990
13991TIP3    H141918   1.609   0.948   1.015
13991TIP3    H241919   1.626   1.087   0.958
13992TIP3   OH241920   2.454   1.975   0.658
13992TIP3    H141921   2.491   1.909   0.599
13992TIP3    H241922   2.398   1.926   0.718
13993TIP3   OH241923   2.300   1.442   0.949
13993TIP3    H141924   2.338   1.360   0.919
13993TIP3    H241925   2.375   1.494   0.978
13994TIP3   OH241926   3.279   0.705   0.892
13994TIP3    H141927   3.294   0.780   0.950
13994TIP3    H241928   3.321   0.729   0.810
13995TIP3   OH241929   2.738   0.934   0.999
13995TIP3    H141930   2.766   0.845   1.021
13995TIP3    H241931   2.698   0.925   0.912
13996TIP3   OH241932   2.095   0.578   0.966
13996TIP3    H141933   2.054   0.627   0.895
13996TIP3    H241934   2.069   0.488   0.952
13997TIP3   OH241935   2.769   0.698   0.584
13997TIP3    H141936   2.833   0.670   0.649
13997TIP3    H241937   2.822   0.730   0.510
13998TIP3   OH241938   1.700   0.804   1.079
13998TIP3    H141939   1.785   0.787   1.120
13998TIP3    H241940   1.700   0.749   1.000
13999TIP3   OH241941   2.118   0.994   0.894
13999TIP3    H141942   2.213   0.978   0.899
13999TIP3    H241943   2.081   0.910   0.866
14000TIP3   OH241944   3.315   0.903   1.073
14000TIP3    H141945   3.242   0.964   1.063
14000TIP3    H241946   3.392   0.959   1.081
14001TIP3   OH241947   2.054   0.597   1.402
14001TIP3    H141948   2.010   0.629   1.323
14001TIP3    H241949   1.991   0.614   1.472
14002TIP3   OH241950   2.366   1.438   0.424
14002TIP3    H141951   2.352   1.422   0.330
14002TIP3    H241952   2.324   1.522   0.440
14003TIP3   OH241953   2.153   1.365   1.172
14003TIP3    H141954   2.092   1.431   1.206
14003TIP3    H241955   2.196   1.408   1.097
14004TIP3   OH241956   2.936   0.654   0.793
14004TIP3    H141957   2.891   0.654   0.877
14004TIP3    H241958   2.986   0.736   0.793
14005TIP3   OH241959   1.945   0.696   1.166
14005TIP3    H141960   1.999   0.772   1.188
14005TIP3    H241961   1.995   0.650   1.098
14006TIP3   OH241962   1.972   1.549   1.268
14006TIP3    H141963   1.947   1.631   1.225
14006TIP3    H241964   1.896   1.527   1.322
14007TIP3   OH241965   1.377   1.273   0.531
14007TIP3    H141966   1.345   1.289   0.442
14007TIP3    H241967   1.400   1.360   0.563
14008TIP3   OH241968   2.765   1.741   0.720
14008TIP3    H141969   2.697   1.745   0.788
14008TIP3    H241970   2.740   1.808   0.657
14009TIP3   OH241971   3.102   0.608   1.095
14009TIP3    H141972   3.013   0.635   1.075
14009TIP3    H241973   3.152   0.631   1.017
14010TIP3   OH241974   2.424   0.328   1.128
14010TIP3    H141975   2.396   0.274   1.055
14010TIP3    H241976   2.344   0.347   1.176
14011TIP3   OH241977   2.526   1.783   0.471
14011TIP3    H141978   2.556   1.693   0.460
14011TIP3    H241979   2.572   1.833   0.403
14012TIP3   OH241980   2.658   1.567   0.371
14012TIP3    H141981   2.671   1.504   0.299
14012TIP3    H241982   2.705   1.529   0.445
14013TIP3   OH241983   2.908   1.661   1.052
14013TIP3    H141984   2.924   1.599   0.981
14013TIP3    H241985   2.993   1.705   1.065
14014TIP3   OH241986   2.340   1.071   0.381
14014TIP3    H141987   2.259   1.119   0.363
14014TIP3    H241988   2.385   1.069   0.297
14015TIP3   OH241989   2.311   0.872   0.075
14015TIP3    H141990   2.377   0.923   0.122
14015TIP3    H241991   2.362   0.808   0.025
14016TIP3   OH241992   3.116   1.230   0.939
14016TIP3    H141993   3.070   1.304   0.900
14016TIP3    H241994   3.202   1.232   0.898
14017TIP3   OH241995   2.692   1.167   0.339
14017TIP3    H141996   2.639   1.195   0.413
14017TIP3    H241997   2.774   1.137   0.377
14018TIP3   OH241998   2.869   1.169   1.236
14018TIP3    H141999   2.902   1.258   1.230
14018TIP3    H242000   2.777   1.175   1.209
14019TIP3   OH242001   1.925   1.139   0.752
14019TIP3    H142002   1.887   1.082   0.685
14019TIP3    H242003   1.997   1.088   0.789
14020TIP3   OH242004   2.051   1.555   0.891
14020TIP3    H142005   2.027   1.542   0.799
14020TIP3    H242006   2.138   1.516   0.899
14021TIP3   OH242007   2.022   1.132   1.117
14021TIP3    H142008   2.060   1.095   1.037
14021TIP3    H242009   2.073   1.211   1.133
14022TIP3   OH242010   2.590   1.762   0.932
14022TIP3    H142011   2.635   1.782   1.014
14022TIP3    H242012   2.552   1.675   0.946
14023TIP3   OH242013   2.139   1.667   1.454
14023TIP3    H142014   2.089   1.744   1.481
14023TIP3    H242015   2.084   1.626   1.387
14024TIP3   OH242016   2.529   1.020   0.174
14024TIP3    H142017   2.586   1.079   0.222
14024TIP3    H242018   2.556   1.028   0.083
14025TIP3   OH242019   1.961   1.234   1.529
14025TIP3    H142020   1.962   1.318   1.574
14025TIP3    H242021   1.870   1.206   1.531
14026TIP3   OH242022   2.263   1.698   0.445
14026TIP3    H142023   2.350   1.736   0.456
14026TIP3    H242024   2.218   1.759   0.386
14027TIP3   OH242025   1.924   1.841   1.499
14027TIP3    H142026   1.889   1.810   1.415
14027TIP3    H242027   1.867   1.802   1.565
14028TIP3   OH242028   3.041   0.246   0.232
14028TIP3    H142029   2.963   0.267   0.284
14028TIP3    H242030   3.054   0.322   0.176
14029TIP3   OH242031   1.800   0.985   0.550
14029TIP3    H142032   1.724   1.032   0.516
14029TIP3    H242033   1.770   0.895   0.563
14030TIP3   OH242034   5.694   5.633   6.714
14030TIP3    H142035   5.691   5.725   6.688
14030TIP3    H242036   5.784   5.606   6.694
14031TIP3   OH242037   1.577   1.381   1.478
14031TIP3    H142038   1.508   1.358   1.416
14031TIP3    H242039   1.615   1.298   1.505
14032TIP3   OH242040   1.450   1.564   1.113
14032TIP3    H142041   1.543   1.556   1.094
14032TIP3    H242042   1.444   1.641   1.170
14033TIP3   OH242043   2.384   1.800   1.218
14033TIP3    H142044   2.371   1.880   1.269
14033TIP3    H242045   2.387   1.730   1.284
14034TIP3   OH242046   2.172   1.909   0.267
14034TIP3    H142047   2.130   1.888   0.183
14034TIP3    H242048   2.131   1.991   0.294
14035TIP3   OH242049   1.595   1.770   0.633
14035TIP3    H142050   1.637   1.761   0.719
14035TIP3    H242051   1.546   1.688   0.622
14036TIP3   OH242052   5.194   5.850   6.812
14036TIP3    H142053   5.245   5.776   6.778
14036TIP3    H242054   5.227   5.862   6.901
14037TIP3   OH242055   2.415   1.892   0.133
14037TIP3    H142056   2.341   1.884   0.194
14037TIP3    H242057   2.492   1.870   0.186
14038TIP3   OH242058   3.199   1.163   1.531
14038TIP3    H142059   3.118   1.185   1.577
14038TIP3    H242060   3.181   1.186   1.440
14039TIP3   OH242061   1.754   1.585   1.439
14039TIP3    H142062   1.797   1.585   1.524
14039TIP3    H242063   1.689   1.515   1.444
14040TIP3   OH242064   2.177   0.380   1.256
14040TIP3    H142065   2.118   0.352   1.186
14040TIP3    H242066   2.132   0.452   1.299
14041TIP3   OH242067   2.698   0.501   1.456
14041TIP3    H142068   2.762   0.500   1.527
14041TIP3    H242069   2.614   0.487   1.499
14042TIP3   OH242070   2.915   0.933   1.363
14042TIP3    H142071   2.868   0.946   1.446
14042TIP3    H242072   2.902   1.015   1.315
14043TIP3   OH242073   5.444   5.028   6.855
14043TIP3    H142074   5.396   5.026   6.773
14043TIP3    H242075   5.528   5.069   6.832
14044TIP3   OH242076   2.319   0.423   0.228
14044TIP3    H142077   2.283   0.429   0.317
14044TIP3    H242078   2.282   0.342   0.193
14045TIP3   OH242079   2.095   0.904   1.256
14045TIP3    H142080   2.058   0.916   1.344
14045TIP3    H242081   2.073   0.986   1.210
14046TIP3   OH242082   1.979   0.769   0.798
14046TIP3    H142083   1.888   0.747   0.820
14046TIP3    H242084   1.989   0.743   0.707
14047TIP3   OH242085   2.465   0.868   0.517
14047TIP3    H142086   2.417   0.939   0.475
14047TIP3    H242087   2.523   0.835   0.449
14048TIP3   OH242088   2.545   1.200   1.654
14048TIP3    H142089   2.547   1.127   1.716
14048TIP3    H242090   2.613   1.179   1.590
14049TIP3   OH242091   2.632   0.885   0.742
14049TIP3    H142092   2.562   0.906   0.681
14049TIP3    H242093   2.677   0.810   0.702
14050TIP3   OH242094   1.926   0.914   1.484
14050TIP3    H142095   1.968   0.957   1.558
14050TIP3    H242096   1.896   0.830   1.519
14051TIP3   OH242097   1.983   0.405   0.191
14051TIP3    H142098   1.977   0.413   0.287
14051TIP3    H242099   1.906   0.451   0.158
14052TIP3   OH242100   1.544   0.444   1.051
14052TIP3    H142101   1.607   0.482   1.112
14052TIP3    H242102   1.597   0.398   0.986
14053TIP3   OH242103   1.438   0.447   0.578
14053TIP3    H142104   1.480   0.479   0.498
14053TIP3    H242105   1.376   0.516   0.602
14054TIP3   OH242106   2.613   1.123   1.153
14054TIP3    H142107   2.655   1.058   1.098
14054TIP3    H242108   2.577   1.074   1.227
14055TIP3   OH242109   2.350   0.588   0.841
14055TIP3    H142110   2.273   0.586   0.897
14055TIP3    H242111   2.424   0.579   0.900
14056TIP3   OH242112   1.728   0.659   0.845
14056TIP3    H142113   1.641   0.683   0.813
14056TIP3    H242114   1.737   0.567   0.823
14057TIP3   OH242115   1.997   0.670   0.544
14057TIP3    H142116   2.091   0.680   0.534
14057TIP3    H242117   1.961   0.686   0.457
14058TIP3   OH242118   2.807   0.666   1.044
14058TIP3    H142119   2.788   0.683   1.136
14058TIP3    H242120   2.735   0.611   1.014
14059TIP3   OH242121   1.883   0.695   0.296
14059TIP3    H142122   1.822   0.647   0.241
14059TIP3    H242123   1.939   0.742   0.233
14060TIP3   OH242124   1.930   1.476   1.669
14060TIP3    H142125   2.003   1.532   1.696
14060TIP3    H242126   1.862   1.493   1.734
14061TIP3   OH242127   2.392   0.944   0.938
14061TIP3    H142128   2.457   0.891   0.892
14061TIP3    H242129   2.387   0.904   1.025
14062TIP3   OH242130   2.360   0.847   1.202
14062TIP3    H142131   2.271   0.873   1.224
14062TIP3    H242132   2.416   0.897   1.262
14063TIP3   OH242133   2.103   1.212   0.325
14063TIP3    H142134   2.029   1.156   0.303
14063TIP3    H242135   2.080   1.251   0.409
14064TIP3   OH242136   2.957   1.451   0.886
14064TIP3    H142137   2.991   1.496   0.808
14064TIP3    H242138   2.875   1.411   0.856
14065TIP3   OH242139   2.571   0.526   0.228
14065TIP3    H142140   2.477   0.505   0.224
14065TIP3    H242141   2.574   0.621   0.239
14066TIP3   OH242142   2.507   1.429   1.313
14066TIP3    H142143   2.594   1.424   1.353
14066TIP3    H242144   2.462   1.498   1.361
14067TIP3   OH242145   2.628   0.790   0.300
14067TIP3    H142146   2.724   0.795   0.307
14067TIP3    H242147   2.605   0.866   0.247
14068TIP3   OH242148   1.793   1.229   0.977
14068TIP3    H142149   1.831   1.209   0.891
14068TIP3    H242150   1.856   1.196   1.040
14069TIP3   OH242151   2.259   1.371   0.167
14069TIP3    H142152   2.212   1.454   0.165
14069TIP3    H242153   2.204   1.313   0.220
14070TIP3   OH242154   1.699   1.162   1.603
14070TIP3    H142155   1.739   1.150   1.689
14070TIP3    H242156   1.632   1.094   1.598
14071TIP3   OH242157   2.282   1.260   1.649
14071TIP3    H142158   2.234   1.194   1.600
14071TIP3    H242159   2.374   1.237   1.638
14072TIP3   OH242160   2.653   1.841   1.189
14072TIP3    H142161   2.559   1.830   1.200
14072TIP3    H242162   2.690   1.828   1.276
14073TIP3   OH242163   3.046   0.879   0.118
14073TIP3    H142164   2.989   0.835   0.055
14073TIP3    H242165   3.051   0.969   0.086
14074TIP3   OH242166   3.405   1.829   1.197
14074TIP3    H142167   3.335   1.766   1.211
14074TIP3    H242168   3.464   1.786   1.135
14075TIP3   OH242169   2.785   1.682   0.036
14075TIP3    H142170   2.754   1.609   0.089
14075TIP3    H242171   2.804   1.643  -0.050
14076TIP3   OH242172   2.724   1.316   0.825
14076TIP3    H142173   2.633   1.288   0.842
14076TIP3    H242174   2.766   1.238   0.789
14077TIP3   OH242175   1.918   1.565   0.644
14077TIP3    H142176   1.921   1.641   0.586
14077TIP3    H242177   1.825   1.546   0.654
14078TIP3   OH242178   1.483   0.852   0.347
14078TIP3    H142179   1.527   0.934   0.368
14078TIP3    H242180   1.402   0.854   0.398
14079TIP3   OH242181   2.009   1.319   0.554
14079TIP3    H142182   1.993   1.408   0.583
14079TIP3    H242183   1.983   1.264   0.629
14080TIP3   OH242184   2.157   1.887   1.098
14080TIP3    H142185   2.196   1.936   1.026
14080TIP3    H242186   2.231   1.843   1.140
14081TIP3   OH242187   1.829   1.785   0.489
14081TIP3    H142188   1.742   1.790   0.529
14081TIP3    H242189   1.857   1.877   0.483
14082TIP3   OH242190   2.551   1.512   1.051
14082TIP3    H142191   2.527   1.472   1.134
14082TIP3    H242192   2.610   1.450   1.010
14083TIP3   OH242193   5.382   5.439   6.883
14083TIP3    H142194   5.421   5.420   6.968
14083TIP3    H242195   5.296   5.395   6.887
14084TIP3   OH242196   2.837   1.999   1.056
14084TIP3    H142197   2.775   1.945   1.104
14084TIP3    H242198   2.787   2.034   0.983
14085TIP3   OH242199   5.695   5.908   6.670
14085TIP3    H142200   5.738   5.981   6.626
14085TIP3    H242201   5.613   5.945   6.704
14086TIP3   OH242202   1.841   0.657   1.582
14086TIP3    H142203   1.761   0.702   1.608
14086TIP3    H242204   1.823   0.564   1.596
14087TIP3   OH242205   2.714   1.382   0.165
14087TIP3    H142206   2.698   1.307   0.222
14087TIP3    H242207   2.806   1.375   0.141
14088TIP3   OH242208   1.605   1.772   1.263
14088TIP3    H142209   1.659   1.712   1.315
14088TIP3    H242210   1.621   1.858   1.301
14089TIP3   OH242211   4.730   5.404   6.892
14089TIP3    H142212   4.743   5.313   6.864
14089TIP3    H242213   4.715   5.398   6.986
14090TIP3   OH242214   1.842   1.413   0.224
14090TIP3    H142215   1.914   1.386   0.281
14090TIP3    H242216   1.843   1.508   0.228
14091TIP3   OH242217   1.577   1.103   0.433
14091TIP3    H142218   1.511   1.149   0.485
14091TIP3    H242219   1.596   1.162   0.360
14092TIP3   OH242220   2.739   0.724   1.302
14092TIP3    H142221   2.811   0.773   1.342
14092TIP3    H242222   2.725   0.649   1.359
14093TIP3   OH242223   2.627   0.476   0.495
14093TIP3    H142224   2.605   0.492   0.404
14093TIP3    H242225   2.666   0.558   0.526
14094TIP3   OH242226   2.113   1.599   0.165
14094TIP3    H142227   2.028   1.624   0.200
14094TIP3    H242228   2.136   1.669   0.104
14095TIP3   OH242229   2.277   0.676   0.587
14095TIP3    H142230   2.340   0.744   0.561
14095TIP3    H242231   2.299   0.657   0.678
14096TIP3   OH242232   2.571   0.941   1.357
14096TIP3    H142233   2.621   0.977   1.430
14096TIP3    H242234   2.617   0.861   1.333
14097TIP3   OH242235   2.440   0.376   0.674
14097TIP3    H142236   2.419   0.452   0.728
14097TIP3    H242237   2.509   0.406   0.615
14098TIP3   OH242238   1.862   1.685   0.236
14098TIP3    H142239   1.840   1.757   0.176
14098TIP3    H242240   1.849   1.723   0.323
14099TIP3   OH242241   1.956   0.397   0.465
14099TIP3    H142242   1.941   0.482   0.507
14099TIP3    H242243   2.048   0.379   0.481
14100TIP3   OH242244   3.154   0.813   1.315
14100TIP3    H142245   3.068   0.854   1.308
14100TIP3    H242246   3.198   0.833   1.233
14101TIP3   OH242247   2.836   1.077   0.733
14101TIP3    H142248   2.760   1.019   0.736
14101TIP3    H242249   2.908   1.024   0.767
14102TIP3   OH242250   1.596   1.284   0.218
14102TIP3    H142251   1.667   1.347   0.227
14102TIP3    H242252   1.628   1.220   0.155
14103TIP3   OH242253   1.504   0.575   0.348
14103TIP3    H142254   1.518   0.669   0.354
14103TIP3    H242255   1.457   0.563   0.265
14104TIP3   OH242256   2.757   1.988   0.586
14104TIP3    H142257   2.707   2.033   0.518
14104TIP3    H242258   2.848   1.992   0.555
14105TIP3   OH242259   1.881   0.302   1.219
14105TIP3    H142260   1.914   0.288   1.130
14105TIP3    H242261   1.886   0.215   1.260
14106TIP3   OH242262   1.426   1.545   0.609
14106TIP3    H142263   1.379   1.580   0.685
14106TIP3    H242264   1.384   1.588   0.534
14107TIP3   OH242265   1.590   2.024   1.610
14107TIP3    H142266   1.670   2.028   1.663
14107TIP3    H242267   1.549   1.942   1.635
14108TIP3   OH242268   4.884   5.607   6.786
14108TIP3    H142269   4.837   5.535   6.827
14108TIP3    H242270   4.958   5.566   6.742
14109TIP3   OH242271   2.659   2.028   1.471
14109TIP3    H142272   2.681   1.935   1.478
14109TIP3    H242273   2.732   2.066   1.423
14110TIP3   OH242274   5.329   5.640   6.703
14110TIP3    H142275   5.364   5.576   6.764
14110TIP3    H242276   5.386   5.634   6.626
14111TIP3   OH242277   1.724   1.093   0.072
14111TIP3    H142278   1.776   1.069   0.149
14111TIP3    H242279   1.788   1.105   0.002
14112TIP3   OH242280   2.237   1.525   1.666
14112TIP3    H142281   2.201   1.559   1.584
14112TIP3    H242282   2.238   1.430   1.654
14113TIP3   OH242283   5.127   5.321   6.841
14113TIP3    H142284   5.103   5.332   6.933
14113TIP3    H242285   5.111   5.228   6.823
14114TIP3   OH242286   2.759   1.568   1.253
14114TIP3    H142287   2.824   1.593   1.187
14114TIP3    H242288   2.675   1.592   1.214
14115TIP3   OH242289   1.849   1.121   1.841
14115TIP3    H142290   1.931   1.081   1.814
14115TIP3    H242291   1.873   1.178   1.914
14116TIP3   OH242292   1.898   1.031   0.281
14116TIP3    H142293   1.879   0.998   0.369
14116TIP3    H242294   1.947   0.960   0.239
14117TIP3   OH242295   2.178   1.071   1.486
14117TIP3    H142296   2.099   1.125   1.489
14117TIP3    H242297   2.229   1.108   1.414
14118TIP3   OH242298   2.039   0.847   0.128
14118TIP3    H142299   2.009   0.851   0.037
14118TIP3    H242300   2.134   0.852   0.122
14119TIP3   OH242301   5.669   5.142   6.737
14119TIP3    H142302   5.653   5.101   6.652
14119TIP3    H242303   5.644   5.233   6.725
14120TIP3   OH242304   2.323   0.889   1.635
14120TIP3    H142305   2.330   0.808   1.585
14120TIP3    H242306   2.278   0.950   1.576
14121TIP3   OH242307   2.317   0.676   1.444
14121TIP3    H142308   2.346   0.708   1.358
14121TIP3    H242309   2.226   0.650   1.429
14122TIP3   OH242310   2.330   1.204   1.304
14122TIP3    H142311   2.410   1.257   1.305
14122TIP3    H242312   2.266   1.259   1.257
14123TIP3   OH242313   2.897   1.430   1.439
14123TIP3    H142314   2.848   1.472   1.368
14123TIP3    H242315   2.988   1.453   1.423
14124TIP3   OH242316   2.090   0.996   1.790
14124TIP3    H142317   2.080   0.919   1.846
14124TIP3    H242318   2.174   0.983   1.747
14125TIP3   OH242319   2.440   0.443   1.540
14125TIP3    H142320   2.397   0.523   1.510
14125TIP3    H242321   2.375   0.374   1.527
14126TIP3   OH242322   2.573   0.939   1.761
14126TIP3    H142323   2.561   0.947   1.855
14126TIP3    H242324   2.488   0.912   1.728
14127TIP3   OH242325   2.791   0.754   1.631
14127TIP3    H142326   2.704   0.772   1.667
14127TIP3    H242327   2.847   0.823   1.665
14128TIP3   OH242328   2.081   0.757   1.922
14128TIP3    H142329   2.099   0.688   1.859
14128TIP3    H242330   2.086   0.714   2.007
14129TIP3   OH242331   2.550   0.392   1.790
14129TIP3    H142332   2.626   0.338   1.768
14129TIP3    H242333   2.508   0.411   1.706
14130TIP3   OH242334   1.855   1.897   0.055
14130TIP3    H142335   1.945   1.877   0.031
14130TIP3    H242336   1.819   1.941  -0.022
14131TIP3   OH242337   1.323   1.273   0.249
14131TIP3    H142338   1.417   1.289   0.238
14131TIP3    H242339   1.308   1.190   0.203
14132TIP3   OH242340   1.224   1.861   0.695
14132TIP3    H142341   1.160   1.807   0.649
14132TIP3    H242342   1.269   1.800   0.754
14133TIP3   OH242343   1.366   1.694   0.865
14133TIP3    H142344   1.356   1.625   0.930
14133TIP3    H242345   1.415   1.763   0.909
14134TIP3   OH242346   3.027   2.027   0.547
14134TIP3    H142347   3.042   2.038   0.641
14134TIP3    H242348   3.091   2.086   0.506
14135TIP3   OH242349   3.139   2.126   0.950
14135TIP3    H142350   3.104   2.042   0.979
14135TIP3    H242351   3.171   2.168   1.030
14136TIP3   OH242352   2.985   1.350   0.124
14136TIP3    H142353   3.048   1.415   0.094
14136TIP3    H242354   3.028   1.306   0.197
14137TIP3   OH242355   3.102   1.192   0.316
14137TIP3    H142356   3.036   1.152   0.372
14137TIP3    H242357   3.165   1.231   0.376
14138TIP3   OH242358   3.086   1.578   0.687
14138TIP3    H142359   3.157   1.518   0.665
14138TIP3    H242360   3.116   1.663   0.656
14139TIP3   OH242361   3.081   1.875   1.041
14139TIP3    H142362   3.000   1.908   1.080
14139TIP3    H242363   3.059   1.858   0.950
14140TIP3   OH242364   5.874   5.126   6.919
14140TIP3    H142365   5.806   5.122   6.852
14140TIP3    H242366   5.853   5.205   6.970
14141TIP3   OH242367   5.728   4.779   6.859
14141TIP3    H142368   5.682   4.817   6.784
14141TIP3    H242369   5.716   4.685   6.850
14142TIP3   OH242370   2.914   1.058   0.466
14142TIP3    H142371   2.923   0.964   0.458
14142TIP3    H242372   2.894   1.072   0.559
14143TIP3   OH242373   1.545   1.127   1.244
14143TIP3    H142374   1.535   1.094   1.155
14143TIP3    H242375   1.639   1.123   1.261
14144TIP3   OH242376   3.168   1.436   1.386
14144TIP3    H142377   3.250   1.386   1.388
14144TIP3    H242378   3.124   1.408   1.306
14145TIP3   OH242379   3.406   1.302   1.396
14145TIP3    H142380   3.385   1.297   1.489
14145TIP3    H242381   3.491   1.260   1.388
14146TIP3   OH242382   5.686   4.510   6.841
14146TIP3    H142383   5.750   4.479   6.905
14146TIP3    H242384   5.604   4.467   6.866
14147TIP3   OH242385   2.921   0.784   0.359
14147TIP3    H142386   2.967   0.701   0.371
14147TIP3    H242387   2.963   0.824   0.282
14148TIP3   OH242388   3.038   0.906   0.812
14148TIP3    H142389   3.124   0.924   0.774
14148TIP3    H242390   3.048   0.925   0.905
14149TIP3   OH242391   3.045   1.006   1.066
14149TIP3    H142392   2.951   1.010   1.085
14149TIP3    H242393   3.064   1.087   1.019
14150TIP3   OH242394   3.033   0.532   0.406
14150TIP3    H142395   3.077   0.517   0.490
14150TIP3    H242396   2.969   0.461   0.399
14151TIP3   OH242397   1.732   0.525   1.238
14151TIP3    H142398   1.780   0.443   1.238
14151TIP3    H242399   1.797   0.591   1.216
14152TIP3   OH242400   1.523   0.792   1.300
14152TIP3    H142401   1.574   0.781   1.220
14152TIP3    H242402   1.549   0.878   1.333
14153TIP3   OH242403   3.441   0.779   1.417
14153TIP3    H142404   3.402   0.858   1.380
14153TIP3    H242405   3.411   0.708   1.360
14154TIP3   OH242406   3.085   0.448   0.052
14154TIP3    H142407   3.129   0.389  -0.009
14154TIP3    H242408   3.139   0.528   0.050
14155TIP3   OH242409   1.503   0.285   0.788
14155TIP3    H142410   1.425   0.283   0.843
14155TIP3    H242411   1.486   0.355   0.725
14156TIP3   OH242412   2.649   1.909   0.267
14156TIP3    H142413   2.721   1.907   0.204
14156TIP3    H242414   2.651   1.998   0.303
14157TIP3   OH242415   1.726   0.391   1.617
14157TIP3    H142416   1.667   0.387   1.692
14157TIP3    H242417   1.671   0.426   1.546
14158TIP3   OH242418   1.762   1.741   1.700
14158TIP3    H142419   1.666   1.741   1.700
14158TIP3    H242420   1.786   1.813   1.758
14159TIP3   OH242421   1.924   1.812   1.214
14159TIP3    H142422   1.872   1.886   1.182
14159TIP3    H242423   2.011   1.825   1.176
14160TIP3   OH242424   2.372   2.024   1.359
14160TIP3    H142425   2.348   2.068   1.440
14160TIP3    H242426   2.431   2.085   1.315
14161TIP3   OH242427   2.537   2.190   1.221
14161TIP3    H142428   2.567   2.138   1.146
14161TIP3    H242429   2.617   2.227   1.258
14162TIP3   OH242430   3.343   0.579   1.258
14162TIP3    H142431   3.253   0.599   1.230
14162TIP3    H242432   3.335   0.499   1.309
14163TIP3   OH242433   1.622   2.064   1.285
14163TIP3    H142434   1.537   2.102   1.262
14163TIP3    H242435   1.641   2.100   1.372
14164TIP3   OH242436   1.836   2.050   1.115
14164TIP3    H142437   1.756   2.062   1.166
14164TIP3    H242438   1.814   2.080   1.027
14165TIP3   OH242439   2.260   1.996   0.872
14165TIP3    H142440   2.189   2.025   0.816
14165TIP3    H242441   2.324   2.068   0.869
14166TIP3   OH242442   2.538   2.036   0.990
14166TIP3    H142443   2.504   1.947   0.995
14166TIP3    H242444   2.607   2.032   0.923
14167TIP3   OH242445   2.744   2.112   0.827
14167TIP3    H142446   2.729   2.206   0.822
14167TIP3    H242447   2.739   2.082   0.736
14168TIP3   OH242448   1.538   1.872   1.013
14168TIP3    H142449   1.562   1.846   1.101
14168TIP3    H242450   1.607   1.836   0.957
14169TIP3   OH242451   1.730   1.748   0.870
14169TIP3    H142452   1.742   1.664   0.914
14169TIP3    H242453   1.817   1.787   0.868
14170TIP3   OH242454   1.992   1.824   0.884
14170TIP3    H142455   2.019   1.732   0.874
14170TIP3    H242456   2.040   1.854   0.961
14171TIP3   OH242457   2.578   0.512   0.982
14171TIP3    H142458   2.533   0.448   1.038
14171TIP3    H242459   2.640   0.459   0.932
14172TIP3   OH242460   3.077   0.394   0.861
14172TIP3    H142461   3.118   0.445   0.791
14172TIP3    H242462   2.988   0.429   0.868
14173TIP3   OH242463   3.192   0.475   0.629
14173TIP3    H142464   3.265   0.421   0.598
14173TIP3    H242465   3.220   0.565   0.610
14174TIP3   OH242466   1.592   0.134   0.574
14174TIP3    H142467   1.653   0.181   0.518
14174TIP3    H242468   1.584   0.190   0.652
14175TIP3   OH242469   2.323   0.229   0.888
14175TIP3    H142470   2.351   0.280   0.811
14175TIP3    H242471   2.232   0.253   0.900
14176TIP3   OH242472   2.782   0.383   0.852
14176TIP3    H142473   2.796   0.353   0.763
14176TIP3    H242474   2.790   0.304   0.906
14177TIP3   OH242475   2.847   0.324   0.414
14177TIP3    H142476   2.768   0.372   0.436
14177TIP3    H242477   2.835   0.237   0.453
14178TIP3   OH242478   1.312   1.671   0.394
14178TIP3    H142479   1.229   1.636   0.363
14178TIP3    H242480   1.315   1.761   0.361
14179TIP3   OH242481   1.759   0.224   0.371
14179TIP3    H142482   1.808   0.162   0.318
14179TIP3    H242483   1.825   0.284   0.406
14180TIP3   OH242484   2.231   0.423   0.491
14180TIP3    H142485   2.290   0.374   0.548
14180TIP3    H242486   2.243   0.515   0.518
14181TIP3   OH242487   4.945   5.829   6.932
14181TIP3    H142488   5.027   5.857   6.890
14181TIP3    H242489   4.913   5.759   6.875
14182TIP3   OH242490   2.813   1.951   0.049
14182TIP3    H142491   2.814   1.855   0.043
14182TIP3    H242492   2.763   1.980  -0.028
14183TIP3   OH242493   1.421   1.669   0.044
14183TIP3    H142494   1.422   1.677   0.139
14183TIP3    H242495   1.501   1.622   0.022
14184TIP3   OH242496   4.300   1.417   0.012
14184TIP3    H142497   4.259   1.474   0.077
14184TIP3    H242498   4.233   1.406  -0.056
14185TIP3   OH242499   4.268   1.455   0.388
14185TIP3    H142500   4.273   1.479   0.480
14185TIP3    H242501   4.282   1.360   0.387
14186TIP3   OH242502   3.572   1.401   0.786
14186TIP3    H142503   3.634   1.348   0.835
14186TIP3    H242504   3.624   1.473   0.751
14187TIP3   OH242505   3.641   1.845   0.519
14187TIP3    H142506   3.587   1.823   0.595
14187TIP3    H242507   3.704   1.909   0.552
14188TIP3   OH242508   3.279   0.974   0.251
14188TIP3    H142509   3.239   1.058   0.274
14188TIP3    H242510   3.207   0.923   0.212
14189TIP3   OH242511   3.319   1.272   0.460
14189TIP3    H142512   3.354   1.187   0.486
14189TIP3    H242513   3.388   1.312   0.408
14190TIP3   OH242514   4.143   1.688   0.289
14190TIP3    H142515   4.135   1.598   0.259
14190TIP3    H242516   4.219   1.688   0.347
14191TIP3   OH242517   4.595   1.162   0.439
14191TIP3    H142518   4.571   1.070   0.437
14191TIP3    H242519   4.544   1.202   0.369
14192TIP3   OH242520   3.877   0.822   0.400
14192TIP3    H142521   3.850   0.900   0.350
14192TIP3    H242522   3.827   0.750   0.362
14193TIP3   OH242523   4.592   0.916   0.041
14193TIP3    H142524   4.661   0.899   0.104
14193TIP3    H242525   4.636   0.955  -0.034
14194TIP3   OH242526   3.450   1.052   0.539
14194TIP3    H142527   3.521   1.072   0.601
14194TIP3    H242528   3.490   0.995   0.474
14195TIP3   OH242529   3.977   1.188   0.254
14195TIP3    H142530   4.045   1.147   0.308
14195TIP3    H242531   3.904   1.125   0.256
14196TIP3   OH242532   3.670   0.883   0.888
14196TIP3    H142533   3.680   0.862   0.795
14196TIP3    H242534   3.656   0.799   0.930
14197TIP3   OH242535   6.961   5.649   6.858
14197TIP3    H142536   6.947   5.659   6.763
14197TIP3    H242537   6.931   5.733   6.895
14198TIP3   OH242538   3.943   1.707   0.535
14198TIP3    H142539   3.886   1.721   0.611
14198TIP3    H242540   4.027   1.683   0.574
14199TIP3   OH242541   4.764   0.894   0.250
14199TIP3    H142542   4.705   0.888   0.324
14199TIP3    H242543   4.827   0.962   0.275
14200TIP3   OH242544   3.707   0.883   0.614
14200TIP3    H142545   3.722   0.977   0.629
14200TIP3    H242546   3.756   0.863   0.534
14201TIP3   OH242547   6.005   5.527   6.946
14201TIP3    H142548   5.969   5.541   6.859
14201TIP3    H242549   6.046   5.611   6.969
14202TIP3   OH242550   4.135   0.492   0.501
14202TIP3    H142551   4.169   0.408   0.531
14202TIP3    H242552   4.076   0.520   0.571
14203TIP3   OH242553   7.255   5.879   6.645
14203TIP3    H142554   7.276   5.787   6.636
14203TIP3    H242555   7.167   5.880   6.683
14204TIP3   OH242556   6.956   5.330   6.768
14204TIP3    H142557   6.874   5.375   6.745
14204TIP3    H242558   7.007   5.330   6.688
14205TIP3   OH242559   6.936   5.124   6.503
14205TIP3    H142560   7.005   5.173   6.548
14205TIP3    H242561   6.982   5.057   6.454
14206TIP3   OH242562   7.325   5.400   6.761
14206TIP3    H142563   7.271   5.409   6.840
14206TIP3    H242564   7.408   5.364   6.793
14207TIP3   OH242565   3.763   1.360   0.170
14207TIP3    H142566   3.708   1.304   0.114
14207TIP3    H242567   3.830   1.300   0.205
14208TIP3   OH242568   3.875   1.837   0.310
14208TIP3    H142569   3.810   1.772   0.283
14208TIP3    H242570   3.911   1.802   0.392
14209TIP3   OH242571   3.764   1.258   0.516
14209TIP3    H142572   3.839   1.265   0.456
14209TIP3    H242573   3.751   1.347   0.549
14210TIP3   OH242574   7.155   5.279   6.583
14210TIP3    H142575   7.218   5.330   6.634
14210TIP3    H242576   7.185   5.286   6.493
14211TIP3   OH242577   3.750   1.597   0.902
14211TIP3    H142578   3.698   1.677   0.911
14211TIP3    H242579   3.718   1.540   0.972
14212TIP3   OH242580   6.999   5.912   6.736
14212TIP3    H142581   7.017   5.962   6.815
14212TIP3    H242582   6.904   5.922   6.722
14213TIP3   OH242583   7.670   4.511   6.655
14213TIP3    H142584   7.593   4.531   6.709
14213TIP3    H242585   7.683   4.589   6.601
14214TIP3   OH242586   3.587   1.217   0.016
14214TIP3    H142587   3.514   1.272  -0.011
14214TIP3    H242588   3.548   1.131   0.032
14215TIP3   OH242589   7.498   5.869   6.191
14215TIP3    H142590   7.482   5.962   6.172
14215TIP3    H242591   7.581   5.850   6.147
14216TIP3   OH242592   3.500   1.671   1.000
14216TIP3    H142593   3.414   1.640   0.972
14216TIP3    H242594   3.539   1.596   1.045
14217TIP3   OH242595   3.201   1.807   0.599
14217TIP3    H142596   3.275   1.868   0.604
14217TIP3    H242597   3.124   1.864   0.588
14218TIP3   OH242598   6.802   6.176   6.680
14218TIP3    H142599   6.759   6.147   6.599
14218TIP3    H242600   6.766   6.263   6.696
14219TIP3   OH242601   3.283   2.050   0.154
14219TIP3    H142602   3.322   2.025   0.238
14219TIP3    H242603   3.272   1.968   0.107
14220TIP3   OH242604   6.986   6.102   6.298
14220TIP3    H142605   7.039   6.031   6.261
14220TIP3    H242606   7.028   6.121   6.382
14221TIP3   OH242607   7.051   6.141   6.564
14221TIP3    H142608   6.971   6.154   6.616
14221TIP3    H242609   7.093   6.064   6.603
14222TIP3   OH242610   3.957   0.557   0.710
14222TIP3    H142611   3.863   0.544   0.694
14222TIP3    H242612   3.972   0.650   0.694
14223TIP3   OH242613   4.445   0.763   0.884
14223TIP3    H142614   4.517   0.826   0.887
14223TIP3    H242615   4.378   0.801   0.941
14224TIP3   OH242616   7.247   5.272   6.329
14224TIP3    H142617   7.198   5.271   6.247
14224TIP3    H242618   7.329   5.317   6.307
14225TIP3   OH242619   6.947   4.684   6.648
14225TIP3    H142620   6.908   4.693   6.735
14225TIP3    H242621   6.909   4.603   6.613
14226TIP3   OH242622   3.935   1.100   0.746
14226TIP3    H142623   3.886   1.137   0.819
14226TIP3    H242624   3.923   1.163   0.675
14227TIP3   OH242625   3.760   1.027   0.262
14227TIP3    H142626   3.674   1.005   0.297
14227TIP3    H242627   3.760   0.991   0.173
14228TIP3   OH242628   7.037   5.059   6.811
14228TIP3    H142629   7.007   5.148   6.795
14228TIP3    H242630   7.127   5.057   6.777
14229TIP3   OH242631   4.423   1.014   0.234
14229TIP3    H142632   4.357   1.055   0.180
14229TIP3    H242633   4.483   0.971   0.172
14230TIP3   OH242634   3.769   1.233   0.928
14230TIP3    H142635   3.831   1.287   0.978
14230TIP3    H242636   3.712   1.195   0.994
14231TIP3   OH242637   6.613   4.668   6.630
14231TIP3    H142638   6.600   4.668   6.725
14231TIP3    H242639   6.535   4.710   6.595
14232TIP3   OH242640   3.285   0.706   0.525
14232TIP3    H142641   3.361   0.729   0.579
14232TIP3    H242642   3.322   0.676   0.442
14233TIP3   OH242643   3.237   0.684   0.059
14233TIP3    H142644   3.281   0.719  -0.019
14233TIP3    H242645   3.172   0.750   0.082
14234TIP3   OH242646   4.137   0.909   0.315
14234TIP3    H142647   4.064   0.861   0.354
14234TIP3    H242648   4.214   0.856   0.335
14235TIP3   OH242649   3.532   0.895   0.332
14235TIP3    H142650   3.444   0.909   0.296
14235TIP3    H242651   3.557   0.808   0.302
14236TIP3   OH242652   6.608   4.917   6.960
14236TIP3    H142653   6.703   4.931   6.951
14236TIP3    H242654   6.572   4.940   6.874
14237TIP3   OH242655   4.598   0.876   0.465
14237TIP3    H142656   4.533   0.903   0.531
14237TIP3    H242657   4.555   0.807   0.415
14238TIP3   OH242658   6.500   4.958   6.716
14238TIP3    H142659   6.440   4.906   6.663
14238TIP3    H242660   6.558   5.000   6.652
14239TIP3   OH242661   4.265   1.166   0.417
14239TIP3    H142662   4.308   1.130   0.340
14239TIP3    H242663   4.227   1.091   0.461
14240TIP3   OH242664   3.690   0.656   0.283
14240TIP3    H142665   3.656   0.584   0.336
14240TIP3    H242666   3.712   0.616   0.199
14241TIP3   OH242667   4.163   1.019   0.615
14241TIP3    H142668   4.112   1.073   0.674
14241TIP3    H242669   4.252   1.020   0.651
14242TIP3   OH242670   6.721   5.469   6.718
14242TIP3    H142671   6.649   5.409   6.698
14242TIP3    H242672   6.695   5.511   6.800
14243TIP3   OH242673   7.199   4.787   6.639
14243TIP3    H142674   7.105   4.771   6.640
14243TIP3    H242675   7.208   4.882   6.648
14244TIP3   OH242676   7.286   5.047   6.692
14244TIP3    H142677   7.380   5.042   6.708
14244TIP3    H242678   7.275   5.126   6.639
14245TIP3   OH242679   3.558   1.362   0.360
14245TIP3    H142680   3.616   1.375   0.286
14245TIP3    H242681   3.609   1.310   0.423
14246TIP3   OH242682   6.884   5.636   6.581
14246TIP3    H142683   6.839   5.721   6.582
14246TIP3    H242684   6.821   5.575   6.619
14247TIP3   OH242685   3.338   1.376   1.136
14247TIP3    H142686   3.366   1.360   1.226
14247TIP3    H242687   3.351   1.292   1.092
14248TIP3   OH242688   7.684   5.135   6.536
14248TIP3    H142689   7.625   5.090   6.476
14248TIP3    H242690   7.689   5.225   6.502
14249TIP3   OH242691   7.334   5.974   6.403
14249TIP3    H142692   7.311   5.938   6.489
14249TIP3    H242693   7.400   5.914   6.369
14250TIP3   OH242694   3.762   1.856   0.033
14250TIP3    H142695   3.778   1.946   0.005
14250TIP3    H242696   3.667   1.846   0.029
14251TIP3   OH242697   6.117   5.113   6.786
14251TIP3    H142698   6.155   5.199   6.803
14251TIP3    H242699   6.034   5.115   6.834
14252TIP3   OH242700   3.803   1.581   0.003
14252TIP3    H142701   3.800   1.673   0.032
14252TIP3    H242702   3.790   1.531   0.084
14253TIP3   OH242703   6.503   6.117   6.836
14253TIP3    H142704   6.429   6.072   6.876
14253TIP3    H242705   6.500   6.206   6.872
14254TIP3   OH242706   7.182   5.659   6.361
14254TIP3    H142707   7.207   5.643   6.452
14254TIP3    H242708   7.088   5.639   6.359
14255TIP3   OH242709   7.463   6.136   6.139
14255TIP3    H142710   7.532   6.194   6.107
14255TIP3    H242711   7.408   6.192   6.194
14256TIP3   OH242712   3.720   0.891   1.192
14256TIP3    H142713   3.662   0.950   1.144
14256TIP3    H242714   3.769   0.948   1.252
14257TIP3   OH242715   7.330   5.618   6.603
14257TIP3    H142716   7.326   5.534   6.649
14257TIP3    H242717   7.420   5.624   6.572
14258TIP3   OH242718   3.513   2.140   0.786
14258TIP3    H142719   3.533   2.084   0.861
14258TIP3    H242720   3.467   2.215   0.823
14259TIP3   OH242721   6.534   5.656   6.378
14259TIP3    H142722   6.542   5.565   6.348
14259TIP3    H242723   6.508   5.648   6.470
14260TIP3   OH242724   6.469   5.673   6.648
14260TIP3    H142725   6.543   5.657   6.707
14260TIP3    H242726   6.460   5.768   6.644
14261TIP3   OH242727   6.209   5.366   6.856
14261TIP3    H142728   6.143   5.410   6.909
14261TIP3    H242729   6.225   5.426   6.783
14262TIP3   OH242730   7.254   4.726   6.900
14262TIP3    H142731   7.232   4.745   6.809
14262TIP3    H242732   7.304   4.801   6.930
14263TIP3   OH242733   6.743   5.870   6.601
14263TIP3    H142734   6.650   5.885   6.618
14263TIP3    H242735   6.764   5.930   6.529
14264TIP3   OH242736   4.049   0.928   0.053
14264TIP3    H142737   4.108   0.972  -0.007
14264TIP3    H242738   4.092   0.933   0.138
14265TIP3   OH242739   4.242   0.612   0.136
14265TIP3    H142740   4.268   0.653   0.219
14265TIP3    H242741   4.304   0.649   0.072
14266TIP3   OH242742   6.479   5.944   6.629
14266TIP3    H142743   6.451   5.999   6.556
14266TIP3    H242744   6.488   6.003   6.703
14267TIP3   OH242745   6.580   4.646   6.912
14267TIP3    H142746   6.569   4.737   6.937
14267TIP3    H242747   6.674   4.631   6.915
14268TIP3   OH242748   4.742   1.304   0.192
14268TIP3    H142749   4.647   1.290   0.195
14268TIP3    H242750   4.758   1.377   0.252
14269TIP3   OH242751   6.221   5.546   6.643
14269TIP3    H142752   6.292   5.609   6.653
14269TIP3    H242753   6.253   5.484   6.577
14270TIP3   OH242754   6.136   4.836   6.777
14270TIP3    H142755   6.149   4.931   6.787
14270TIP3    H242756   6.076   4.828   6.703
14271TIP3   OH242757   3.688   0.538   0.676
14271TIP3    H142758   3.658   0.512   0.589
14271TIP3    H242759   3.673   0.461   0.731
14272TIP3   OH242760   3.234   1.792   0.052
14272TIP3    H142761   3.179   1.782   0.130
14272TIP3    H242762   3.176   1.834  -0.012
14273TIP3   OH242763   6.678   5.866   6.276
14273TIP3    H142764   6.634   5.788   6.311
14273TIP3    H242765   6.755   5.832   6.230
14274TIP3   OH242766   7.142   5.910   6.184
14274TIP3    H142767   7.212   5.906   6.250
14274TIP3    H242768   7.189   5.907   6.101
14275TIP3   OH242769   6.348   5.357   6.493
14275TIP3    H142770   6.398   5.329   6.570
14275TIP3    H242771   6.413   5.369   6.424
14276TIP3   OH242772   6.913   5.576   6.313
14276TIP3    H142773   6.890   5.591   6.404
14276TIP3    H242774   6.901   5.482   6.300
14277TIP3   OH242775   6.521   5.284   6.699
14277TIP3    H142776   6.493   5.249   6.783
14277TIP3    H242777   6.567   5.212   6.657
14278TIP3   OH242778   3.953   1.402   1.039
14278TIP3    H142779   3.936   1.490   1.071
14278TIP3    H242780   3.974   1.415   0.946
14279TIP3   OH242781   6.663   5.101   6.549
14279TIP3    H142782   6.636   5.108   6.458
14279TIP3    H242783   6.759   5.104   6.545
14280TIP3   OH242784   7.465   5.401   6.209
14280TIP3    H142785   7.448   5.352   6.129
14280TIP3    H242786   7.428   5.488   6.193
14281TIP3   OH242787   2.007   0.230   3.191
14281TIP3    H142788   2.094   0.199   3.166
14281TIP3    H242789   1.988   0.300   3.127
14282TIP3   OH242790   4.192   0.895   0.900
14282TIP3    H142791   4.209   0.986   0.876
14282TIP3    H242792   4.097   0.890   0.910
14283TIP3   OH242793   4.191   0.639   1.044
14283TIP3    H142794   4.187   0.722   0.998
14283TIP3    H242795   4.134   0.581   0.993
14284TIP3   OH242796   3.878   1.044   1.367
14284TIP3    H142797   3.913   0.962   1.402
14284TIP3    H242798   3.905   1.111   1.430
14285TIP3   OH242799   4.371   0.638   1.288
14285TIP3    H142800   4.461   0.612   1.266
14285TIP3    H242801   4.338   0.680   1.208
14286TIP3   OH242802   6.472   6.153   6.452
14286TIP3    H142803   6.567   6.144   6.440
14286TIP3    H242804   6.443   6.201   6.374
14287TIP3   OH242805   5.948   5.535   6.664
14287TIP3    H142806   6.043   5.547   6.657
14287TIP3    H242807   5.932   5.449   6.624
14288TIP3   OH242808   3.007   2.125   0.121
14288TIP3    H142809   2.945   2.061   0.087
14288TIP3    H242810   3.076   2.073   0.162
14289TIP3   OH242811   3.039   1.908   0.296
14289TIP3    H142812   3.107   1.843   0.313
14289TIP3    H242813   3.023   1.948   0.382
14290TIP3   OH242814   7.603   5.594   6.555
14290TIP3    H142815   7.657   5.659   6.511
14290TIP3    H242816   7.653   5.572   6.634
14291TIP3   OH242817   7.732   5.461   6.774
14291TIP3    H142818   7.670   5.390   6.786
14291TIP3    H242819   7.710   5.525   6.841
14292TIP3   OH242820   7.656   5.371   6.404
14292TIP3    H142821   7.587   5.373   6.338
14292TIP3    H242822   7.639   5.448   6.459
14293TIP3   OH242823   7.515   5.034   6.348
14293TIP3    H142824   7.481   5.068   6.265
14293TIP3    H242825   7.506   4.939   6.340
14294TIP3   OH242826   7.547   5.279   6.860
14294TIP3    H142827   7.559   5.186   6.844
14294TIP3    H242828   7.570   5.291   6.953
14295TIP3   OH242829   3.317   1.433   0.676
14295TIP3    H142830   3.306   1.367   0.608
14295TIP3    H242831   3.406   1.421   0.708
14296TIP3   OH242832   7.484   4.764   6.325
14296TIP3    H142833   7.549   4.734   6.388
14296TIP3    H242834   7.403   4.719   6.349
14297TIP3   OH242835   7.566   5.022   6.761
14297TIP3    H142836   7.612   4.940   6.777
14297TIP3    H242837   7.612   5.060   6.686
14298TIP3   OH242838   3.612   1.131   1.431
14298TIP3    H142839   3.690   1.089   1.396
14298TIP3    H242840   3.572   1.064   1.486
14299TIP3   OH242841   7.675   4.782   6.838
14299TIP3    H142842   7.723   4.771   6.920
14299TIP3    H242843   7.610   4.711   6.839
14300TIP3   OH242844   3.495   0.732   0.695
14300TIP3    H142845   3.555   0.658   0.704
14300TIP3    H242846   3.549   0.803   0.661
14301TIP3   OH242847   3.287   0.985   0.748
14301TIP3    H142848   3.331   0.988   0.663
14301TIP3    H242849   3.319   1.063   0.794
14302TIP3   OH242850   7.717   4.715   6.477
14302TIP3    H142851   7.761   4.652   6.420
14302TIP3    H242852   7.774   4.792   6.476
14303TIP3   OH242853   3.302   0.548   0.285
14303TIP3    H142854   3.215   0.532   0.320
14303TIP3    H242855   3.288   0.600   0.207
14304TIP3   OH242856   3.452   0.535   1.011
14304TIP3    H142857   3.429   0.551   1.103
14304TIP3    H242858   3.388   0.585   0.961
14305TIP3   OH242859   3.383   2.009   0.581
14305TIP3    H142860   3.424   2.056   0.653
14305TIP3    H242861   3.323   2.072   0.542
14306TIP3   OH242862   3.505   1.926   0.291
14306TIP3    H142863   3.520   1.893   0.379
14306TIP3    H242864   3.585   1.976   0.270
14307TIP3   OH242865   3.746   2.073   0.300
14307TIP3    H142866   3.796   1.991   0.299
14307TIP3    H242867   3.811   2.141   0.319
14308TIP3   OH242868   4.333   0.716   0.375
14308TIP3    H142869   4.315   0.702   0.468
14308TIP3    H242870   4.417   0.672   0.360
14309TIP3   OH242871   4.889   0.640   0.331
14309TIP3    H142872   4.933   0.692   0.264
14309TIP3    H242873   4.804   0.683   0.343
14310TIP3   OH242874   5.016   0.740   0.114
14310TIP3    H142875   5.080   0.678   0.080
14310TIP3    H242876   5.054   0.826   0.096
14311TIP3   OH242877   3.604   0.444   0.435
14311TIP3    H142878   3.515   0.411   0.448
14311TIP3    H242879   3.659   0.366   0.434
14312TIP3   OH242880   3.440   0.351   0.124
14312TIP3    H142881   3.461   0.398   0.043
14312TIP3    H242882   3.400   0.417   0.181
14313TIP3   OH242883   4.023   0.495   0.258
14313TIP3    H142884   4.086   0.537   0.200
14313TIP3    H242885   4.060   0.506   0.346
14314TIP3   OH242886   4.586   0.623   0.312
14314TIP3    H142887   4.621   0.591   0.229
14314TIP3    H242888   4.589   0.547   0.370
14315TIP3   OH242889   7.482   4.581   6.844
14315TIP3    H142890   7.399   4.626   6.858
14315TIP3    H242891   7.468   4.494   6.882
14316TIP3   OH242892   5.935   5.937   6.803
14316TIP3    H142893   5.850   5.901   6.778
14316TIP3    H242894   5.936   6.025   6.766
14317TIP3   OH242895   6.367   4.486   6.821
14317TIP3    H142896   6.412   4.427   6.760
14317TIP3    H242897   6.437   4.542   6.856
14318TIP3   OH242898   6.855   4.678   6.909
14318TIP3    H142899   6.925   4.634   6.958
14318TIP3    H242900   6.859   4.769   6.938
14319TIP3   OH242901   6.740   6.088   6.417
14319TIP3    H142902   6.822   6.113   6.375
14319TIP3    H242903   6.705   6.018   6.361
14320TIP3   OH242904   7.433   6.225   6.490
14320TIP3    H142905   7.403   6.135   6.475
14320TIP3    H242906   7.396   6.275   6.417
14321TIP3   OH242907   3.708   0.626   1.260
14321TIP3    H142908   3.738   0.606   1.349
14321TIP3    H242909   3.700   0.721   1.259
14322TIP3   OH242910   4.207   0.854   1.373
14322TIP3    H142911   4.247   0.766   1.376
14322TIP3    H242912   4.114   0.838   1.386
14323TIP3   OH242913   6.046   5.927   6.465
14323TIP3    H142914   6.044   5.936   6.560
14323TIP3    H242915   6.128   5.880   6.447
14324TIP3   OH242916   7.907   5.242   6.701
14324TIP3    H142917   7.867   5.327   6.722
14324TIP3    H242918   7.842   5.199   6.646
14325TIP3   OH242919   7.760   5.765   6.400
14325TIP3    H142920   7.723   5.794   6.316
14325TIP3    H242921   7.786   5.846   6.443
14326TIP3   OH242922   0.217   4.927   6.204
14326TIP3    H142923   0.160   4.854   6.178
14326TIP3    H242924   0.274   4.941   6.129
14327TIP3   OH242925   8.399   4.928   6.104
14327TIP3    H142926   8.397   4.932   6.199
14327TIP3    H242927   8.322   4.978   6.076
14328TIP3   OH242928   7.975   4.960   6.950
14328TIP3    H142929   8.033   5.035   6.935
14328TIP3    H242930   7.977   4.912   6.867
14329TIP3   OH242931   7.877   4.944   6.482
14329TIP3    H142932   7.928   4.979   6.409
14329TIP3    H242933   7.815   5.014   6.504
14330TIP3   OH242934   8.138   5.149   6.836
14330TIP3    H142935   8.072   5.182   6.775
14330TIP3    H242936   8.194   5.093   6.784
14331TIP3   OH242937   3.580   0.398   1.550
14331TIP3    H142938   3.588   0.382   1.644
14331TIP3    H242939   3.488   0.421   1.538
14332TIP3   OH242940   8.304   5.179   6.236
14332TIP3    H142941   8.226   5.153   6.187
14332TIP3    H242942   8.360   5.223   6.172
14333TIP3   OH242943   8.290   4.949   6.712
14333TIP3    H142944   8.273   4.872   6.767
14333TIP3    H242945   8.336   4.914   6.635
14334TIP3   OH242946   7.848   5.361   6.206
14334TIP3    H142947   7.903   5.436   6.229
14334TIP3    H242948   7.787   5.353   6.280
14335TIP3   OH242949   8.327   5.909   5.842
14335TIP3    H142950   8.317   5.818   5.814
14335TIP3    H242951   8.390   5.905   5.914
14336TIP3   OH242952   7.951   5.601   6.279
14336TIP3    H142953   7.893   5.646   6.340
14336TIP3    H242954   8.000   5.670   6.236
14337TIP3   OH242955   8.370   4.927   6.381
14337TIP3    H142956   8.349   5.020   6.377
14337TIP3    H242957   8.459   4.924   6.417
14338TIP3   OH242958   8.006   5.840   6.125
14338TIP3    H142959   8.060   5.919   6.127
14338TIP3    H242960   8.056   5.778   6.072
14339TIP3   OH242961   7.937   5.097   6.257
14339TIP3    H142962   7.926   5.191   6.243
14339TIP3    H242963   7.898   5.056   6.179
14340TIP3   OH242964   8.155   5.654   6.001
14340TIP3    H142965   8.203   5.603   6.067
14340TIP3    H242966   8.207   5.646   5.921
14341TIP3   OH242967   8.305   5.509   6.177
14341TIP3    H142968   8.286   5.467   6.261
14341TIP3    H242969   8.361   5.447   6.131
14342TIP3   OH242970   8.445   5.319   6.035
14342TIP3    H142971   8.408   5.335   5.948
14342TIP3    H242972   8.538   5.302   6.019
14343TIP3   OH242973   7.742   5.778   6.093
14343TIP3    H142974   7.831   5.811   6.107
14343TIP3    H242975   7.754   5.684   6.077
14344TIP3   OH242976   7.930   4.810   6.715
14344TIP3    H142977   7.840   4.793   6.743
14344TIP3    H242978   7.921   4.865   6.638
14345TIP3   OH242979   8.246   4.714   6.854
14345TIP3    H142980   8.157   4.688   6.876
14345TIP3    H242981   8.299   4.636   6.868
14346TIP3   OH242982   8.059   4.621   6.544
14346TIP3    H142983   8.088   4.671   6.468
14346TIP3    H242984   8.028   4.688   6.606
14347TIP3   OH242985   8.165   4.750   6.310
14347TIP3    H142986   8.210   4.687   6.253
14347TIP3    H242987   8.234   4.808   6.341
14348TIP3   OH242988   0.130   4.952   6.465
14348TIP3    H142989   0.173   4.939   6.380
14348TIP3    H242990   0.172   5.030   6.501
14349TIP3   OH242991   7.783   6.137   5.957
14349TIP3    H142992   7.797   6.220   6.003
14349TIP3    H242993   7.870   6.112   5.927
14350TIP3   OH242994   7.877   2.111   1.556
14350TIP3    H142995   7.869   2.205   1.544
14350TIP3    H242996   7.952   2.085   1.503
14351TIP3   OH242997   7.352   1.922   1.180
14351TIP3    H142998   7.352   1.999   1.237
14351TIP3    H242999   7.392   1.952   1.098
14352TIP3   OH243000   7.643   1.978   1.481
14352TIP3    H143001   7.690   1.947   1.558
14352TIP3    H243002   7.706   2.031   1.433
14353TIP3   OH243003   6.870   2.275   1.001
14353TIP3    H143004   6.796   2.297   0.944
14353TIP3    H243005   6.947   2.299   0.951
14354TIP3   OH243006   6.929   2.193   0.692
14354TIP3    H143007   6.987   2.237   0.755
14354TIP3    H243008   6.947   2.100   0.703
14355TIP3   OH243009   7.357   2.305   1.049
14355TIP3    H143010   7.302   2.381   1.065
14355TIP3    H243011   7.400   2.324   0.966
14356TIP3   OH243012   7.104   2.319   0.875
14356TIP3    H143013   7.148   2.383   0.932
14356TIP3    H243014   7.143   2.333   0.789
14357TIP3   OH243015   7.601   1.564   0.886
14357TIP3    H143016   7.507   1.563   0.902
14357TIP3    H243017   7.614   1.632   0.820
14358TIP3   OH243018   7.466   2.951   0.293
14358TIP3    H143019   7.443   2.999   0.372
14358TIP3    H243020   7.537   2.893   0.320
14359TIP3   OH243021   7.178   2.323   0.618
14359TIP3    H143022   7.104   2.284   0.572
14359TIP3    H243023   7.254   2.303   0.563
14360TIP3   OH243024   6.908   1.668   0.791
14360TIP3    H143025   6.916   1.639   0.882
14360TIP3    H243026   6.857   1.600   0.748
14361TIP3   OH243027   7.070   2.194   1.185
14361TIP3    H143028   6.987   2.236   1.162
14361TIP3    H243029   7.108   2.169   1.101
14362TIP3   OH243030   7.167   1.796   0.847
14362TIP3    H143031   7.082   1.761   0.872
14362TIP3    H243032   7.184   1.866   0.910
14363TIP3   OH243033   7.190   2.066   0.963
14363TIP3    H143034   7.284   2.052   0.952
14363TIP3    H243035   7.172   2.146   0.913
14364TIP3   OH243036   7.667   2.116   0.760
14364TIP3    H143037   7.628   2.085   0.678
14364TIP3    H243038   7.665   2.212   0.753
14365TIP3   OH243039   7.066   2.732   0.617
14365TIP3    H143040   7.079   2.722   0.711
14365TIP3    H243041   6.974   2.709   0.603
14366TIP3   OH243042   7.445   3.341   0.390
14366TIP3    H143043   7.449   3.398   0.313
14366TIP3    H243044   7.405   3.396   0.457
14367TIP3   OH243045   7.158   2.662   0.860
14367TIP3    H143046   7.222   2.596   0.834
14367TIP3    H243047   7.210   2.741   0.875
14368TIP3   OH243048   7.195   1.701   1.170
14368TIP3    H143049   7.239   1.664   1.094
14368TIP3    H243050   7.238   1.785   1.185
14369TIP3   OH243051   6.741   2.035   1.280
14369TIP3    H143052   6.763   2.128   1.288
14369TIP3    H243053   6.647   2.031   1.294
14370TIP3   OH243054   6.993   1.653   1.364
14370TIP3    H143055   6.978   1.705   1.443
14370TIP3    H243056   7.074   1.688   1.327
14371TIP3   OH243057   6.986   2.943   0.475
14371TIP3    H143058   7.026   2.884   0.539
14371TIP3    H243059   7.057   2.964   0.415
14372TIP3   OH243060   6.805   2.684   0.588
14372TIP3    H143061   6.767   2.702   0.674
14372TIP3    H243062   6.786   2.592   0.572
14373TIP3   OH243063   6.627   2.189   0.859
14373TIP3    H143064   6.624   2.213   0.766
14373TIP3    H243065   6.694   2.121   0.864
14374TIP3   OH243066   7.378   2.324   0.429
14374TIP3    H143067   7.369   2.339   0.335
14374TIP3    H243068   7.429   2.399   0.460
14375TIP3   OH243069   7.551   2.671   0.794
14375TIP3    H143070   7.609   2.723   0.739
14375TIP3    H243071   7.602   2.655   0.874
14376TIP3   OH243072   7.671   2.465   0.997
14376TIP3    H143073   7.623   2.435   1.074
14376TIP3    H243074   7.741   2.519   1.033
14377TIP3   OH243075   7.667   2.383   0.730
14377TIP3    H143076   7.625   2.444   0.670
14377TIP3    H243077   7.666   2.428   0.814
14378TIP3   OH243078   7.518   2.088   0.533
14378TIP3    H143079   7.473   2.143   0.468
14378TIP3    H243080   7.477   2.002   0.523
14379TIP3   OH243081   7.604   2.380   1.275
14379TIP3    H143082   7.613   2.301   1.221
14379TIP3    H243083   7.528   2.363   1.331
14380TIP3   OH243084   7.404   1.836   0.574
14380TIP3    H143085   7.477   1.796   0.621
14380TIP3    H243086   7.337   1.768   0.570
14381TIP3   OH243087   7.464   1.995   0.940
14381TIP3    H143088   7.529   1.926   0.949
14381TIP3    H243089   7.490   2.042   0.861
14382TIP3   OH243090   7.655   1.813   1.017
14382TIP3    H143091   7.670   1.809   1.111
14382TIP3    H243092   7.631   1.723   0.992
14383TIP3   OH243093   7.647   1.754   0.695
14383TIP3    H143094   7.679   1.686   0.636
14383TIP3    H243095   7.720   1.815   0.702
14384TIP3   OH243096   7.668   1.638   1.470
14384TIP3    H143097   7.690   1.714   1.417
14384TIP3    H243098   7.588   1.662   1.516
14385TIP3   OH243099   7.766   1.796   1.268
14385TIP3    H143100   7.834   1.736   1.238
14385TIP3    H243101   7.803   1.883   1.255
14386TIP3   OH243102   7.417   1.548   1.607
14386TIP3    H143103   7.358   1.559   1.532
14386TIP3    H243104   7.367   1.495   1.668
14387TIP3   OH243105   7.351   1.568   0.992
14387TIP3    H143106   7.403   1.580   1.071
14387TIP3    H243107   7.333   1.474   0.990
14388TIP3   OH243108   6.738   1.762   1.348
14388TIP3    H143109   6.820   1.725   1.314
14388TIP3    H243110   6.730   1.846   1.304
14389TIP3   OH243111   0.355   2.790   0.682
14389TIP3    H143112   0.327   2.877   0.654
14389TIP3    H243113   0.284   2.731   0.656
14390TIP3   OH243114   0.354   2.758   1.074
14390TIP3    H143115   0.386   2.741   1.162
14390TIP3    H243116   0.308   2.677   1.050
14391TIP3   OH243117   0.623   3.066   0.757
14391TIP3    H143118   0.599   3.008   0.829
14391TIP3    H243119   0.644   3.149   0.800
14392TIP3   OH243120   7.857   2.249   0.938
14392TIP3    H143121   7.808   2.325   0.969
14392TIP3    H243122   7.797   2.204   0.879
14393TIP3   OH243123   7.917   2.557   1.091
14393TIP3    H143124   7.953   2.488   1.146
14393TIP3    H243125   7.973   2.633   1.109
14394TIP3   OH243126   0.283   3.516   0.777
14394TIP3    H143127   0.313   3.455   0.709
14394TIP3    H243128   0.291   3.466   0.858
14395TIP3   OH243129   0.185   2.982   1.114
14395TIP3    H143130   0.220   2.900   1.080
14395TIP3    H243131   0.262   3.031   1.144
14396TIP3   OH243132   1.182   2.319   1.115
14396TIP3    H143133   1.201   2.404   1.154
14396TIP3    H243134   1.213   2.328   1.024
14397TIP3   OH243135   0.560   2.492   1.151
14397TIP3    H143136   0.602   2.409   1.172
14397TIP3    H243137   0.530   2.481   1.061
14398TIP3   OH243138   8.428   2.155   1.109
14398TIP3    H143139   8.409   2.227   1.049
14398TIP3    H243140   8.377   2.081   1.075
14399TIP3   OH243141   0.615   2.254   0.734
14399TIP3    H143142   0.680   2.242   0.804
14399TIP3    H243143   0.666   2.287   0.660
14400TIP3   OH243144   8.054   2.366   1.238
14400TIP3    H143145   8.139   2.358   1.283
14400TIP3    H243146   8.065   2.314   1.158
14401TIP3   OH243147  -0.017   2.558   1.029
14401TIP3    H143148   0.076   2.538   1.038
14401TIP3    H243149  -0.057   2.477   0.996
14402TIP3   OH243150   1.243   2.535   1.284
14402TIP3    H143151   1.152   2.564   1.278
14402TIP3    H243152   1.284   2.596   1.345
14403TIP3   OH243153   8.414   2.136   1.550
14403TIP3    H143154   8.362   2.180   1.483
14403TIP3    H243155   8.368   2.153   1.632
14404TIP3   OH243156   0.260   3.005   0.535
14404TIP3    H143157   0.218   2.977   0.453
14404TIP3    H243158   0.206   3.079   0.564
14405TIP3   OH243159   0.778   2.262   0.950
14405TIP3    H143160   0.738   2.242   1.035
14405TIP3    H243161   0.835   2.337   0.969
14406TIP3   OH243162   8.298   2.261   1.333
14406TIP3    H143163   8.350   2.336   1.360
14406TIP3    H243164   8.345   2.224   1.259
14407TIP3   OH243165   7.696   2.869   0.636
14407TIP3    H143166   7.664   2.850   0.548
14407TIP3    H243167   7.777   2.917   0.623
14408TIP3   OH243168   0.659   3.311   0.887
14408TIP3    H143169   0.579   3.306   0.940
14408TIP3    H243170   0.654   3.397   0.845
14409TIP3   OH243171   0.980   2.226   1.287
14409TIP3    H143172   0.895   2.248   1.249
14409TIP3    H243173   1.043   2.249   1.218
14410TIP3   OH243174   0.254   1.845   1.272
14410TIP3    H143175   0.246   1.752   1.294
14410TIP3    H243176   0.176   1.885   1.309
14411TIP3   OH243177   0.371   3.364   0.560
14411TIP3    H143178   0.421   3.283   0.550
14411TIP3    H243179   0.432   3.434   0.537
14412TIP3   OH243180   0.510   3.134   0.514
14412TIP3    H143181   0.436   3.073   0.510
14412TIP3    H243182   0.561   3.106   0.590
14413TIP3   OH243183   0.813   3.233   1.213
14413TIP3    H143184   0.828   3.155   1.161
14413TIP3    H243185   0.838   3.306   1.155
14414TIP3   OH243186   0.185   2.627   0.530
14414TIP3    H143187   0.103   2.669   0.506
14414TIP3    H243188   0.235   2.624   0.448
14415TIP3   OH243189   0.150   2.434   0.223
14415TIP3    H143190   0.216   2.483   0.272
14415TIP3    H243191   0.200   2.368   0.176
14416TIP3   OH243192   1.043   2.827   1.056
14416TIP3    H143193   0.959   2.872   1.060
14416TIP3    H243194   1.089   2.868   0.982
14417TIP3   OH243195   0.538   2.718   0.492
14417TIP3    H143196   0.484   2.747   0.566
14417TIP3    H243197   0.621   2.692   0.532
14418TIP3   OH243198   0.742   2.704   1.357
14418TIP3    H143199   0.739   2.771   1.426
14418TIP3    H243200   0.656   2.709   1.315
14419TIP3   OH243201   8.278   2.694   0.899
14419TIP3    H143202   8.242   2.633   0.834
14419TIP3    H243203   8.353   2.647   0.936
14420TIP3   OH243204   8.428   3.059   1.020
14420TIP3    H143205   8.385   2.991   1.072
14420TIP3    H243206   8.520   3.052   1.043
14421TIP3   OH243207   8.413   2.686   1.264
14421TIP3    H143208   8.435   2.647   1.180
14421TIP3    H243209   8.495   2.722   1.296
14422TIP3   OH243210   0.434   3.307   1.043
14422TIP3    H143211   0.416   3.367   1.115
14422TIP3    H243212   0.426   3.220   1.082
14423TIP3   OH243213   0.371   2.579   0.324
14423TIP3    H143214   0.431   2.636   0.372
14423TIP3    H243215   0.399   2.587   0.232
14424TIP3   OH243216   0.122   3.244   0.576
14424TIP3    H143217   0.204   3.294   0.581
14424TIP3    H243218   0.063   3.301   0.527
14425TIP3   OH243219   0.881   1.806   0.380
14425TIP3    H143220   0.804   1.827   0.433
14425TIP3    H243221   0.893   1.883   0.323
14426TIP3   OH243222   8.157   2.533   0.698
14426TIP3    H143223   8.079   2.577   0.664
14426TIP3    H243224   8.127   2.444   0.719
14427TIP3   OH243225   3.535   7.181   6.877
14427TIP3    H143226   3.530   7.274   6.853
14427TIP3    H243227   3.624   7.156   6.854
14428TIP3   OH243228   8.503   3.468   0.393
14428TIP3    H143229   8.471   3.444   0.306
14428TIP3    H243230   8.452   3.546   0.417
14429TIP3   OH243231   0.211   3.403   0.036
14429TIP3    H143232   0.262   3.330   0.001
14429TIP3    H243233   0.246   3.417   0.125
14430TIP3   OH243234   0.264   3.446   0.307
14430TIP3    H143235   0.176   3.452   0.345
14430TIP3    H243236   0.317   3.407   0.377
14431TIP3   OH243237   0.872   2.672   1.665
14431TIP3    H143238   0.833   2.756   1.643
14431TIP3    H243239   0.966   2.684   1.647
14432TIP3   OH243240   8.514   1.932   1.388
14432TIP3    H143241   8.431   1.898   1.357
14432TIP3    H243242   8.492   2.012   1.435
14433TIP3   OH243243   0.563   2.060   1.594
14433TIP3    H143244   0.634   2.030   1.652
14433TIP3    H243245   0.483   2.037   1.641
14434TIP3   OH243246   0.778   2.468   1.500
14434TIP3    H143247   0.779   2.516   1.583
14434TIP3    H243248   0.768   2.535   1.433
14435TIP3   OH243249   0.450   2.574   0.063
14435TIP3    H143250   0.405   2.571  -0.022
14435TIP3    H243251   0.532   2.619   0.045
14436TIP3   OH243252   0.156   1.983   0.376
14436TIP3    H143253   0.121   1.989   0.465
14436TIP3    H243254   0.121   1.901   0.341
14437TIP3   OH243255   8.452   2.463   1.430
14437TIP3    H143256   8.480   2.481   1.520
14437TIP3    H243257   8.429   2.549   1.394
14438TIP3   OH243258   8.340   2.346   0.933
14438TIP3    H143259   8.253   2.321   0.964
14438TIP3    H243260   8.345   2.311   0.844
14439TIP3   OH243261   0.310   2.424   0.668
14439TIP3    H143262   0.262   2.497   0.628
14439TIP3    H243263   0.368   2.392   0.600
14440TIP3   OH243264   0.479   2.442   0.892
14440TIP3    H143265   0.410   2.465   0.830
14440TIP3    H243266   0.524   2.367   0.851
14441TIP3   OH243267   8.322   1.962   0.352
14441TIP3    H143268   8.313   1.966   0.447
14441TIP3    H243269   8.244   2.006   0.318
14442TIP3   OH243270   7.872   2.036   1.193
14442TIP3    H143271   7.941   2.066   1.252
14442TIP3    H243272   7.918   2.005   1.115
14443TIP3   OH243273   7.859   1.939   0.702
14443TIP3    H143274   7.895   1.973   0.620
14443TIP3    H243275   7.798   2.006   0.732
14444TIP3   OH243276   0.446   2.671   1.320
14444TIP3    H143277   0.485   2.605   1.263
14444TIP3    H243278   0.440   2.627   1.406
14445TIP3   OH243279   0.190   2.143   0.990
14445TIP3    H143280   0.114   2.143   1.047
14445TIP3    H243281   0.264   2.132   1.050
14446TIP3   OH243282   8.114   2.217   1.015
14446TIP3    H143283   8.025   2.219   0.979
14446TIP3    H243284   8.146   2.129   0.995
14447TIP3   OH243285   8.341   2.224   0.688
14447TIP3    H143286   8.435   2.236   0.676
14447TIP3    H243287   8.304   2.243   0.602
14448TIP3   OH243288   0.643   2.228   1.191
14448TIP3    H143289   0.621   2.245   1.283
14448TIP3    H243290   0.576   2.166   1.162
14449TIP3   OH243291   8.222   2.250   0.443
14449TIP3    H143292   8.160   2.202   0.389
14449TIP3    H243293   8.278   2.296   0.379
14450TIP3   OH243294   0.246   2.490   1.086
14450TIP3    H143295   0.313   2.439   1.042
14450TIP3    H243296   0.243   2.454   1.175
14451TIP3   OH243297   8.252   1.978   0.976
14451TIP3    H143298   8.220   1.903   1.025
14451TIP3    H243299   8.276   1.942   0.890
14452TIP3   OH243300   0.216   2.405   1.356
14452TIP3    H143301   0.126   2.431   1.375
14452TIP3    H243302   0.269   2.454   1.419
14453TIP3   OH243303   8.450   2.759   0.459
14453TIP3    H143304   8.374   2.706   0.437
14453TIP3    H243305   8.431   2.795   0.546
14454TIP3   OH243306   0.829   2.997   1.064
14454TIP3    H143307   0.862   3.049   0.991
14454TIP3    H243308   0.743   2.965   1.034
14455TIP3   OH243309   0.410   2.084   0.378
14455TIP3    H143310   0.317   2.064   0.374
14455TIP3    H243311   0.414   2.179   0.390
14456TIP3   OH243312   0.471   2.348   0.449
14456TIP3    H143313   0.566   2.352   0.459
14456TIP3    H243314   0.448   2.425   0.398
14457TIP3   OH243315   8.138   2.721   1.138
14457TIP3    H143316   8.180   2.724   1.052
14457TIP3    H243317   8.210   2.718   1.200
14458TIP3   OH243318   0.102   2.931   0.313
14458TIP3    H143319   0.053   3.013   0.314
14458TIP3    H243320   0.048   2.870   0.362
14459TIP3   OH243321   0.888   2.437   0.269
14459TIP3    H143322   0.832   2.391   0.206
14459TIP3    H243323   0.894   2.526   0.236
14460TIP3   OH243324   1.221   3.360   1.280
14460TIP3    H143325   1.172   3.322   1.353
14460TIP3    H243326   1.199   3.303   1.205
14461TIP3   OH243327   0.631   3.253   0.205
14461TIP3    H143328   0.601   3.189   0.270
14461TIP3    H243329   0.644   3.202   0.125
14462TIP3   OH243330   0.589   2.878   0.980
14462TIP3    H143331   0.500   2.846   0.993
14462TIP3    H243332   0.636   2.803   0.943
14463TIP3   OH243333   8.254   3.097   0.763
14463TIP3    H143334   8.322   3.125   0.824
14463TIP3    H243335   8.176   3.085   0.818
14464TIP3   OH243336   7.848   2.396   0.496
14464TIP3    H143337   7.892   2.480   0.511
14464TIP3    H243338   7.782   2.391   0.564
14465TIP3   OH243339   8.372   2.858   0.695
14465TIP3    H143340   8.341   2.947   0.713
14465TIP3    H243341   8.349   2.808   0.773
14466TIP3   OH243342   0.447   3.064   1.178
14466TIP3    H143343   0.498   3.077   1.258
14466TIP3    H243344   0.498   3.001   1.127
14467TIP3   OH243345   0.382   2.989   0.091
14467TIP3    H143346   0.435   2.962   0.166
14467TIP3    H243347   0.298   2.946   0.104
14468TIP3   OH243348   3.536   7.452   6.825
14468TIP3    H143349   3.559   7.516   6.758
14468TIP3    H243350   3.464   7.492   6.873
14469TIP3   OH243351   0.555   2.901   0.283
14469TIP3    H143352   0.541   2.848   0.361
14469TIP3    H243353   0.650   2.910   0.276
14470TIP3   OH243354   8.251   2.950   0.108
14470TIP3    H143355   8.258   2.858   0.082
14470TIP3    H243356   8.241   2.947   0.203
14471TIP3   OH243357   8.201   2.980   0.383
14471TIP3    H143358   8.268   2.958   0.447
14471TIP3    H243359   8.196   3.076   0.384
14472TIP3   OH243360   7.930   2.643   0.585
14472TIP3    H143361   7.889   2.673   0.666
14472TIP3    H243362   7.941   2.722   0.532
14473TIP3   OH243363   0.572   2.289   1.445
14473TIP3    H143364   0.646   2.339   1.480
14473TIP3    H243365   0.567   2.212   1.502
14474TIP3   OH243366   0.468   2.035   0.646
14474TIP3    H143367   0.448   2.052   0.554
14474TIP3    H243368   0.511   2.114   0.677
14475TIP3   OH243369   8.454   3.158   0.310
14475TIP3    H143370   8.372   3.187   0.349
14475TIP3    H243371   8.476   3.228   0.248
14476TIP3   OH243372   0.121   2.234   0.736
14476TIP3    H143373   0.184   2.302   0.711
14476TIP3    H243374   0.142   2.215   0.827
14477TIP3   OH243375   0.420   2.500   1.536
14477TIP3    H143376   0.465   2.508   1.621
14477TIP3    H243377   0.458   2.422   1.496
14478TIP3   OH243378   0.283   1.933   0.824
14478TIP3    H143379   0.260   2.010   0.875
14478TIP3    H243380   0.352   1.963   0.765
14479TIP3   OH243381   8.206   3.256   0.389
14479TIP3    H143382   8.187   3.321   0.322
14479TIP3    H243383   8.187   3.301   0.472
14480TIP3   OH243384   8.297   1.951   0.632
14480TIP3    H143385   8.286   2.042   0.660
14480TIP3    H243386   8.392   1.936   0.636
14481TIP3   OH243387   1.051   2.408   1.504
14481TIP3    H143388   0.960   2.435   1.518
14481TIP3    H243389   1.047   2.349   1.429
14482TIP3   OH243390   0.700   2.630   0.895
14482TIP3    H143391   0.623   2.573   0.902
14482TIP3    H243392   0.768   2.585   0.946
14483TIP3   OH243393   7.964   2.841   0.390
14483TIP3    H143394   8.037   2.903   0.395
14483TIP3    H243395   7.993   2.777   0.325
14484TIP3   OH243396   7.854   2.118   0.490
14484TIP3    H143397   7.877   2.211   0.495
14484TIP3    H243398   7.775   2.115   0.436
14485TIP3   OH243399   0.662   3.575   0.815
14485TIP3    H143400   0.603   3.638   0.774
14485TIP3    H243401   0.749   3.597   0.780
14486TIP3   OH243402   8.246   1.856   1.361
14486TIP3    H143403   8.222   1.826   1.273
14486TIP3    H243404   8.235   1.778   1.416
14487TIP3   OH243405   2.732   7.159   6.932
14487TIP3    H143406   2.687   7.088   6.978
14487TIP3    H243407   2.806   7.117   6.889
14488TIP3   OH243408   3.173   7.201   6.856
14488TIP3    H143409   3.202   7.136   6.919
14488TIP3    H243410   3.232   7.191   6.781
14489TIP3   OH243411   8.062   2.649   0.222
14489TIP3    H143412   8.114   2.619   0.296
14489TIP3    H243413   8.125   2.661   0.151
14490TIP3   OH243414   0.120   2.872   0.046
14490TIP3    H143415   0.102   2.883   0.139
14490TIP3    H243416   0.107   2.778   0.030
14491TIP3   OH243417   0.630   3.115   1.380
14491TIP3    H143418   0.696   3.156   1.324
14491TIP3    H243419   0.605   3.184   1.442
14492TIP3   OH243420   8.237   2.584   0.427
14492TIP3    H143421   8.222   2.556   0.517
14492TIP3    H243422   8.286   2.512   0.387
14493TIP3   OH243423   8.378   2.401   0.274
14493TIP3    H143424   8.348   2.405   0.183
14493TIP3    H243425   8.473   2.409   0.268
14494TIP3   OH243426   3.506   6.703   6.890
14494TIP3    H143427   3.492   6.662   6.805
14494TIP3    H243428   3.479   6.794   6.877
14495TIP3   OH243429   0.091   2.452   1.671
14495TIP3    H143430   0.130   2.365   1.659
14495TIP3    H243431   0.158   2.502   1.717
14496TIP3   OH243432   0.181   2.207   1.567
14496TIP3    H143433   0.206   2.247   1.484
14496TIP3    H243434   0.089   2.182   1.555
14497TIP3   OH243435   0.164   2.757   1.366
14497TIP3    H143436   0.255   2.732   1.354
14497TIP3    H243437   0.165   2.852   1.378
14498TIP3   OH243438   0.735   2.914   1.545
14498TIP3    H143439   0.690   2.980   1.493
14498TIP3    H243440   0.828   2.926   1.525
14499TIP3   OH243441   0.312   1.986   1.672
14499TIP3    H143442   0.268   2.067   1.645
14499TIP3    H243443   0.241   1.922   1.680
14500TIP3   OH243444   0.606   2.419   1.742
14500TIP3    H143445   0.609   2.451   1.833
14500TIP3    H243446   0.677   2.355   1.737
14501TIP3   OH243447   8.200   3.458   0.202
14501TIP3    H143448   8.288   3.437   0.171
14501TIP3    H243449   8.158   3.503   0.128
14502TIP3   OH243450   7.698   2.820   0.348
14502TIP3    H143451   7.792   2.830   0.360
14502TIP3    H243452   7.687   2.727   0.326
14503TIP3   OH243453   0.903   3.669   0.735
14503TIP3    H143454   0.906   3.722   0.814
14503TIP3    H243455   0.994   3.660   0.707
14504TIP3   OH243456   0.831   2.901   0.280
14504TIP3    H143457   0.893   2.967   0.250
14504TIP3    H243458   0.874   2.861   0.356
14505TIP3   OH243459   0.953   2.754   0.477
14505TIP3    H143460   0.887   2.714   0.534
14505TIP3    H243461   1.020   2.786   0.537
14506TIP3   OH243462   0.986   3.144   0.896
14506TIP3    H143463   1.049   3.083   0.859
14506TIP3    H243464   0.984   3.217   0.834
14507TIP3   OH243465   0.868   3.436   1.022
14507TIP3    H143466   0.812   3.512   1.034
14507TIP3    H243467   0.819   3.379   0.963
14508TIP3   OH243468   0.880   2.676   0.130
14508TIP3    H143469   0.809   2.674   0.065
14508TIP3    H243470   0.861   2.753   0.184
14509TIP3   OH243471   0.735   2.330   0.070
14509TIP3    H143472   0.690   2.366  -0.006
14509TIP3    H243473   0.725   2.235   0.062
14510TIP3   OH243474   0.762   2.616   0.624
14510TIP3    H143475   0.768   2.522   0.611
14510TIP3    H243476   0.746   2.627   0.717
14511TIP3   OH243477   0.998   2.916   1.495
14511TIP3    H143478   1.042   2.970   1.561
14511TIP3    H243479   1.044   2.936   1.413
14512TIP3   OH243480   1.281   2.806   1.411
14512TIP3    H143481   1.208   2.784   1.470
14512TIP3    H243482   1.356   2.760   1.448
14513TIP3   OH243483   0.692   2.060   0.047
14513TIP3    H143484   0.759   2.030   0.108
14513TIP3    H243485   0.612   2.017   0.075
14514TIP3   OH243486   0.761   2.343   0.508
14514TIP3    H143487   0.806   2.259   0.521
14514TIP3    H243488   0.804   2.382   0.431
14515TIP3   OH243489   0.909   2.492   1.024
14515TIP3    H143490   0.992   2.505   0.978
14515TIP3    H243491   0.925   2.526   1.112
14516TIP3   OH243492   0.989   2.635   1.249
14516TIP3    H143493   0.910   2.664   1.295
14516TIP3    H243494   1.008   2.705   1.187
14517TIP3   OH243495   0.874   2.092   0.559
14517TIP3    H143496   0.918   2.077   0.643
14517TIP3    H243497   0.812   2.020   0.552
14518TIP3   OH243498   8.084   2.078   1.374
14518TIP3    H143499   8.139   2.000   1.378
14518TIP3    H243500   8.145   2.150   1.361
14519TIP3   OH243501   7.869   2.364   1.450
14519TIP3    H143502   7.790   2.391   1.403
14519TIP3    H243503   7.939   2.372   1.385
14520TIP3   OH243504   1.302   2.342   1.600
14520TIP3    H143505   1.216   2.378   1.578
14520TIP3    H243506   1.309   2.261   1.549
14521TIP3   OH243507   0.924   2.008   0.197
14521TIP3    H143508   0.971   1.946   0.139
14521TIP3    H243509   0.981   2.085   0.201
14522TIP3   OH243510   7.920   1.877   0.959
14522TIP3    H143511   7.830   1.852   0.980
14522TIP3    H243512   7.915   1.910   0.869
14523TIP3   OH243513   0.534   3.556   0.471
14523TIP3    H143514   0.589   3.551   0.392
14523TIP3    H243515   0.577   3.622   0.525
14524TIP3   OH243516   1.219   2.106   1.480
14524TIP3    H143517   1.129   2.091   1.450
14524TIP3    H243518   1.260   2.019   1.476
14525TIP3   OH243519   0.417   2.049   1.126
14525TIP3    H143520   0.377   1.977   1.175
14525TIP3    H243521   0.485   2.008   1.073
14526TIP3   OH243522   0.917   1.964   1.021
14526TIP3    H143523   0.955   2.012   0.948
14526TIP3    H243524   0.824   1.986   1.018
14527TIP3   OH243525   1.030   2.038   0.783
14527TIP3    H143526   1.101   1.979   0.755
14527TIP3    H243527   1.065   2.126   0.767
14528TIP3   OH243528   8.173   1.756   1.116
14528TIP3    H143529   8.081   1.728   1.112
14528TIP3    H243530   8.223   1.675   1.113
14529TIP3   OH243531   7.982   1.653   0.773
14529TIP3    H143532   8.007   1.698   0.692
14529TIP3    H243533   7.970   1.723   0.837
14530TIP3   OH243534   0.133   1.793   1.018
14530TIP3    H143535   0.181   1.838   0.949
14530TIP3    H243536   0.178   1.817   1.099
14531TIP3   OH243537   0.632   1.937   0.994
14531TIP3    H143538   0.647   1.903   0.906
14531TIP3    H243539   0.636   1.859   1.051
14532TIP3   OH243540   0.689   1.882   0.564
14532TIP3    H143541   0.609   1.929   0.587
14532TIP3    H243542   0.679   1.795   0.602
14533TIP3   OH243543   8.091   1.783   0.538
14533TIP3    H143544   8.137   1.722   0.479
14533TIP3    H243545   8.160   1.838   0.575
14534TIP3   OH243546   0.072   1.982   0.640
14534TIP3    H143547   0.132   1.930   0.693
14534TIP3    H243548   0.087   2.073   0.668
14535TIP3   OH243549   8.454   3.379   0.130
14535TIP3    H143550   8.538   3.405   0.093
14535TIP3    H243551   8.424   3.307   0.074
14536TIP3   OH243552   0.670   3.522   0.229
14536TIP3    H143553   0.662   3.426   0.227
14536TIP3    H243554   0.623   3.551   0.151
14537TIP3   OH243555   7.785   3.217   0.167
14537TIP3    H143556   7.794   3.232   0.261
14537TIP3    H243557   7.866   3.173   0.142
14538TIP3   OH243558   2.047   3.006   0.173
14538TIP3    H143559   2.026   3.091   0.134
14538TIP3    H243560   1.995   2.943   0.123
14539TIP3   OH243561   2.147   3.104   0.528
14539TIP3    H143562   2.191   3.089   0.612
14539TIP3    H243563   2.076   3.039   0.526
14540TIP3   OH243564   1.434   2.882   0.928
14540TIP3    H143565   1.469   2.809   0.979
14540TIP3    H243566   1.501   2.900   0.862
14541TIP3   OH243567   2.332   3.319   0.237
14541TIP3    H143568   2.354   3.257   0.307
14541TIP3    H243569   2.373   3.401   0.264
14542TIP3   OH243570   1.424   3.256   0.623
14542TIP3    H143571   1.399   3.166   0.604
14542TIP3    H243572   1.379   3.277   0.704
14543TIP3   OH243573   1.120   2.535   0.406
14543TIP3    H143574   1.078   2.618   0.428
14543TIP3    H243575   1.050   2.483   0.367
14544TIP3   OH243576   1.177   2.819   0.620
14544TIP3    H143577   1.226   2.742   0.649
14544TIP3    H243578   1.243   2.879   0.587
14545TIP3   OH243579   1.898   3.842   0.298
14545TIP3    H143580   1.852   3.787   0.235
14545TIP3    H243581   1.936   3.781   0.361
14546TIP3   OH243582   1.966   3.281   0.653
14546TIP3    H143583   2.021   3.224   0.599
14546TIP3    H243584   2.027   3.319   0.717
14547TIP3   OH243585   2.891   2.553   0.468
14547TIP3    H143586   2.845   2.506   0.538
14547TIP3    H243587   2.983   2.527   0.477
14548TIP3   OH243588   2.444   2.751   0.686
14548TIP3    H143589   2.419   2.659   0.684
14548TIP3    H243590   2.390   2.792   0.618
14549TIP3   OH243591   1.695   2.397   0.592
14549TIP3    H143592   1.682   2.473   0.535
14549TIP3    H243593   1.645   2.327   0.550
14550TIP3   OH243594   2.379   2.481   0.183
14550TIP3    H143595   2.444   2.450   0.247
14550TIP3    H243596   2.429   2.534   0.122
14551TIP3   OH243597   1.330   2.613   0.717
14551TIP3    H143598   1.411   2.588   0.762
14551TIP3    H243599   1.332   2.564   0.635
14552TIP3   OH243600   1.738   2.825   0.510
14552TIP3    H143601   1.834   2.821   0.509
14552TIP3    H243602   1.710   2.737   0.483
14553TIP3   OH243603   1.664   2.353   1.035
14553TIP3    H143604   1.608   2.375   0.961
14553TIP3    H243605   1.614   2.379   1.112
14554TIP3   OH243606   4.876   7.226   6.944
14554TIP3    H143607   4.836   7.202   6.860
14554TIP3    H243608   4.863   7.321   6.950
14555TIP3   OH243609   1.719   3.183   0.718
14555TIP3    H143610   1.667   3.231   0.783
14555TIP3    H243611   1.800   3.232   0.711
14556TIP3   OH243612   2.563   2.403   0.372
14556TIP3    H143613   2.521   2.471   0.424
14556TIP3    H243614   2.628   2.450   0.319
14557TIP3   OH243615   1.559   2.488   0.811
14557TIP3    H143616   1.623   2.545   0.854
14557TIP3    H243617   1.606   2.452   0.735
14558TIP3   OH243618   1.611   3.367   0.901
14558TIP3    H143619   1.635   3.446   0.949
14558TIP3    H243620   1.536   3.332   0.948
14559TIP3   OH243621   1.010   3.074   0.160
14559TIP3    H143622   0.974   3.094   0.073
14559TIP3    H243623   1.025   3.160   0.199
14560TIP3   OH243624   2.661   2.382   0.834
14560TIP3    H143625   2.569   2.357   0.843
14560TIP3    H243626   2.661   2.443   0.760
14561TIP3   OH243627   2.011   2.055   0.738
14561TIP3    H143628   1.999   1.967   0.774
14561TIP3    H243629   1.944   2.108   0.780
14562TIP3   OH243630   2.333   3.658   0.099
14562TIP3    H143631   2.327   3.569   0.064
14562TIP3    H243632   2.311   3.715   0.025
14563TIP3   OH243633   5.117   7.419   6.926
14563TIP3    H143634   5.112   7.355   6.856
14563TIP3    H243635   5.108   7.368   7.007
14564TIP3   OH243636   4.768   6.861   6.915
14564TIP3    H143637   4.690   6.912   6.892
14564TIP3    H243638   4.822   6.864   6.836
14565TIP3   OH243639   4.775   6.681   6.640
14565TIP3    H143640   4.843   6.730   6.687
14565TIP3    H243641   4.824   6.613   6.593
14566TIP3   OH243642   5.089   7.032   6.889
14566TIP3    H143643   5.034   7.063   6.961
14566TIP3    H243644   5.150   6.971   6.930
14567TIP3   OH243645   1.554   2.958   0.361
14567TIP3    H143646   1.518   2.894   0.298
14567TIP3    H243647   1.623   2.910   0.406
14568TIP3   OH243648   1.696   3.328   0.472
14568TIP3    H143649   1.617   3.343   0.419
14568TIP3    H243650   1.678   3.247   0.520
14569TIP3   OH243651   1.620   2.932   0.733
14569TIP3    H143652   1.665   2.887   0.661
14569TIP3    H243653   1.649   3.023   0.726
14570TIP3   OH243654   4.980   6.840   6.732
14570TIP3    H143655   5.021   6.910   6.783
14570TIP3    H243656   5.017   6.851   6.644
14571TIP3   OH243657   1.615   3.111   1.075
14571TIP3    H143658   1.607   3.181   1.140
14571TIP3    H243659   1.533   3.063   1.080
14572TIP3   OH243660   4.768   7.480   6.918
14572TIP3    H143661   4.718   7.463   6.998
14572TIP3    H243662   4.706   7.465   6.847
14573TIP3   OH243663   5.496   6.065   6.785
14573TIP3    H143664   5.422   6.090   6.841
14573TIP3    H243665   5.512   6.143   6.732
14574TIP3   OH243666   1.434   2.789   0.176
14574TIP3    H143667   1.355   2.834   0.146
14574TIP3    H243668   1.405   2.700   0.194
14575TIP3   OH243669   5.348   7.451   6.354
14575TIP3    H143670   5.350   7.545   6.338
14575TIP3    H243671   5.437   7.421   6.333
14576TIP3   OH243672   1.198   3.185   1.074
14576TIP3    H143673   1.116   3.168   1.029
14576TIP3    H243674   1.213   3.106   1.128
14577TIP3   OH243675   1.038   3.370   0.739
14577TIP3    H143676   1.131   3.359   0.759
14577TIP3    H243677   1.012   3.449   0.786
14578TIP3   OH243678   4.619   7.741   6.800
14578TIP3    H143679   4.597   7.716   6.710
14578TIP3    H243680   4.594   7.833   6.805
14579TIP3   OH243681   1.184   3.562   0.187
14579TIP3    H143682   1.199   3.577   0.281
14579TIP3    H243683   1.137   3.479   0.183
14580TIP3   OH243684   4.832   7.649   6.445
14580TIP3    H143685   4.885   7.580   6.405
14580TIP3    H243686   4.861   7.652   6.536
14581TIP3   OH243687   4.888   7.673   6.712
14581TIP3    H143688   4.826   7.645   6.779
14581TIP3    H243689   4.969   7.691   6.760
14582TIP3   OH243690   1.434   3.359   1.100
14582TIP3    H143691   1.483   3.347   1.181
14582TIP3    H243692   1.344   3.338   1.122
14583TIP3   OH243693   1.796   2.170   0.870
14583TIP3    H143694   1.709   2.143   0.840
14583TIP3    H243695   1.781   2.251   0.918
14584TIP3   OH243696   2.328   2.314   1.096
14584TIP3    H143697   2.400   2.262   1.134
14584TIP3    H243698   2.250   2.261   1.112
14585TIP3   OH243699   5.087   6.871   6.486
14585TIP3    H143700   5.042   6.849   6.405
14585TIP3    H243701   5.175   6.897   6.459
14586TIP3   OH243702   4.778   6.249   6.800
14586TIP3    H143703   4.745   6.253   6.890
14586TIP3    H243704   4.746   6.166   6.766
14587TIP3   OH243705   1.739   2.637   0.952
14587TIP3    H143706   1.671   2.655   1.017
14587TIP3    H243707   1.784   2.720   0.941
14588TIP3   OH243708   1.614   2.597   0.422
14588TIP3    H143709   1.525   2.571   0.447
14588TIP3    H243710   1.624   2.563   0.333
14589TIP3   OH243711   2.084   2.664   0.107
14589TIP3    H143712   2.030   2.731   0.064
14589TIP3    H243713   2.149   2.639   0.041
14590TIP3   OH243714   2.195   2.616   0.349
14590TIP3    H143715   2.151   2.640   0.266
14590TIP3    H243716   2.269   2.562   0.322
14591TIP3   OH243717   1.529   2.701   1.115
14591TIP3    H143718   1.559   2.740   1.197
14591TIP3    H243719   1.502   2.613   1.138
14592TIP3   OH243720   4.451   6.226   6.779
14592TIP3    H143721   4.441   6.227   6.874
14592TIP3    H243722   4.373   6.271   6.746
14593TIP3   OH243723   1.151   2.263   0.698
14593TIP3    H143724   1.222   2.293   0.755
14593TIP3    H243725   1.195   2.238   0.617
14594TIP3   OH243726   1.079   2.240   0.212
14594TIP3    H143727   1.125   2.276   0.136
14594TIP3    H243728   1.015   2.308   0.235
14595TIP3   OH243729   2.433   2.957   0.862
14595TIP3    H143730   2.416   2.871   0.823
14595TIP3    H243731   2.406   2.948   0.953
14596TIP3   OH243732   1.948   2.433   0.466
14596TIP3    H143733   1.876   2.420   0.527
14596TIP3    H243734   2.025   2.402   0.513
14597TIP3   OH243735   1.377   2.474   0.485
14597TIP3    H143736   1.289   2.481   0.447
14597TIP3    H243737   1.405   2.384   0.465
14598TIP3   OH243738   1.625   2.479   0.176
14598TIP3    H143739   1.720   2.488   0.165
14598TIP3    H243740   1.590   2.499   0.089
14599TIP3   OH243741   2.382   2.483   0.660
14599TIP3    H143742   2.368   2.474   0.755
14599TIP3    H243743   2.314   2.429   0.621
14600TIP3   OH243744   4.346   6.521   6.870
14600TIP3    H143745   4.285   6.469   6.818
14600TIP3    H243746   4.403   6.562   6.805
14601TIP3   OH243747   1.589   3.270   1.302
14601TIP3    H143748   1.683   3.281   1.313
14601TIP3    H243749   1.567   3.196   1.358
14602TIP3   OH243750   2.005   2.738   0.508
14602TIP3    H143751   2.053   2.677   0.452
14602TIP3    H243752   1.956   2.681   0.568
14603TIP3   OH243753   1.520   2.226   0.460
14603TIP3    H143754   1.492   2.151   0.513
14603TIP3    H243755   1.553   2.187   0.379
14604TIP3   OH243756   1.883   2.609   0.714
14604TIP3    H143757   1.822   2.609   0.788
14604TIP3    H243758   1.965   2.575   0.749
14605TIP3   OH243759   4.554   7.040   6.883
14605TIP3    H143760   4.481   6.980   6.869
14605TIP3    H243761   4.540   7.074   6.971
14606TIP3   OH243762   5.032   6.342   6.789
14606TIP3    H143763   4.938   6.327   6.787
14606TIP3    H243764   5.041   6.437   6.801
14607TIP3   OH243765   5.095   6.606   6.843
14607TIP3    H143766   5.190   6.601   6.854
14607TIP3    H243767   5.080   6.689   6.798
14608TIP3   OH243768   1.392   2.984   0.580
14608TIP3    H143769   1.435   2.982   0.494
14608TIP3    H243770   1.459   2.956   0.642
14609TIP3   OH243771   4.713   7.188   6.723
14609TIP3    H143772   4.667   7.272   6.719
14609TIP3    H243773   4.655   7.131   6.775
14610TIP3   OH243774   1.128   2.984   1.262
14610TIP3    H143775   1.207   2.945   1.299
14610TIP3    H243776   1.101   2.922   1.194
14611TIP3   OH243777   5.502   6.695   6.677
14611TIP3    H143778   5.446   6.645   6.618
14611TIP3    H243779   5.504   6.783   6.638
14612TIP3   OH243780   5.257   7.522   6.617
14612TIP3    H143781   5.223   7.445   6.662
14612TIP3    H243782   5.288   7.489   6.533
14613TIP3   OH243783   2.437   3.215   0.474
14613TIP3    H143784   2.428   3.202   0.568
14613TIP3    H243785   2.506   3.154   0.448
14614TIP3   OH243786   1.512   3.358   0.257
14614TIP3    H143787   1.495   3.423   0.189
14614TIP3    H243788   1.433   3.358   0.311
14615TIP3   OH243789   1.117   2.664  -0.010
14615TIP3    H143790   1.160   2.747   0.011
14615TIP3    H243791   1.036   2.665   0.041
14616TIP3   OH243792   1.653   3.138   0.181
14616TIP3    H143793   1.602   3.216   0.204
14616TIP3    H243794   1.630   3.074   0.248
14617TIP3   OH243795   1.427   3.553   0.075
14617TIP3    H143796   1.334   3.556   0.096
14617TIP3    H243797   1.467   3.616   0.136
14618TIP3   OH243798   2.192   3.375   0.772
14618TIP3    H143799   2.260   3.308   0.782
14618TIP3    H243800   2.209   3.415   0.688
14619TIP3   OH243801   5.023   7.240   6.492
14619TIP3    H143802   5.063   7.234   6.579
14619TIP3    H243803   4.940   7.193   6.501
14620TIP3   OH243804   5.352   7.726   6.319
14620TIP3    H143805   5.403   7.805   6.300
14620TIP3    H243806   5.268   7.758   6.351
14621TIP3   OH243807   1.504   2.455   1.231
14621TIP3    H143808   1.412   2.459   1.256
14621TIP3    H243809   1.550   2.431   1.311
14622TIP3   OH243810   5.174   7.231   6.725
14622TIP3    H143811   5.141   7.160   6.781
14622TIP3    H243812   5.266   7.209   6.712
14623TIP3   OH243813   1.390   3.629   0.912
14623TIP3    H143814   1.314   3.611   0.857
14623TIP3    H243815   1.359   3.612   1.001
14624TIP3   OH243816   4.371   7.212   6.525
14624TIP3    H143817   4.379   7.121   6.495
14624TIP3    H243818   4.349   7.205   6.618
14625TIP3   OH243819   4.310   7.224   6.795
14625TIP3    H143820   4.382   7.203   6.855
14625TIP3    H243821   4.310   7.320   6.791
14626TIP3   OH243822   1.213   2.913   0.067
14626TIP3    H143823   1.146   2.957   0.119
14626TIP3    H243824   1.231   2.973  -0.006
14627TIP3   OH243825   2.362   2.537   0.933
14627TIP3    H143826   2.439   2.591   0.948
14627TIP3    H243827   2.363   2.472   1.003
14628TIP3   OH243828   2.242   2.261   0.108
14628TIP3    H143829   2.220   2.274   0.016
14628TIP3    H243830   2.281   2.344   0.136
14629TIP3   OH243831   4.582   7.428   6.723
14629TIP3    H143832   4.490   7.444   6.745
14629TIP3    H243833   4.600   7.487   6.650
14630TIP3   OH243834   1.900   2.487   0.204
14630TIP3    H143835   1.965   2.550   0.172
14630TIP3    H243836   1.919   2.478   0.297
14631TIP3   OH243837   2.262   2.909   1.066
14631TIP3    H143838   2.215   2.943   1.142
14631TIP3    H243839   2.282   2.818   1.089
14632TIP3   OH243840   2.072   2.182   0.307
14632TIP3    H143841   2.072   2.260   0.364
14632TIP3    H243842   2.135   2.204   0.238
14633TIP3   OH243843   4.322   7.495   6.763
14633TIP3    H143844   4.302   7.570   6.707
14633TIP3    H243845   4.298   7.524   6.851
14634TIP3   OH243846   1.588   2.206   0.117
14634TIP3    H143847   1.578   2.297   0.147
14634TIP3    H243848   1.682   2.190   0.122
14635TIP3   OH243849   2.548   2.968   0.371
14635TIP3    H143850   2.453   2.974   0.361
14635TIP3    H243851   2.561   2.966   0.466
14636TIP3   OH243852   4.063   7.100   6.793
14636TIP3    H143853   4.136   7.161   6.803
14636TIP3    H243854   4.094   7.036   6.729
14637TIP3   OH243855   3.978   6.394   6.931
14637TIP3    H143856   3.988   6.489   6.937
14637TIP3    H243857   3.918   6.381   6.858
14638TIP3   OH243858   1.528   2.103   0.853
14638TIP3    H143859   1.500   2.069   0.768
14638TIP3    H243860   1.521   2.028   0.912
14639TIP3   OH243861   1.033   3.335   0.244
14639TIP3    H143862   1.005   3.377   0.326
14639TIP3    H243863   0.981   3.377   0.176
14640TIP3   OH243864   4.524   7.412   6.416
14640TIP3    H143865   4.475   7.341   6.457
14640TIP3    H243866   4.597   7.370   6.371
14641TIP3   OH243867   4.970   7.450   6.328
14641TIP3    H143868   5.003   7.384   6.389
14641TIP3    H243869   5.029   7.445   6.252
14642TIP3   OH243870   4.190   6.912   6.642
14642TIP3    H143871   4.240   6.885   6.720
14642TIP3    H243872   4.257   6.923   6.574
14643TIP3   OH243873   4.764   7.127   6.463
14643TIP3    H143874   4.737   7.140   6.554
14643TIP3    H243875   4.749   7.034   6.446
14644TIP3   OH243876   1.573   3.058   1.467
14644TIP3    H143877   1.589   2.966   1.488
14644TIP3    H243878   1.589   3.105   1.549
14645TIP3   OH243879   4.362   6.848   6.854
14645TIP3    H143880   4.339   6.814   6.941
14645TIP3    H243881   4.409   6.776   6.813
14646TIP3   OH243882   1.797   2.936   1.184
14646TIP3    H143883   1.732   2.988   1.136
14646TIP3    H243884   1.880   2.960   1.144
14647TIP3   OH243885   4.503   6.666   6.698
14647TIP3    H143886   4.474   6.669   6.606
14647TIP3    H243887   4.599   6.665   6.692
14648TIP3   OH243888   5.316   6.977   6.337
14648TIP3    H143889   5.279   6.929   6.263
14648TIP3    H243890   5.277   7.065   6.329
14649TIP3   OH243891   1.904   2.682   1.267
14649TIP3    H143892   1.859   2.598   1.270
14649TIP3    H243893   1.847   2.738   1.213
14650TIP3   OH243894   1.930   2.422   1.024
14650TIP3    H143895   1.943   2.513   1.000
14650TIP3    H243896   1.835   2.414   1.034
14651TIP3   OH243897   2.016   3.059   1.075
14651TIP3    H143898   2.070   3.029   1.001
14651TIP3    H243899   1.958   3.124   1.036
14652TIP3   OH243900   1.912   2.853   1.474
14652TIP3    H143901   1.909   2.802   1.555
14652TIP3    H243902   1.903   2.788   1.404
14653TIP3   OH243903   2.073   2.199   1.086
14653TIP3    H143904   2.015   2.270   1.060
14653TIP3    H243905   2.014   2.129   1.114
14654TIP3   OH243906   2.156   2.889   1.327
14654TIP3    H143907   2.233   2.930   1.367
14654TIP3    H243908   2.088   2.895   1.394
14655TIP3   OH243909   1.684   2.546   1.551
14655TIP3    H143910   1.679   2.453   1.531
14655TIP3    H243911   1.740   2.551   1.629
14656TIP3   OH243912   2.195   2.278   1.391
14656TIP3    H143913   2.261   2.255   1.456
14656TIP3    H243914   2.145   2.197   1.379
14657TIP3   OH243915   4.320   7.723   6.610
14657TIP3    H143916   4.411   7.706   6.585
14657TIP3    H243917   4.283   7.773   6.537
14658TIP3   OH243918   3.790   7.094   6.814
14658TIP3    H143919   3.885   7.106   6.810
14658TIP3    H243920   3.775   7.008   6.775
14659TIP3   OH243921   0.855   3.687   0.340
14659TIP3    H143922   0.794   3.630   0.293
14659TIP3    H243923   0.902   3.628   0.399
14660TIP3   OH243924   1.006   3.492   0.477
14660TIP3    H143925   0.992   3.441   0.557
14660TIP3    H243926   1.087   3.540   0.492
14661TIP3   OH243927   5.438   7.160   6.695
14661TIP3    H143928   5.500   7.222   6.656
14661TIP3    H243929   5.481   7.132   6.776
14662TIP3   OH243930   2.751   3.060  -0.031
14662TIP3    H143931   2.672   3.061   0.022
14662TIP3    H243932   2.820   3.093   0.028
14663TIP3   OH243933   5.489   6.935   6.544
14663TIP3    H143934   5.424   6.940   6.473
14663TIP3    H243935   5.469   7.010   6.600
14664TIP3   OH243936   5.333   6.595   6.484
14664TIP3    H143937   5.307   6.615   6.394
14664TIP3    H243938   5.333   6.499   6.488
14665TIP3   OH243939   2.429   2.834   0.032
14665TIP3    H143940   2.464   2.747   0.017
14665TIP3    H243941   2.500   2.882   0.075
14666TIP3   OH243942   1.178   2.952   0.857
14666TIP3    H143943   1.170   2.912   0.770
14666TIP3    H243944   1.270   2.941   0.880
14667TIP3   OH243945   5.318   6.325   6.473
14667TIP3    H143946   5.388   6.292   6.529
14667TIP3    H243947   5.241   6.274   6.497
14668TIP3   OH243948   5.377   6.589   6.909
14668TIP3    H143949   5.428   6.511   6.933
14668TIP3    H243950   5.427   6.628   6.837
14669TIP3   OH243951   2.733   2.772   0.497
14669TIP3    H143952   2.770   2.847   0.451
14669TIP3    H243953   2.797   2.702   0.486
14670TIP3   OH243954   1.419   2.589   1.514
14670TIP3    H143955   1.515   2.594   1.523
14670TIP3    H243956   1.396   2.504   1.551
14671TIP3   OH243957   2.686   2.337   0.052
14671TIP3    H143958   2.738   2.300   0.124
14671TIP3    H243959   2.617   2.273   0.038
14672TIP3   OH243960   1.354   2.315   0.880
14672TIP3    H143961   1.410   2.237   0.881
14672TIP3    H243962   1.413   2.386   0.855
14673TIP3   OH243963   1.156   2.578   0.939
14673TIP3    H143964   1.210   2.588   0.860
14673TIP3    H243965   1.147   2.668   0.972
14674TIP3   OH243966   5.552   6.275   6.619
14674TIP3    H143967   5.594   6.214   6.558
14674TIP3    H243968   5.610   6.351   6.619
14675TIP3   OH243969   1.147   2.107   0.440
14675TIP3    H143970   1.060   2.095   0.479
14675TIP3    H243971   1.131   2.161   0.363
14676TIP3   OH243972   5.111   7.803   6.811
14676TIP3    H143973   5.180   7.781   6.748
14676TIP3    H243974   5.127   7.895   6.833
14677TIP3   OH243975   1.373   2.173   1.257
14677TIP3    H143976   1.315   2.154   1.331
14677TIP3    H243977   1.316   2.217   1.193
14678TIP3   OH243978   1.652   3.608   1.020
14678TIP3    H143979   1.570   3.644   0.988
14678TIP3    H243980   1.720   3.661   0.978
14679TIP3   OH243981   3.105   2.414   0.992
14679TIP3    H143982   3.028   2.360   0.972
14679TIP3    H243983   3.178   2.367   0.953
14680TIP3   OH243984   1.482   3.976   0.809
14680TIP3    H143985   1.538   3.957   0.884
14680TIP3    H243986   1.536   3.957   0.733
14681TIP3   OH243987   1.180   3.641   0.717
14681TIP3    H143988   1.163   3.707   0.784
14681TIP3    H243989   1.222   3.689   0.646
14682TIP3   OH243990   1.461   3.507   0.527
14682TIP3    H143991   1.452   3.421   0.568
14682TIP3    H243992   1.502   3.561   0.594
14683TIP3   OH243993   1.741   3.639   0.460
14683TIP3    H143994   1.784   3.566   0.415
14683TIP3    H243995   1.736   3.611   0.551
14684TIP3   OH243996   2.163   2.313   0.577
14684TIP3    H143997   2.150   2.274   0.664
14684TIP3    H243998   2.228   2.257   0.535
14685TIP3   OH243999   2.639   2.146   0.391
14685TIP3    H144000   2.721   2.179   0.353
14685TIP3    H244001   2.585   2.224   0.403
14686TIP3   OH244002   2.862   2.264   0.298
14686TIP3    H144003   2.909   2.197   0.248
14686TIP3    H244004   2.902   2.346   0.271
14687TIP3   OH244005   1.449   2.003   0.609
14687TIP3    H144006   1.360   1.969   0.619
14687TIP3    H244007   1.503   1.925   0.601
14688TIP3   OH244008   1.266   1.912   0.267
14688TIP3    H144009   1.295   1.961   0.190
14688TIP3    H244010   1.233   1.978   0.327
14689TIP3   OH244011   1.905   2.046   0.482
14689TIP3    H144012   1.959   2.094   0.420
14689TIP3    H244013   1.948   2.059   0.567
14690TIP3   OH244014   2.360   2.162   0.477
14690TIP3    H144015   2.397   2.142   0.392
14690TIP3    H244016   2.394   2.093   0.535
14691TIP3   OH244017   2.485   2.142   0.043
14691TIP3    H144018   2.400   2.185   0.059
14691TIP3    H244019   2.471   2.051   0.071
14692TIP3   OH244020   0.940   3.468   0.024
14692TIP3    H144021   0.857   3.435  -0.011
14692TIP3    H244022   0.946   3.557  -0.009
14693TIP3   OH244023   1.378   2.042   0.031
14693TIP3    H144024   1.423   1.980  -0.027
14693TIP3    H244025   1.447   2.097   0.066
14694TIP3   OH244026   1.861   2.231   0.123
14694TIP3    H144027   1.920   2.180   0.180
14694TIP3    H244028   1.875   2.322   0.150
14695TIP3   OH244029   4.575   7.649   6.538
14695TIP3    H144030   4.661   7.668   6.500
14695TIP3    H244031   4.542   7.576   6.485
14696TIP3   OH244032   5.320   7.795   6.637
14696TIP3    H144033   5.330   7.700   6.635
14696TIP3    H244034   5.271   7.815   6.556
14697TIP3   OH244035   1.643   2.274   1.512
14697TIP3    H144036   1.580   2.206   1.535
14697TIP3    H244037   1.723   2.250   1.559
14698TIP3   OH244038   1.978   2.395   1.528
14698TIP3    H144039   2.050   2.340   1.497
14698TIP3    H244040   2.003   2.419   1.618
14699TIP3   OH244041   3.887   7.484   6.622
14699TIP3    H144042   3.886   7.483   6.718
14699TIP3    H244043   3.968   7.439   6.599
14700TIP3   OH244044   5.717   6.883   6.738
14700TIP3    H144045   5.667   6.944   6.792
14700TIP3    H244046   5.662   6.805   6.732
14701TIP3   OH244047   3.002   3.101   0.110
14701TIP3    H144048   3.075   3.054   0.151
14701TIP3    H244049   3.033   3.119   0.021
14702TIP3   OH244050   3.543   2.674   0.093
14702TIP3    H144051   3.484   2.727   0.039
14702TIP3    H244052   3.533   2.585   0.058
14703TIP3   OH244053   3.204   2.914   0.146
14703TIP3    H144054   3.288   2.901   0.103
14703TIP3    H244055   3.155   2.833   0.128
14704TIP3   OH244056   5.620   7.321   6.567
14704TIP3    H144057   5.603   7.324   6.473
14704TIP3    H244058   5.607   7.411   6.597
14705TIP3   OH244059   6.594   6.962   6.148
14705TIP3    H144060   6.663   7.027   6.154
14705TIP3    H244061   6.637   6.884   6.113
14706TIP3   OH244062   7.314   6.335   6.260
14706TIP3    H144063   7.236   6.355   6.312
14706TIP3    H244064   7.315   6.404   6.193
14707TIP3   OH244065   6.072   7.022   6.556
14707TIP3    H144066   5.988   7.066   6.545
14707TIP3    H244067   6.053   6.944   6.608
14708TIP3   OH244068   6.833   7.107   5.949
14708TIP3    H144069   6.826   7.086   5.856
14708TIP3    H244070   6.925   7.093   5.970
14709TIP3   OH244071   6.582   6.496   6.280
14709TIP3    H144072   6.549   6.500   6.370
14709TIP3    H244073   6.543   6.418   6.243
14710TIP3   OH244074   6.237   6.845   6.850
14710TIP3    H144075   6.142   6.844   6.840
14710TIP3    H244076   6.269   6.807   6.769
14711TIP3   OH244077   6.250   6.487   6.256
14711TIP3    H144078   6.242   6.481   6.351
14711TIP3    H244079   6.171   6.534   6.227
14712TIP3   OH244080   2.985   2.468   0.173
14712TIP3    H144081   3.017   2.552   0.205
14712TIP3    H244082   2.984   2.478   0.077
14713TIP3   OH244083   5.705   6.506   6.622
14713TIP3    H144084   5.749   6.548   6.548
14713TIP3    H244085   5.647   6.574   6.657
14714TIP3   OH244086   5.981   6.835   6.749
14714TIP3    H144087   5.886   6.842   6.745
14714TIP3    H244088   5.999   6.741   6.739
14715TIP3   OH244089   6.253   6.739   6.595
14715TIP3    H144090   6.346   6.751   6.574
14715TIP3    H244091   6.208   6.756   6.512
14716TIP3   OH244092   6.142   6.773   6.345
14716TIP3    H144093   6.078   6.724   6.293
14716TIP3    H244094   6.201   6.811   6.279
14717TIP3   OH244095   6.223   6.475   6.852
14717TIP3    H144096   6.177   6.392   6.852
14717TIP3    H244097   6.316   6.451   6.843
14718TIP3   OH244098   6.320   7.326   6.411
14718TIP3    H144099   6.275   7.248   6.378
14718TIP3    H244100   6.322   7.314   6.506
14719TIP3   OH244101   6.812   6.636   6.277
14719TIP3    H144102   6.728   6.592   6.276
14719TIP3    H244103   6.807   6.700   6.206
14720TIP3   OH244104   5.705   6.952   6.366
14720TIP3    H144105   5.768   7.014   6.401
14720TIP3    H244106   5.644   6.936   6.438
14721TIP3   OH244107   6.157   7.467   5.999
14721TIP3    H144108   6.164   7.375   5.973
14721TIP3    H244109   6.145   7.464   6.094
14722TIP3   OH244110   6.144   7.493   6.274
14722TIP3    H144111   6.206   7.435   6.318
14722TIP3    H244112   6.172   7.581   6.298
14723TIP3   OH244113   5.842   7.168   6.478
14723TIP3    H144114   5.781   7.209   6.539
14723TIP3    H244115   5.868   7.239   6.419
14724TIP3   OH244116   6.902   6.555   6.524
14724TIP3    H144117   6.871   6.578   6.437
14724TIP3    H244118   6.944   6.635   6.556
14725TIP3   OH244119   6.530   6.761   6.620
14725TIP3    H144120   6.624   6.771   6.600
14725TIP3    H244121   6.523   6.782   6.713
14726TIP3   OH244122   6.746   6.448   6.728
14726TIP3    H144123   6.804   6.454   6.803
14726TIP3    H244124   6.797   6.484   6.655
14727TIP3   OH244125   6.226   6.460   6.528
14727TIP3    H144126   6.210   6.539   6.580
14727TIP3    H244127   6.319   6.443   6.539
14728TIP3   OH244128   5.866   7.382   6.287
14728TIP3    H144129   5.929   7.453   6.293
14728TIP3    H244130   5.908   7.318   6.230
14729TIP3   OH244131   5.760   6.670   6.406
14729TIP3    H144132   5.762   6.763   6.385
14729TIP3    H244133   5.708   6.630   6.336
14730TIP3   OH244134   3.396   2.416   0.412
14730TIP3    H144135   3.342   2.401   0.335
14730TIP3    H244136   3.449   2.337   0.420
14731TIP3   OH244137   5.575   7.594   6.599
14731TIP3    H144138   5.535   7.613   6.684
14731TIP3    H244139   5.666   7.623   6.609
14732TIP3   OH244140   6.323   7.664   5.901
14732TIP3    H144141   6.272   7.593   5.939
14732TIP3    H244142   6.402   7.621   5.867
14733TIP3   OH244143   6.006   7.195   6.154
14733TIP3    H144144   6.067   7.158   6.219
14733TIP3    H244145   6.054   7.191   6.071
14734TIP3   OH244146   6.492   7.382   5.959
14734TIP3    H144147   6.469   7.385   6.052
14734TIP3    H244148   6.503   7.289   5.939
14735TIP3   OH244149   6.198   7.100   6.330
14735TIP3    H144150   6.158   7.061   6.408
14735TIP3    H244151   6.233   7.025   6.281
14736TIP3   OH244152   6.309   6.908   6.166
14736TIP3    H144153   6.282   6.913   6.075
14736TIP3    H244154   6.405   6.914   6.163
14737TIP3   OH244155   5.597   7.334   6.288
14737TIP3    H144156   5.687   7.367   6.289
14737TIP3    H244157   5.606   7.243   6.259
14738TIP3   OH244158   7.028   6.863   5.994
14738TIP3    H144159   7.032   6.853   5.899
14738TIP3    H244160   7.073   6.786   6.028
14739TIP3   OH244161   7.121   6.607   6.034
14739TIP3    H144162   7.202   6.557   6.021
14739TIP3    H244163   7.051   6.547   6.008
14740TIP3   OH244164   3.156   2.531   0.517
14740TIP3    H144165   3.201   2.457   0.557
14740TIP3    H244166   3.220   2.568   0.455
14741TIP3   OH244167   2.899   2.938   0.363
14741TIP3    H144168   2.905   2.884   0.284
14741TIP3    H244169   2.990   2.954   0.387
14742TIP3   OH244170   7.366   6.474   6.006
14742TIP3    H144171   7.370   6.430   5.921
14742TIP3    H244172   7.432   6.543   6.000
14743TIP3   OH244173   5.781   6.341   6.837
14743TIP3    H144174   5.694   6.330   6.875
14743TIP3    H244175   5.774   6.419   6.783
14744TIP3   OH244176   6.056   6.254   6.892
14744TIP3    H144177   5.961   6.263   6.886
14744TIP3    H244178   6.069   6.176   6.946
14745TIP3   OH244179   5.863   6.154   6.649
14745TIP3    H144180   5.911   6.203   6.582
14745TIP3    H244181   5.835   6.220   6.711
14746TIP3   OH244182   6.504   6.465   6.863
14746TIP3    H144183   6.584   6.468   6.812
14746TIP3    H244184   6.526   6.414   6.941
14747TIP3   OH244185   7.104   6.378   6.432
14747TIP3    H144186   7.033   6.433   6.464
14747TIP3    H244187   7.097   6.297   6.484
14748TIP3   OH244188   5.641   7.760   6.376
14748TIP3    H144189   5.583   7.702   6.425
14748TIP3    H244190   5.607   7.848   6.392
14749TIP3   OH244191   6.011   6.299   6.453
14749TIP3    H144192   6.056   6.238   6.395
14749TIP3    H244193   6.080   6.353   6.491
14750TIP3   OH244194   6.503   6.496   6.545
14750TIP3    H144195   6.557   6.448   6.608
14750TIP3    H244196   6.507   6.587   6.574
14751TIP3   OH244197   5.669   7.715   6.109
14751TIP3    H144198   5.667   7.728   6.204
14751TIP3    H244199   5.757   7.681   6.091
14752TIP3   OH244200   5.470   0.252   6.769
14752TIP3    H144201   5.502   0.266   6.858
14752TIP3    H244202   5.524   0.180   6.735
14753TIP3   OH244203   0.520   3.608   0.009
14753TIP3    H144204   0.451   3.625   0.072
14753TIP3    H244205   0.521   3.685  -0.048
14754TIP3   OH244206   5.769   0.326   6.652
14754TIP3    H144207   5.725   0.325   6.567
14754TIP3    H244208   5.784   0.418   6.670
14755TIP3   OH244209   8.286   3.809   0.013
14755TIP3    H144210   8.217   3.840   0.071
14755TIP3    H244211   8.257   3.722  -0.015
14756TIP3   OH244212   2.281   7.796   6.927
14756TIP3    H144213   2.228   7.746   6.990
14756TIP3    H244214   2.219   7.854   6.884
14757TIP3   OH244215   2.879   7.901   6.924
14757TIP3    H144216   2.784   7.888   6.932
14757TIP3    H244217   2.888   7.996   6.910
14758TIP3   OH244218   5.788   0.151   6.885
14758TIP3    H144219   5.871   0.143   6.934
14758TIP3    H244220   5.805   0.218   6.819
14759TIP3   OH244221   6.179   0.230   6.804
14759TIP3    H144222   6.120   0.201   6.735
14759TIP3    H244223   6.190   0.324   6.790
14760TIP3   OH244224   0.140   3.853   0.238
14760TIP3    H144225   0.107   3.858   0.148
14760TIP3    H244226   0.137   3.943   0.270
14761TIP3   OH244227   6.040   0.514   6.520
14761TIP3    H144228   5.996   0.447   6.467
14761TIP3    H244229   6.107   0.550   6.462
14762TIP3   OH244230   6.204   0.507   6.735
14762TIP3    H144231   6.136   0.506   6.668
14762TIP3    H244232   6.201   0.595   6.772
14763TIP3   OH244233   6.025   0.128   6.607
14763TIP3    H144234   5.965   0.146   6.534
14763TIP3    H244235   6.024   0.032   6.615
14764TIP3   OH244236   3.171   7.869   6.616
14764TIP3    H144237   3.232   7.846   6.686
14764TIP3    H244238   3.088   7.827   6.643
14765TIP3   OH244239   0.369   4.118   0.073
14765TIP3    H144240   0.421   4.050   0.117
14765TIP3    H244241   0.430   4.158   0.012
14766TIP3   OH244242   0.526   3.904   0.193
14766TIP3    H144243   0.566   3.906   0.280
14766TIP3    H244244   0.465   3.830   0.196
14767TIP3   OH244245   3.405   7.824   6.775
14767TIP3    H144246   3.440   7.760   6.713
14767TIP3    H244247   3.479   7.844   6.833
14768TIP3   OH244248   0.567   3.779   0.648
14768TIP3    H144249   0.595   3.832   0.573
14768TIP3    H244250   0.471   3.781   0.644
14769TIP3   OH244251   0.690   3.894   0.419
14769TIP3    H144252   0.750   3.822   0.398
14769TIP3    H244253   0.745   3.961   0.459
14770TIP3   OH244254   0.296   3.751   0.634
14770TIP3    H144255   0.248   3.725   0.556
14770TIP3    H244256   0.286   3.678   0.695
14771TIP3   OH244257   0.351   3.687   0.206
14771TIP3    H144258   0.273   3.740   0.219
14771TIP3    H244259   0.331   3.604   0.249
14772TIP3   OH244260   7.765   3.624   0.121
14772TIP3    H144261   7.784   3.546   0.070
14772TIP3    H244262   7.724   3.592   0.201
14773TIP3   OH244263   6.437   0.357   6.910
14773TIP3    H144264   6.429   0.452   6.921
14773TIP3    H244265   6.392   0.320   6.987
14774TIP3   OH244266   1.381   4.141   0.215
14774TIP3    H144267   1.298   4.188   0.205
14774TIP3    H244268   1.360   4.050   0.193
14775TIP3   OH244269   7.707   0.376   6.737
14775TIP3    H144270   7.761   0.385   6.816
14775TIP3    H244271   7.617   0.380   6.768
14776TIP3   OH244272   1.422   4.634   0.037
14776TIP3    H144273   1.506   4.588   0.031
14776TIP3    H244274   1.356   4.564   0.035
14777TIP3   OH244275   1.260   4.465   0.345
14777TIP3    H144276   1.286   4.518   0.420
14777TIP3    H244277   1.238   4.380   0.382
14778TIP3   OH244278   1.638   3.950   0.310
14778TIP3    H144279   1.711   3.894   0.337
14778TIP3    H244280   1.586   3.961   0.390
14779TIP3   OH244281   7.313   0.699   6.626
14779TIP3    H144282   7.225   0.735   6.621
14779TIP3    H244283   7.355   0.724   6.543
14780TIP3   OH244284   7.239   0.455   6.310
14780TIP3    H144285   7.293   0.515   6.361
14780TIP3    H244286   7.302   0.404   6.258
14781TIP3   OH244287   6.887   0.820   6.920
14781TIP3    H144288   6.822   0.761   6.958
14781TIP3    H244289   6.972   0.780   6.939
14782TIP3   OH244290   7.484   0.677   6.390
14782TIP3    H144291   7.491   0.772   6.379
14782TIP3    H244292   7.490   0.641   6.302
14783TIP3   OH244293   5.137   7.857   6.432
14783TIP3    H144294   5.052   7.855   6.477
14783TIP3    H244295   5.142   7.944   6.394
14784TIP3   OH244296   1.437   4.061   0.475
14784TIP3    H144297   1.416   4.061   0.381
14784TIP3    H244298   1.467   4.150   0.492
14785TIP3   OH244299   7.518   0.607   6.131
14785TIP3    H144300   7.494   0.572   6.045
14785TIP3    H244301   7.545   0.697   6.112
14786TIP3   OH244302   7.256   0.043   6.430
14786TIP3    H144303   7.216   0.051   6.517
14786TIP3    H244304   7.216  -0.034   6.391
14787TIP3   OH244305   1.283   4.387   0.030
14787TIP3    H144306   1.215   4.355   0.089
14787TIP3    H244307   1.251   4.366  -0.058
14788TIP3   OH244308   7.381   0.433   6.627
14788TIP3    H144309   7.356   0.525   6.620
14788TIP3    H244310   7.453   0.423   6.564
14789TIP3   OH244311   6.915   0.041   6.407
14789TIP3    H144312   6.905   0.036   6.502
14789TIP3    H244313   6.835   0.083   6.376
14790TIP3   OH244314   0.838   4.141   0.184
14790TIP3    H144315   0.817   4.177   0.270
14790TIP3    H244316   0.829   4.047   0.194
14791TIP3   OH244317   6.400   0.076   6.790
14791TIP3    H144318   6.394   0.022   6.711
14791TIP3    H244319   6.313   0.113   6.800
14792TIP3   OH244320   1.585   4.203   0.037
14792TIP3    H144321   1.504   4.186   0.085
14792TIP3    H244322   1.655   4.189   0.101
14793TIP3   OH244323   6.678   0.194   6.896
14793TIP3    H144324   6.654   0.218   6.986
14793TIP3    H244325   6.745   0.126   6.906
14794TIP3   OH244326   6.918   0.311   6.654
14794TIP3    H144327   7.008   0.316   6.686
14794TIP3    H244328   6.925   0.334   6.562
14795TIP3   OH244329   1.175   4.005   0.052
14795TIP3    H144330   1.128   3.932   0.092
14795TIP3    H244331   1.250   3.965   0.009
14796TIP3   OH244332   7.051   0.793   6.607
14796TIP3    H144333   6.980   0.733   6.583
14796TIP3    H244334   7.019   0.836   6.686
14797TIP3   OH244335   7.504   0.151   6.412
14797TIP3    H144336   7.411   0.128   6.415
14797TIP3    H244337   7.506   0.246   6.410
14798TIP3   OH244338   7.581   0.417   6.437
14798TIP3    H144339   7.675   0.399   6.430
14798TIP3    H244340   7.574   0.512   6.422
14799TIP3   OH244341   7.100   0.972   6.402
14799TIP3    H144342   7.150   1.046   6.437
14799TIP3    H244343   7.080   0.918   6.478
14800TIP3   OH244344   8.029   0.428   6.288
14800TIP3    H144345   7.951   0.412   6.235
14800TIP3    H244346   8.053   0.518   6.269
14801TIP3   OH244347   6.426   0.479   6.562
14801TIP3    H144348   6.479   0.553   6.590
14801TIP3    H244349   6.347   0.484   6.615
14802TIP3   OH244350   7.469   0.929   6.269
14802TIP3    H144351   7.521   0.920   6.190
14802TIP3    H244352   7.380   0.909   6.241
14803TIP3   OH244353   6.831   0.909   6.354
14803TIP3    H144354   6.783   0.894   6.273
14803TIP3    H244355   6.914   0.949   6.326
14804TIP3   OH244356   6.555   0.693   6.668
14804TIP3    H144357   6.582   0.741   6.747
14804TIP3    H244358   6.539   0.762   6.603
14805TIP3   OH244359   7.570   0.104   6.673
14805TIP3    H144360   7.545   0.120   6.582
14805TIP3    H244361   7.629   0.177   6.695
14806TIP3   OH244362   7.173   0.304   6.742
14806TIP3    H144363   7.249   0.349   6.704
14806TIP3    H244364   7.200   0.285   6.832
14807TIP3   OH244365   7.380  -0.011   6.833
14807TIP3    H144366   7.350   0.057   6.894
14807TIP3    H244367   7.450   0.032   6.782
14808TIP3   OH244368   6.878   0.033   6.679
14808TIP3    H144369   6.872   0.128   6.688
14808TIP3    H244370   6.971   0.014   6.690
14809TIP3   OH244371   6.497   0.872   6.461
14809TIP3    H144372   6.513   0.954   6.413
14809TIP3    H244373   6.543   0.805   6.411
14810TIP3   OH244374   6.545   0.240   6.598
14810TIP3    H144375   6.504   0.322   6.570
14810TIP3    H244376   6.586   0.206   6.519
14811TIP3   OH244377   1.068   3.910   0.471
14811TIP3    H144378   1.081   3.866   0.387
14811TIP3    H244379   1.145   3.887   0.523
14812TIP3   OH244380   6.647   0.669   6.350
14812TIP3    H144381   6.701   0.661   6.428
14812TIP3    H244382   6.708   0.665   6.277
14813TIP3   OH244383   7.221   0.884   6.173
14813TIP3    H144384   7.172   0.936   6.237
14813TIP3    H244385   7.179   0.798   6.176
14814TIP3   OH244386   6.853   0.615   6.534
14814TIP3    H144387   6.811   0.570   6.608
14814TIP3    H244388   6.895   0.544   6.484
14815TIP3   OH244389   6.972   0.412   6.389
14815TIP3    H144390   6.935   0.399   6.302
14815TIP3    H244391   7.065   0.431   6.373
14816TIP3   OH244392   7.837   0.757   6.023
14816TIP3    H144393   7.796   0.697   5.961
14816TIP3    H244394   7.908   0.798   5.972
14817TIP3   OH244395   6.218   0.827   6.457
14817TIP3    H144396   6.304   0.867   6.470
14817TIP3    H244397   6.238   0.737   6.431
14818TIP3   OH244398   8.055   0.674   6.171
14818TIP3    H144399   7.968   0.691   6.134
14818TIP3    H244400   8.099   0.759   6.168
14819TIP3   OH244401   7.809   0.401   6.127
14819TIP3    H144402   7.769   0.430   6.044
14819TIP3    H244403   7.795   0.307   6.128
14820TIP3   OH244404   7.766   0.135   6.126
14820TIP3    H144405   7.834   0.081   6.165
14820TIP3    H244406   7.686   0.083   6.133
14821TIP3   OH244407   7.866   0.354   6.511
14821TIP3    H144408   7.814   0.358   6.591
14821TIP3    H244409   7.911   0.439   6.506
14822TIP3   OH244410   7.928   0.095   6.611
14822TIP3    H144411   7.934   0.116   6.705
14822TIP3    H244412   7.866   0.022   6.607
14823TIP3   OH244413   0.956   4.109   0.615
14823TIP3    H144414   0.981   4.022   0.584
14823TIP3    H244415   1.030   4.165   0.592
14824TIP3   OH244416   8.017   0.090   6.292
14824TIP3    H144417   8.027   0.013   6.236
14824TIP3    H244418   8.086   0.150   6.263
14825TIP3   OH244419   0.760   3.889   0.048
14825TIP3    H144420   0.682   3.889   0.102
14825TIP3    H244421   0.760   3.976   0.007
14826TIP3   OH244422   1.796   4.119   0.173
14826TIP3    H144423   1.743   4.068   0.234
14826TIP3    H244424   1.873   4.064   0.157
14827TIP3   OH244425   1.059   3.802   0.193
14827TIP3    H144426   0.973   3.784   0.230
14827TIP3    H244427   1.094   3.716   0.169
14828TIP3   OH244428   3.744   7.717   6.840
14828TIP3    H144429   3.775   7.770   6.766
14828TIP3    H244430   3.704   7.781   6.899
14829TIP3   OH244431   1.496   3.906   0.067
14829TIP3    H144432   1.564   3.886   0.003
14829TIP3    H244433   1.543   3.919   0.149
14830TIP3   OH244434   7.816   0.055   6.868
14830TIP3    H144435   7.875   0.061   6.942
14830TIP3    H244436   7.770  -0.028   6.880
14831TIP3   OH244437   4.908   7.916   6.586
14831TIP3    H144438   4.836   7.971   6.616
14831TIP3    H244439   4.895   7.832   6.630
14832TIP3   OH244440   3.847   7.863   6.617
14832TIP3    H144441   3.894   7.801   6.562
14832TIP3    H244442   3.914   7.925   6.646
14833TIP3   OH244443   7.150   0.039   6.685
14833TIP3    H144444   7.218  -0.005   6.736
14833TIP3    H244445   7.159   0.131   6.707
14834TIP3   OH244446   0.220   0.317   5.873
14834TIP3    H144447   0.221   0.339   5.966
14834TIP3    H244448   0.136   0.349   5.841
14835TIP3   OH244449   8.224   0.246   6.213
14835TIP3    H144450   8.259   0.275   6.129
14835TIP3    H244451   8.177   0.323   6.247
14836TIP3   OH244452   8.207   0.469   6.027
14836TIP3    H144453   8.278   0.529   6.048
14836TIP3    H244454   8.128   0.512   6.062
14837TIP3   OH244455   8.172   0.206   6.516
14837TIP3    H144456   8.201   0.133   6.571
14837TIP3    H244457   8.233   0.277   6.534
14838TIP3   OH244458   8.316  -0.023   6.288
14838TIP3    H144459   8.370  -0.011   6.210
14838TIP3    H244460   8.281   0.064   6.307
14839TIP3   OH244461  -0.021   0.084   6.080
14839TIP3    H144462   0.014   0.019   6.019
14839TIP3    H244463   0.056   0.117   6.126
   8.50000   8.01388   6.94022   0.00000   0.00000  -2.83333   0.00000  -2.83333  -4.00694
