Title t= 138.00000 step= 69000
19942
    1ASP      N    1   1.240   1.537   3.559
    1ASP    HT1    2   1.291   1.447   3.565
    1ASP    HT2    3   1.318   1.598   3.592
    1ASP    HT3    4   1.221   1.553   3.458
    1ASP     CA    5   1.127   1.521   3.645
    1ASP     HA    6   1.168   1.482   3.737
    1ASP     CB    7   1.067   1.659   3.687
    1ASP    HB1    8   1.011   1.706   3.603
    1ASP    HB2    9   1.153   1.720   3.721
    1ASP     CG   10   0.968   1.648   3.802
    1ASP    OD1   11   0.894   1.748   3.838
    1ASP    OD2   12   0.961   1.536   3.858
    1ASP      C   13   1.022   1.421   3.583
    1ASP      O   14   1.034   1.300   3.599
    2ALA      N   15   0.924   1.474   3.516
    2ALA     HN   16   0.898   1.569   3.528
    2ALA     CA   17   0.829   1.395   3.438
    2ALA     HA   18   0.875   1.304   3.403
    2ALA     CB   19   0.707   1.353   3.521
    2ALA    HB1   20   0.637   1.285   3.468
    2ALA    HB2   21   0.658   1.448   3.551
    2ALA    HB3   22   0.726   1.303   3.619
    2ALA      C   23   0.780   1.473   3.316
    2ALA      O   24   0.775   1.597   3.323
    3ASP      N   25   0.743   1.403   3.211
    3ASP     HN   26   0.740   1.303   3.216
    3ASP     CA   27   0.699   1.465   3.093
    3ASP     HA   28   0.653   1.560   3.116
    3ASP     CB   29   0.812   1.490   2.982
    3ASP    HB1   30   0.766   1.517   2.885
    3ASP    HB2   31   0.879   1.402   2.972
    3ASP     CG   32   0.885   1.612   3.039
    3ASP    OD1   33   0.997   1.590   3.094
    3ASP    OD2   34   0.832   1.729   3.031
    3ASP      C   35   0.599   1.377   3.026
    3ASP      O   36   0.585   1.259   3.060
    4GLY      N   37   0.515   1.427   2.935
    4GLY     HN   38   0.513   1.524   2.911
    4GLY     CA   39   0.409   1.344   2.879
    4GLY    HA1   40   0.323   1.406   2.859
    4GLY    HA2   41   0.387   1.259   2.941
    4GLY      C   42   0.446   1.301   2.736
    4GLY      O   43   0.518   1.376   2.668
    5PRO      N   44   0.392   1.192   2.687
    5PRO     CD   45   0.282   1.111   2.754
    5PRO    HD1   46   0.197   1.180   2.775
    5PRO    HD2   47   0.330   1.073   2.847
    5PRO     CA   48   0.426   1.131   2.556
    5PRO     HA   49   0.499   1.052   2.571
    5PRO     CB   50   0.298   1.041   2.526
    5PRO    HB1   51   0.329   0.966   2.450
    5PRO    HB2   52   0.221   1.103   2.475
    5PRO     CG   53   0.241   1.002   2.656
    5PRO    HG1   54   0.131   0.987   2.658
    5PRO    HG2   55   0.290   0.905   2.682
    5PRO      C   56   0.455   1.208   2.426
    5PRO      O   57   0.366   1.286   2.378
    6GLY      N   58   0.571   1.182   2.365
    6GLY     HN   59   0.638   1.123   2.410
    6GLY     CA   60   0.595   1.232   2.227
    6GLY    HA1   61   0.698   1.206   2.207
    6GLY    HA2   62   0.571   1.338   2.226
    6GLY      C   63   0.524   1.163   2.109
    6GLY      O   64   0.437   1.077   2.134
    7ASP      N   65   0.550   1.196   1.986
    7ASP     HN   66   0.617   1.267   1.964
    7ASP     CA   67   0.507   1.117   1.877
    7ASP     HA   68   0.400   1.110   1.870
    7ASP     CB   69   0.561   1.176   1.742
    7ASP    HB1   70   0.671   1.182   1.751
    7ASP    HB2   71   0.523   1.277   1.718
    7ASP     CG   72   0.510   1.096   1.618
    7ASP    OD1   73   0.574   1.110   1.505
    7ASP    OD2   74   0.399   1.042   1.624
    7ASP      C   75   0.577   0.977   1.897
    7ASP      O   76   0.701   0.969   1.918
    8PRO      N   77   0.509   0.869   1.886
    8PRO     CD   78   0.361   0.856   1.880
    8PRO    HD1   79   0.325   0.939   1.815
    8PRO    HD2   80   0.325   0.857   1.986
    8PRO     CA   81   0.568   0.732   1.896
    8PRO     HA   82   0.592   0.710   1.998
    8PRO     CB   83   0.454   0.637   1.858
    8PRO    HB1   84   0.441   0.594   1.960
    8PRO    HB2   85   0.485   0.554   1.792
    8PRO     CG   86   0.338   0.725   1.809
    8PRO    HG1   87   0.350   0.726   1.699
    8PRO    HG2   88   0.241   0.678   1.838
    8PRO      C   89   0.686   0.702   1.805
    8PRO      O   90   0.748   0.596   1.831
    9ASP      N   91   0.716   0.780   1.704
    9ASP     HN   92   0.654   0.853   1.675
    9ASP     CA   93   0.846   0.777   1.643
    9ASP     HA   94   0.851   0.679   1.598
    9ASP     CB   95   0.852   0.900   1.538
    9ASP    HB1   96   0.951   0.918   1.491
    9ASP    HB2   97   0.798   0.985   1.586
    9ASP     CG   98   0.763   0.871   1.423
    9ASP    OD1   99   0.756   0.966   1.339
    9ASP    OD2  100   0.682   0.776   1.419
    9ASP      C  101   0.965   0.794   1.737
    9ASP      O  102   1.069   0.731   1.721
   10ALA      N  103   0.951   0.884   1.839
   10ALA     HN  104   0.858   0.920   1.846
   10ALA     CA  105   1.058   0.933   1.931
   10ALA     HA  106   1.140   0.973   1.873
   10ALA     CB  107   1.001   1.049   2.014
   10ALA    HB1  108   1.076   1.084   2.088
   10ALA    HB2  109   0.913   1.015   2.073
   10ALA    HB3  110   0.974   1.137   1.951
   10ALA      C  111   1.101   0.824   2.018
   10ALA      O  112   1.028   0.730   2.041
   11GLY      N  113   1.233   0.823   2.051
   11GLY     HN  114   1.290   0.896   2.015
   11GLY     CA  115   1.293   0.720   2.135
   11GLY    HA1  116   1.395   0.707   2.104
   11GLY    HA2  117   1.230   0.632   2.130
   11GLY      C  118   1.301   0.758   2.284
   11GLY    OT1  119   1.368   0.862   2.314
   11GLY    OT2  120   1.235   0.696   2.374
   12LIT    LIT  121   4.167   4.274   3.396
   13LIT    LIT  122   0.920   2.938   2.267
   14LIT    LIT  123   0.787   5.494   3.894
   15LIT    LIT  124   1.600   2.147   0.209
   16LIT    LIT  125   4.183   5.953   3.452
   17LIT    LIT  126   3.392   4.743   3.983
   18LIT    LIT  127   0.104   5.818   2.874
   19LIT    LIT  128   0.618   1.090   1.326
   20LIT    LIT  129   2.155   2.509   5.041
   21LIT    LIT  130   1.220   5.849   2.927
   22LIT    LIT  131   3.655   3.058   1.314
   23LIT    LIT  132   1.372   1.743   2.206
   24LIT    LIT  133   2.446   5.591   4.682
   25LIT    LIT  134   2.815   5.962   0.480
   26LIT    LIT  135   2.860   1.821   4.954
   27LIT    LIT  136   6.249   0.418   2.454
   28LIT    LIT  137   1.231   1.827   4.266
   29LIT    LIT  138   3.113   3.547   3.042
   30LIT    LIT  139   1.594   2.298   1.641
   31LIT    LIT  140   4.565   2.683   3.590
   32LIT    LIT  141   2.530   5.338   1.457
   33LIT    LIT  142   5.112   0.946   2.241
   34CLA    CLA  143   4.740   1.474   2.879
   35CLA    CLA  144   4.391   5.918   4.295
   36CLA    CLA  145   5.533   3.764   0.159
   37CLA    CLA  146   6.149   5.609   3.754
   38CLA    CLA  147   4.932   5.083   0.700
   39CLA    CLA  148   3.990   4.690   3.250
   40CLA    CLA  149   2.952   2.896   0.449
   41CLA    CLA  150   1.753   2.903   0.945
   42CLA    CLA  151   4.162   3.089   1.810
   43CLA    CLA  152   1.690   3.642   1.765
   44CLA    CLA  153   5.236   3.400   5.074
   45CLA    CLA  154   2.827   0.434   3.694
   46CLA    CLA  155   5.134   4.705   3.202
   47CLA    CLA  156   2.732   1.677   5.103
   48CLA    CLA  157   3.171   4.636   5.004
   49CLA    CLA  158   6.039   4.410   1.687
   50CLA    CLA  159   2.151   2.616   1.871
   51CLA    CLA  160   1.085   5.855   0.857
   52TIP3   OH2  161   5.664   2.203   2.160
   52TIP3    H1  162   5.576   2.232   2.182
   52TIP3    H2  163   5.712   2.209   2.243
   53TIP3   OH2  164   5.454   1.182   2.211
   53TIP3    H1  165   5.510   1.232   2.151
   53TIP3    H2  166   5.414   1.115   2.155
   54TIP3   OH2  167   5.810   1.485   2.650
   54TIP3    H1  168   5.725   1.446   2.631
   54TIP3    H2  169   5.795   1.540   2.727
   55TIP3   OH2  170   3.054   4.644   1.905
   55TIP3    H1  171   3.054   4.681   1.993
   55TIP3    H2  172   3.028   4.717   1.849
   56TIP3   OH2  173   3.076   1.954   2.124
   56TIP3    H1  174   3.016   1.895   2.077
   56TIP3    H2  175   3.025   1.984   2.200
   57TIP3   OH2  176   5.119   3.841   3.472
   57TIP3    H1  177   5.115   3.926   3.515
   57TIP3    H2  178   5.085   3.857   3.384
   58TIP3   OH2  179   0.501   2.844   0.892
   58TIP3    H1  180   0.434   2.908   0.871
   58TIP3    H2  181   0.556   2.887   0.957
   59TIP3   OH2  182   3.542   2.404   2.913
   59TIP3    H1  183   3.600   2.471   2.947
   59TIP3    H2  184   3.595   2.358   2.847
   60TIP3   OH2  185   2.380   5.109   4.700
   60TIP3    H1  186   2.367   5.032   4.755
   60TIP3    H2  187   2.342   5.085   4.615
   61TIP3   OH2  188   5.237   2.580   1.756
   61TIP3    H1  189   5.165   2.553   1.812
   61TIP3    H2  190   5.214   2.550   1.669
   62TIP3   OH2  191   4.300   5.216   3.240
   62TIP3    H1  192   4.247   5.138   3.226
   62TIP3    H2  193   4.332   5.240   3.153
   63TIP3   OH2  194   2.569   1.721   2.450
   63TIP3    H1  195   2.489   1.697   2.497
   63TIP3    H2  196   2.595   1.804   2.488
   64TIP3   OH2  197   2.632   4.970   1.509
   64TIP3    H1  198   2.559   4.944   1.565
   64TIP3    H2  199   2.694   5.012   1.569
   65TIP3   OH2  200   2.800   0.220   1.317
   65TIP3    H1  201   2.803   0.140   1.368
   65TIP3    H2  202   2.892   0.244   1.305
   66TIP3   OH2  203   0.945   3.232   4.000
   66TIP3    H1  204   0.903   3.316   3.983
   66TIP3    H2  205   0.894   3.194   4.071
   67TIP3   OH2  206   4.104   0.629   0.306
   67TIP3    H1  207   4.176   0.691   0.300
   67TIP3    H2  208   4.047   0.663   0.375
   68TIP3   OH2  209   1.177   0.313   0.600
   68TIP3    H1  210   1.216   0.258   0.532
   68TIP3    H2  211   1.171   0.400   0.561
   69TIP3   OH2  212   4.374   3.263   0.753
   69TIP3    H1  213   4.467   3.254   0.733
   69TIP3    H2  214   4.371   3.307   0.838
   70TIP3   OH2  215   5.570   1.652   4.620
   70TIP3    H1  216   5.641   1.608   4.575
   70TIP3    H2  217   5.542   1.721   4.561
   71TIP3   OH2  218   4.087   4.828   0.814
   71TIP3    H1  219   4.032   4.873   0.750
   71TIP3    H2  220   4.031   4.759   0.850
   72TIP3   OH2  221   5.877   5.675   0.761
   72TIP3    H1  222   5.919   5.607   0.708
   72TIP3    H2  223   5.946   5.705   0.820
   73TIP3   OH2  224   2.258   0.440   2.684
   73TIP3    H1  225   2.258   0.436   2.588
   73TIP3    H2  226   2.313   0.515   2.705
   74TIP3   OH2  227   3.988   2.050   3.626
   74TIP3    H1  228   4.033   1.987   3.681
   74TIP3    H2  229   3.899   2.054   3.660
   75TIP3   OH2  230   5.815   2.146   1.549
   75TIP3    H1  231   5.738   2.187   1.591
   75TIP3    H2  232   5.884   2.211   1.559
   76TIP3   OH2  233   4.092   3.917   1.684
   76TIP3    H1  234   4.076   3.834   1.641
   76TIP3    H2  235   4.175   3.905   1.729
   77TIP3   OH2  236   1.009   1.950   3.913
   77TIP3    H1  237   0.960   1.871   3.891
   77TIP3    H2  238   1.018   1.997   3.830
   78TIP3   OH2  239   1.574   2.833   3.965
   78TIP3    H1  240   1.511   2.897   3.998
   78TIP3    H2  241   1.646   2.835   4.028
   79TIP3   OH2  242   4.670   5.479   1.463
   79TIP3    H1  243   4.642   5.423   1.535
   79TIP3    H2  244   4.627   5.563   1.480
   80TIP3   OH2  245   0.276   1.201   5.086
   80TIP3    H1  246   0.230   1.283   5.068
   80TIP3    H2  247   0.355   1.228   5.133
   81TIP3   OH2  248   1.203   3.115   3.258
   81TIP3    H1  249   1.160   3.134   3.341
   81TIP3    H2  250   1.233   3.024   3.267
   82TIP3   OH2  251   5.497   5.459   4.063
   82TIP3    H1  252   5.582   5.453   4.021
   82TIP3    H2  253   5.447   5.385   4.028
   83TIP3   OH2  254   0.487   1.574   3.652
   83TIP3    H1  255   0.451   1.568   3.564
   83TIP3    H2  256   0.423   1.530   3.708
   84TIP3   OH2  257   3.590   5.592   5.003
   84TIP3    H1  258   3.521   5.600   5.068
   84TIP3    H2  259   3.671   5.587   5.053
   85TIP3   OH2  260   0.164   0.352   3.804
   85TIP3    H1  261   0.095   0.286   3.808
   85TIP3    H2  262   0.147   0.410   3.878
   86TIP3   OH2  263   4.696   1.746   1.939
   86TIP3    H1  264   4.720   1.822   1.886
   86TIP3    H2  265   4.768   1.739   2.002
   87TIP3   OH2  266   4.009   5.298   2.802
   87TIP3    H1  267   4.082   5.302   2.741
   87TIP3    H2  268   4.045   5.330   2.885
   88TIP3   OH2  269   4.917   2.149   2.291
   88TIP3    H1  270   4.851   2.160   2.359
   88TIP3    H2  271   4.979   2.221   2.307
   89TIP3   OH2  272   3.911   3.288   4.575
   89TIP3    H1  273   3.870   3.297   4.661
   89TIP3    H2  274   3.965   3.209   4.582
   90TIP3   OH2  275   4.106   3.326   0.753
   90TIP3    H1  276   4.183   3.270   0.757
   90TIP3    H2  277   4.087   3.334   0.659
   91TIP3   OH2  278   5.875   0.148   4.529
   91TIP3    H1  279   5.791   0.168   4.570
   91TIP3    H2  280   5.891   0.057   4.552
   92TIP3   OH2  281   5.712   1.886   0.334
   92TIP3    H1  282   5.738   1.928   0.252
   92TIP3    H2  283   5.679   1.957   0.388
   93TIP3   OH2  284   3.534   5.666   0.900
   93TIP3    H1  285   3.582   5.653   0.981
   93TIP3    H2  286   3.489   5.583   0.885
   94TIP3   OH2  287   4.765   4.064   3.150
   94TIP3    H1  288   4.834   4.081   3.214
   94TIP3    H2  289   4.758   4.146   3.101
   95TIP3   OH2  290   4.024   0.907   2.712
   95TIP3    H1  291   4.073   0.972   2.763
   95TIP3    H2  292   4.055   0.823   2.744
   96TIP3   OH2  293   1.666   4.754   0.269
   96TIP3    H1  294   1.727   4.825   0.248
   96TIP3    H2  295   1.722   4.682   0.298
   97TIP3   OH2  296   5.912   0.178   0.219
   97TIP3    H1  297   6.002   0.145   0.222
   97TIP3    H2  298   5.884   0.181   0.310
   98TIP3   OH2  299   4.778   4.494   0.335
   98TIP3    H1  300   4.820   4.424   0.385
   98TIP3    H2  301   4.786   4.466   0.244
   99TIP3   OH2  302   1.029   1.243   3.163
   99TIP3    H1  303   1.015   1.335   3.140
   99TIP3    H2  304   0.965   1.195   3.110
  100TIP3   OH2  305   4.473   1.992   3.887
  100TIP3    H1  306   4.551   1.980   3.832
  100TIP3    H2  307   4.492   1.942   3.966
  101TIP3   OH2  308   6.238   5.462   1.495
  101TIP3    H1  309   6.192   5.545   1.503
  101TIP3    H2  310   6.292   5.472   1.416
  102TIP3   OH2  311   2.660   2.940   3.993
  102TIP3    H1  312   2.640   2.983   3.910
  102TIP3    H2  313   2.574   2.923   4.032
  103TIP3   OH2  314   1.719   1.477   1.816
  103TIP3    H1  315   1.811   1.486   1.792
  103TIP3    H2  316   1.685   1.566   1.817
  104TIP3   OH2  317   6.373   1.839   2.392
  104TIP3    H1  318   6.341   1.752   2.413
  104TIP3    H2  319   6.372   1.843   2.296
  105TIP3   OH2  320   1.156   2.323   0.769
  105TIP3    H1  321   1.067   2.300   0.741
  105TIP3    H2  322   1.180   2.398   0.714
  106TIP3   OH2  323   5.018   0.961   4.687
  106TIP3    H1  324   5.020   0.866   4.681
  106TIP3    H2  325   5.035   0.992   4.598
  107TIP3   OH2  326   4.799   1.619   4.083
  107TIP3    H1  327   4.854   1.680   4.133
  107TIP3    H2  328   4.837   1.533   4.101
  108TIP3   OH2  329   0.815   5.824   4.332
  108TIP3    H1  330   0.834   5.764   4.260
  108TIP3    H2  331   0.837   5.774   4.411
  109TIP3   OH2  332   2.265   0.210   0.091
  109TIP3    H1  333   2.214   0.143   0.134
  109TIP3    H2  334   2.351   0.169   0.076
  110TIP3   OH2  335   4.870   5.865   2.292
  110TIP3    H1  336   4.917   5.799   2.241
  110TIP3    H2  337   4.816   5.912   2.229
  111TIP3   OH2  338   3.894   0.282   4.463
  111TIP3    H1  339   3.799   0.283   4.450
  111TIP3    H2  340   3.907   0.326   4.547
  112TIP3   OH2  341   4.368   3.708   2.498
  112TIP3    H1  342   4.430   3.778   2.477
  112TIP3    H2  343   4.296   3.719   2.436
  113TIP3   OH2  344   2.410   0.013   3.118
  113TIP3    H1  345   2.368  -0.073   3.117
  113TIP3    H2  346   2.383   0.054   3.036
  114TIP3   OH2  347   0.783   2.823   1.992
  114TIP3    H1  348   0.776   2.810   1.897
  114TIP3    H2  349   0.744   2.909   2.007
  115TIP3   OH2  350   5.097   1.977   3.503
  115TIP3    H1  351   5.125   2.039   3.570
  115TIP3    H2  352   5.014   1.942   3.535
  116TIP3   OH2  353   3.687   2.489   4.591
  116TIP3    H1  354   3.749   2.515   4.659
  116TIP3    H2  355   3.729   2.414   4.548
  117TIP3   OH2  356   3.891   4.530   3.483
  117TIP3    H1  357   3.926   4.587   3.552
  117TIP3    H2  358   3.902   4.582   3.403
  118TIP3   OH2  359   4.109   5.000   3.239
  118TIP3    H1  360   4.084   4.909   3.228
  118TIP3    H2  361   4.064   5.028   3.319
  119TIP3   OH2  362   5.756   5.028   0.676
  119TIP3    H1  363   5.828   5.066   0.727
  119TIP3    H2  364   5.699   5.103   0.657
  120TIP3   OH2  365   0.459   3.192   0.555
  120TIP3    H1  366   0.459   3.128   0.626
  120TIP3    H2  367   0.548   3.227   0.555
  121TIP3   OH2  368   0.522   0.267   4.026
  121TIP3    H1  369   0.443   0.263   4.080
  121TIP3    H2  370   0.593   0.250   4.087
  122TIP3   OH2  371   5.498   4.406   3.027
  122TIP3    H1  372   5.582   4.378   2.991
  122TIP3    H2  373   5.508   4.499   3.044
  123TIP3   OH2  374   0.325   0.304   0.743
  123TIP3    H1  375   0.374   0.300   0.661
  123TIP3    H2  376   0.386   0.341   0.806
  124TIP3   OH2  377   5.091   2.190   3.661
  124TIP3    H1  378   5.160   2.229   3.607
  124TIP3    H2  379   5.121   2.201   3.751
  125TIP3   OH2  380   2.751   5.029   0.791
  125TIP3    H1  381   2.658   5.008   0.780
  125TIP3    H2  382   2.774   4.993   0.877
  126TIP3   OH2  383   1.528   5.072   1.362
  126TIP3    H1  384   1.496   5.064   1.272
  126TIP3    H2  385   1.594   5.004   1.370
  127TIP3   OH2  386   0.430   4.897   4.320
  127TIP3    H1  387   0.395   4.979   4.285
  127TIP3    H2  388   0.426   4.836   4.247
  128TIP3   OH2  389   5.006   4.205   0.167
  128TIP3    H1  390   5.068   4.277   0.156
  128TIP3    H2  391   4.921   4.244   0.148
  129TIP3   OH2  392   3.800   0.923   4.597
  129TIP3    H1  393   3.757   1.009   4.590
  129TIP3    H2  394   3.797   0.902   4.690
  130TIP3   OH2  395   2.965   0.652   4.212
  130TIP3    H1  396   2.951   0.745   4.233
  130TIP3    H2  397   3.023   0.653   4.137
  131TIP3   OH2  398   3.265   0.183   1.267
  131TIP3    H1  399   3.295   0.242   1.198
  131TIP3    H2  400   3.344   0.140   1.298
  132TIP3   OH2  401   2.243   1.142   2.133
  132TIP3    H1  402   2.257   1.048   2.120
  132TIP3    H2  403   2.179   1.166   2.066
  133TIP3   OH2  404   4.533   1.121   3.960
  133TIP3    H1  405   4.561   1.199   4.007
  133TIP3    H2  406   4.442   1.109   3.986
  134TIP3   OH2  407   4.462   2.239   0.459
  134TIP3    H1  408   4.527   2.221   0.392
  134TIP3    H2  409   4.390   2.282   0.413
  135TIP3   OH2  410   2.469   1.931   2.596
  135TIP3    H1  411   2.501   1.935   2.686
  135TIP3    H2  412   2.378   1.902   2.604
  136TIP3   OH2  413   6.179   2.144   4.918
  136TIP3    H1  414   6.184   2.087   4.842
  136TIP3    H2  415   6.169   2.232   4.882
  137TIP3   OH2  416   0.815   4.049   2.257
  137TIP3    H1  417   0.813   3.957   2.232
  137TIP3    H2  418   0.898   4.081   2.222
  138TIP3   OH2  419   3.348   3.881   3.846
  138TIP3    H1  420   3.333   3.910   3.937
  138TIP3    H2  421   3.286   3.932   3.795
  139TIP3   OH2  422   3.304   0.058   3.487
  139TIP3    H1  423   3.377   0.105   3.527
  139TIP3    H2  424   3.228   0.081   3.540
  140TIP3   OH2  425   5.505   2.482   0.158
  140TIP3    H1  426   5.573   2.417   0.176
  140TIP3    H2  427   5.546   2.544   0.097
  141TIP3   OH2  428   5.632   2.091   3.350
  141TIP3    H1  429   5.566   2.033   3.390
  141TIP3    H2  430   5.714   2.068   3.393
  142TIP3   OH2  431   3.980   2.110   2.933
  142TIP3    H1  432   4.069   2.087   2.959
  142TIP3    H2  433   3.969   2.200   2.962
  143TIP3   OH2  434   0.070   1.470   2.833
  143TIP3    H1  435   0.019   1.480   2.914
  143TIP3    H2  436   0.101   1.558   2.813
  144TIP3   OH2  437   4.131   4.373   3.573
  144TIP3    H1  438   4.180   4.408   3.647
  144TIP3    H2  439   4.047   4.417   3.576
  145TIP3   OH2  440   5.835   4.533   2.838
  145TIP3    H1  441   5.827   4.446   2.878
  145TIP3    H2  442   5.872   4.516   2.752
  146TIP3   OH2  443   2.757   1.596   1.897
  146TIP3    H1  444   2.729   1.550   1.818
  146TIP3    H2  445   2.746   1.532   1.968
  147TIP3   OH2  446   0.241   3.739   1.661
  147TIP3    H1  447   0.164   3.684   1.648
  147TIP3    H2  448   0.306   3.703   1.602
  148TIP3   OH2  449   6.071   2.618   2.498
  148TIP3    H1  450   6.116   2.552   2.551
  148TIP3    H2  451   6.119   2.620   2.416
  149TIP3   OH2  452   0.617   0.393   3.415
  149TIP3    H1  453   0.658   0.396   3.329
  149TIP3    H2  454   0.575   0.307   3.419
  150TIP3   OH2  455   6.352   0.326   4.474
  150TIP3    H1  456   6.358   0.272   4.553
  150TIP3    H2  457   6.275   0.292   4.428
  151TIP3   OH2  458   4.951   1.036   2.594
  151TIP3    H1  459   5.010   1.110   2.581
  151TIP3    H2  460   4.870   1.075   2.624
  152TIP3   OH2  461   1.361   0.996   0.370
  152TIP3    H1  462   1.385   1.010   0.278
  152TIP3    H2  463   1.301   1.068   0.390
  153TIP3   OH2  464   1.200   4.343   3.574
  153TIP3    H1  465   1.146   4.421   3.583
  153TIP3    H2  466   1.256   4.344   3.651
  154TIP3   OH2  467   4.125   4.077   0.683
  154TIP3    H1  468   4.207   4.030   0.700
  154TIP3    H2  469   4.148   4.169   0.695
  155TIP3   OH2  470   2.685   2.775   0.626
  155TIP3    H1  471   2.690   2.744   0.535
  155TIP3    H2  472   2.624   2.849   0.623
  156TIP3   OH2  473   3.927   0.878   4.068
  156TIP3    H1  474   3.887   0.932   4.137
  156TIP3    H2  475   3.879   0.902   3.989
  157TIP3   OH2  476   5.204   0.385   0.445
  157TIP3    H1  477   5.238   0.379   0.355
  157TIP3    H2  478   5.170   0.474   0.452
  158TIP3   OH2  479   4.443   1.997   2.359
  158TIP3    H1  480   4.370   2.053   2.332
  158TIP3    H2  481   4.401   1.929   2.412
  159TIP3   OH2  482   2.375   5.593   1.111
  159TIP3    H1  483   2.383   5.504   1.145
  159TIP3    H2  484   2.371   5.583   1.016
  160TIP3   OH2  485   5.642   2.012   1.022
  160TIP3    H1  486   5.680   2.076   1.082
  160TIP3    H2  487   5.548   2.033   1.022
  161TIP3   OH2  488   6.296   0.718   0.773
  161TIP3    H1  489   6.339   0.635   0.754
  161TIP3    H2  490   6.265   0.709   0.864
  162TIP3   OH2  491   1.636   0.989   2.032
  162TIP3    H1  492   1.670   0.915   1.982
  162TIP3    H2  493   1.713   1.043   2.052
  163TIP3   OH2  494   3.194   0.470   3.136
  163TIP3    H1  495   3.129   0.420   3.085
  163TIP3    H2  496   3.149   0.552   3.158
  164TIP3   OH2  497   5.378   1.980   0.924
  164TIP3    H1  498   5.284   1.963   0.933
  164TIP3    H2  499   5.392   1.987   0.829
  165TIP3   OH2  500   3.250   1.783   1.593
  165TIP3    H1  501   3.262   1.736   1.510
  165TIP3    H2  502   3.236   1.714   1.658
  166TIP3   OH2  503   2.702   5.801   0.881
  166TIP3    H1  504   2.712   5.770   0.971
  166TIP3    H2  505   2.645   5.877   0.887
  167TIP3   OH2  506   5.919   0.972   2.986
  167TIP3    H1  507   5.876   0.944   3.067
  167TIP3    H2  508   5.854   0.957   2.918
  168TIP3   OH2  509   1.194   0.217   0.853
  168TIP3    H1  510   1.281   0.177   0.854
  168TIP3    H2  511   1.184   0.250   0.764
  169TIP3   OH2  512   5.638   0.603   3.328
  169TIP3    H1  513   5.576   0.603   3.254
  169TIP3    H2  514   5.699   0.533   3.308
  170TIP3   OH2  515   5.857   1.781   2.114
  170TIP3    H1  516   5.857   1.826   2.029
  170TIP3    H2  517   5.926   1.714   2.105
  171TIP3   OH2  518   2.119   1.034   4.865
  171TIP3    H1  519   2.207   1.066   4.846
  171TIP3    H2  520   2.116   1.026   4.960
  172TIP3   OH2  521   5.364   3.691   5.063
  172TIP3    H1  522   5.308   3.614   5.065
  172TIP3    H2  523   5.319   3.756   5.117
  173TIP3   OH2  524   1.362   3.535   4.407
  173TIP3    H1  525   1.328   3.446   4.406
  173TIP3    H2  526   1.370   3.556   4.501
  174TIP3   OH2  527   6.156   1.077   5.135
  174TIP3    H1  528   6.202   1.097   5.053
  174TIP3    H2  529   6.144   0.982   5.133
  175TIP3   OH2  530   0.008   4.503   1.315
  175TIP3    H1  531   0.091   4.478   1.274
  175TIP3    H2  532   0.004   4.598   1.305
  176TIP3   OH2  533   6.168   5.444   3.480
  176TIP3    H1  534   6.227   5.481   3.414
  176TIP3    H2  535   6.182   5.499   3.557
  177TIP3   OH2  536   6.377   0.172   2.896
  177TIP3    H1  537   6.445   0.129   2.845
  177TIP3    H2  538   6.307   0.107   2.901
  178TIP3   OH2  539   2.431   1.521   4.258
  178TIP3    H1  540   2.360   1.522   4.194
  178TIP3    H2  541   2.424   1.436   4.300
  179TIP3   OH2  542   1.494   5.903   1.149
  179TIP3    H1  543   1.569   5.880   1.094
  179TIP3    H2  544   1.419   5.865   1.104
  180TIP3   OH2  545   0.086   4.717   0.169
  180TIP3    H1  546   0.034   4.748   0.243
  180TIP3    H2  547   0.086   4.790   0.107
  181TIP3   OH2  548   6.016   4.178   4.678
  181TIP3    H1  549   6.084   4.238   4.706
  181TIP3    H2  550   6.037   4.096   4.723
  182TIP3   OH2  551   5.067   0.070   1.665
  182TIP3    H1  552   5.119   0.071   1.585
  182TIP3    H2  553   5.028  -0.017   1.667
  183TIP3   OH2  554   3.559   2.560   0.615
  183TIP3    H1  555   3.498   2.633   0.630
  183TIP3    H2  556   3.569   2.557   0.520
  184TIP3   OH2  557   6.306   2.061   0.351
  184TIP3    H1  558   6.344   2.060   0.438
  184TIP3    H2  559   6.218   2.024   0.362
  185TIP3   OH2  560   1.538   3.362   1.770
  185TIP3    H1  561   1.587   3.444   1.778
  185TIP3    H2  562   1.577   3.305   1.837
  186TIP3   OH2  563   1.526   5.157   3.785
  186TIP3    H1  564   1.576   5.225   3.740
  186TIP3    H2  565   1.446   5.147   3.733
  187TIP3   OH2  566   3.411   5.746   4.310
  187TIP3    H1  567   3.322   5.726   4.282
  187TIP3    H2  568   3.407   5.837   4.340
  188TIP3   OH2  569   0.764   1.962   2.102
  188TIP3    H1  570   0.688   2.015   2.128
  188TIP3    H2  571   0.832   2.026   2.080
  189TIP3   OH2  572   2.347   5.190   0.833
  189TIP3    H1  573   2.359   5.232   0.748
  189TIP3    H2  574   2.252   5.189   0.845
  190TIP3   OH2  575   2.570   1.270   2.619
  190TIP3    H1  576   2.614   1.344   2.579
  190TIP3    H2  577   2.477   1.289   2.608
  191TIP3   OH2  578   5.828   2.222   3.622
  191TIP3    H1  579   5.888   2.159   3.583
  191TIP3    H2  580   5.872   2.307   3.614
  192TIP3   OH2  581   1.495   4.188   0.447
  192TIP3    H1  582   1.521   4.272   0.408
  192TIP3    H2  583   1.416   4.162   0.400
  193TIP3   OH2  584   5.446   2.976   2.102
  193TIP3    H1  585   5.446   3.067   2.074
  193TIP3    H2  586   5.453   2.980   2.198
  194TIP3   OH2  587   4.942   1.843   0.096
  194TIP3    H1  588   4.877   1.825   0.164
  194TIP3    H2  589   4.892   1.845   0.015
  195TIP3   OH2  590   4.528   0.562   0.963
  195TIP3    H1  591   4.549   0.595   0.875
  195TIP3    H2  592   4.606   0.512   0.988
  196TIP3   OH2  593   5.312   4.239   5.089
  196TIP3    H1  594   5.404   4.217   5.076
  196TIP3    H2  595   5.311   4.332   5.110
  197TIP3   OH2  596   3.598   1.771   4.112
  197TIP3    H1  597   3.641   1.765   4.197
  197TIP3    H2  598   3.520   1.716   4.120
  198TIP3   OH2  599   5.072   5.960   2.793
  198TIP3    H1  600   5.029   5.924   2.715
  198TIP3    H2  601   5.164   5.938   2.782
  199TIP3   OH2  602   3.749   2.542   3.030
  199TIP3    H1  603   3.799   2.622   3.043
  199TIP3    H2  604   3.809   2.482   2.986
  200TIP3   OH2  605   3.858   5.417   3.825
  200TIP3    H1  606   3.768   5.394   3.802
  200TIP3    H2  607   3.913   5.367   3.764
  201TIP3   OH2  608   5.359   2.218   3.413
  201TIP3    H1  609   5.421   2.153   3.445
  201TIP3    H2  610   5.384   2.232   3.322
  202TIP3   OH2  611   3.459   3.911   1.453
  202TIP3    H1  612   3.489   3.890   1.365
  202TIP3    H2  613   3.451   3.827   1.497
  203TIP3   OH2  614   2.928   1.659   3.359
  203TIP3    H1  615   2.943   1.705   3.276
  203TIP3    H2  616   2.987   1.701   3.421
  204TIP3   OH2  617   3.562   3.829   0.691
  204TIP3    H1  618   3.510   3.868   0.621
  204TIP3    H2  619   3.566   3.898   0.758
  205TIP3   OH2  620   3.971   0.920   4.936
  205TIP3    H1  621   3.968   0.833   4.897
  205TIP3    H2  622   3.999   0.978   4.866
  206TIP3   OH2  623   0.489   5.010   0.162
  206TIP3    H1  624   0.440   4.970   0.233
  206TIP3    H2  625   0.568   5.045   0.204
  207TIP3   OH2  626   5.089   3.638   3.658
  207TIP3    H1  627   5.147   3.575   3.614
  207TIP3    H2  628   5.106   3.721   3.614
  208TIP3   OH2  629   3.703   1.446   3.200
  208TIP3    H1  630   3.633   1.511   3.208
  208TIP3    H2  631   3.762   1.467   3.273
  209TIP3   OH2  632   5.520   2.693   5.068
  209TIP3    H1  633   5.575   2.615   5.074
  209TIP3    H2  634   5.565   2.750   5.006
  210TIP3   OH2  635   5.257   5.837   3.611
  210TIP3    H1  636   5.294   5.752   3.635
  210TIP3    H2  637   5.319   5.901   3.648
  211TIP3   OH2  638   0.499   4.165   3.040
  211TIP3    H1  639   0.554   4.113   2.983
  211TIP3    H2  640   0.560   4.206   3.102
  212TIP3   OH2  641   2.374   1.919   0.839
  212TIP3    H1  642   2.304   1.868   0.879
  212TIP3    H2  643   2.358   1.913   0.745
  213TIP3   OH2  644   6.083   1.565   4.781
  213TIP3    H1  645   6.039   1.619   4.846
  213TIP3    H2  646   6.077   1.476   4.816
  214TIP3   OH2  647   5.219   1.021   5.094
  214TIP3    H1  648   5.166   0.953   5.054
  214TIP3    H2  649   5.252   0.982   5.175
  215TIP3   OH2  650   1.987   2.260   1.007
  215TIP3    H1  651   2.005   2.218   1.091
  215TIP3    H2  652   1.990   2.354   1.025
  216TIP3   OH2  653   0.214   1.225   4.755
  216TIP3    H1  654   0.218   1.296   4.819
  216TIP3    H2  655   0.300   1.183   4.762
  217TIP3   OH2  656   5.086   1.498   0.155
  217TIP3    H1  657   5.147   1.496   0.229
  217TIP3    H2  658   5.117   1.570   0.100
  218TIP3   OH2  659   4.742   2.283   2.952
  218TIP3    H1  660   4.649   2.263   2.952
  218TIP3    H2  661   4.781   2.216   2.895
  219TIP3   OH2  662   1.546   2.845   4.912
  219TIP3    H1  663   1.575   2.897   4.838
  219TIP3    H2  664   1.572   2.896   4.989
  220TIP3   OH2  665   3.769   2.376   1.272
  220TIP3    H1  666   3.720   2.382   1.190
  220TIP3    H2  667   3.757   2.286   1.302
  221TIP3   OH2  668   5.052   5.351   2.674
  221TIP3    H1  669   5.140   5.331   2.644
  221TIP3    H2  670   5.044   5.303   2.757
  222TIP3   OH2  671   2.413   3.991   2.140
  222TIP3    H1  672   2.360   3.997   2.061
  222TIP3    H2  673   2.491   4.044   2.121
  223TIP3   OH2  674   3.674   5.268   1.116
  223TIP3    H1  675   3.608   5.201   1.102
  223TIP3    H2  676   3.742   5.249   1.051
  224TIP3   OH2  677   1.578   1.543   2.505
  224TIP3    H1  678   1.526   1.486   2.561
  224TIP3    H2  679   1.515   1.603   2.466
  225TIP3   OH2  680   0.884   0.938   4.184
  225TIP3    H1  681   0.851   0.995   4.114
  225TIP3    H2  682   0.889   0.994   4.261
  226TIP3   OH2  683   4.089   3.086   0.409
  226TIP3    H1  684   4.097   3.180   0.420
  226TIP3    H2  685   4.136   3.049   0.485
  227TIP3   OH2  686   5.812   4.599   3.533
  227TIP3    H1  687   5.886   4.639   3.579
  227TIP3    H2  688   5.768   4.547   3.601
  228TIP3   OH2  689   3.360   3.258   3.250
  228TIP3    H1  690   3.408   3.337   3.226
  228TIP3    H2  691   3.391   3.237   3.339
  229TIP3   OH2  692   1.411   3.207   0.737
  229TIP3    H1  693   1.368   3.121   0.734
  229TIP3    H2  694   1.503   3.186   0.754
  230TIP3   OH2  695   5.893   2.230   3.973
  230TIP3    H1  696   5.853   2.144   3.959
  230TIP3    H2  697   5.983   2.210   4.001
  231TIP3   OH2  698   4.634   2.761   1.920
  231TIP3    H1  699   4.546   2.734   1.947
  231TIP3    H2  700   4.690   2.687   1.944
  232TIP3   OH2  701   1.795   4.829   4.376
  232TIP3    H1  702   1.807   4.770   4.450
  232TIP3    H2  703   1.884   4.845   4.344
  233TIP3   OH2  704   4.831   2.747   3.289
  233TIP3    H1  705   4.916   2.717   3.323
  233TIP3    H2  706   4.834   2.726   3.195
  234TIP3   OH2  707   4.614   5.133   5.056
  234TIP3    H1  708   4.647   5.099   5.140
  234TIP3    H2  709   4.649   5.073   4.991
  235TIP3   OH2  710   2.014   4.277   3.690
  235TIP3    H1  711   1.993   4.239   3.775
  235TIP3    H2  712   1.958   4.354   3.684
  236TIP3   OH2  713   6.178   5.835   3.230
  236TIP3    H1  714   6.097   5.866   3.190
  236TIP3    H2  715   6.173   5.865   3.321
  237TIP3   OH2  716   4.851   1.755   4.528
  237TIP3    H1  717   4.791   1.763   4.603
  237TIP3    H2  718   4.849   1.662   4.506
  238TIP3   OH2  719   0.686   0.153   2.307
  238TIP3    H1  720   0.669   0.060   2.319
  238TIP3    H2  721   0.751   0.157   2.237
  239TIP3   OH2  722   4.399   4.589   3.607
  239TIP3    H1  723   4.362   4.503   3.626
  239TIP3    H2  724   4.330   4.651   3.630
  240TIP3   OH2  725   0.627   4.717   2.723
  240TIP3    H1  726   0.573   4.769   2.782
  240TIP3    H2  727   0.570   4.699   2.648
  241TIP3   OH2  728   1.030   5.093   4.106
  241TIP3    H1  729   1.120   5.117   4.127
  241TIP3    H2  730   0.976   5.165   4.140
  242TIP3   OH2  731   2.766   3.624   1.553
  242TIP3    H1  732   2.727   3.553   1.605
  242TIP3    H2  733   2.786   3.583   1.468
  243TIP3   OH2  734   3.391   5.279   2.482
  243TIP3    H1  735   3.303   5.242   2.480
  243TIP3    H2  736   3.447   5.205   2.505
  244TIP3   OH2  737   4.200   0.397   2.674
  244TIP3    H1  738   4.185   0.358   2.588
  244TIP3    H2  739   4.237   0.326   2.726
  245TIP3   OH2  740   1.724   2.517   5.001
  245TIP3    H1  741   1.650   2.562   5.042
  245TIP3    H2  742   1.687   2.477   4.923
  246TIP3   OH2  743   3.395   5.221   2.919
  246TIP3    H1  744   3.352   5.151   2.967
  246TIP3    H2  745   3.488   5.200   2.924
  247TIP3   OH2  746   1.477   3.555   2.949
  247TIP3    H1  747   1.571   3.571   2.953
  247TIP3    H2  748   1.451   3.538   3.039
  248TIP3   OH2  749   3.013   4.157   2.206
  248TIP3    H1  750   2.984   4.078   2.251
  248TIP3    H2  751   2.940   4.218   2.213
  249TIP3   OH2  752  -0.021   2.089   2.976
  249TIP3    H1  753   0.025   2.133   2.906
  249TIP3    H2  754  -0.005   2.143   3.054
  250TIP3   OH2  755   2.596   4.453   3.191
  250TIP3    H1  756   2.506   4.485   3.200
  250TIP3    H2  757   2.587   4.370   3.144
  251TIP3   OH2  758   1.408   1.710   1.622
  251TIP3    H1  759   1.402   1.694   1.716
  251TIP3    H2  760   1.392   1.624   1.583
  252TIP3   OH2  761   3.780   1.978   2.376
  252TIP3    H1  762   3.718   2.051   2.372
  252TIP3    H2  763   3.835   1.998   2.452
  253TIP3   OH2  764   1.779   5.958   0.586
  253TIP3    H1  765   1.778   6.041   0.635
  253TIP3    H2  766   1.816   5.894   0.647
  254TIP3   OH2  767   4.729   0.193   4.620
  254TIP3    H1  768   4.636   0.185   4.598
  254TIP3    H2  769   4.759   0.103   4.633
  255TIP3   OH2  770   1.749   2.449   3.825
  255TIP3    H1  771   1.702   2.515   3.877
  255TIP3    H2  772   1.778   2.496   3.748
  256TIP3   OH2  773   5.653   5.508   2.240
  256TIP3    H1  774   5.677   5.433   2.185
  256TIP3    H2  775   5.571   5.540   2.202
  257TIP3   OH2  776   4.963   0.939   4.325
  257TIP3    H1  777   4.966   0.862   4.382
  257TIP3    H2  778   5.043   0.935   4.274
  258TIP3   OH2  779   4.700   3.848   3.488
  258TIP3    H1  780   4.717   3.774   3.547
  258TIP3    H2  781   4.775   3.849   3.428
  259TIP3   OH2  782   2.277   4.619   3.580
  259TIP3    H1  783   2.300   4.705   3.545
  259TIP3    H2  784   2.207   4.638   3.643
  260TIP3   OH2  785   1.828   4.309   3.138
  260TIP3    H1  786   1.803   4.400   3.124
  260TIP3    H2  787   1.895   4.312   3.206
  261TIP3   OH2  788   1.685   4.915   2.054
  261TIP3    H1  789   1.620   4.944   2.118
  261TIP3    H2  790   1.677   4.977   1.982
  262TIP3   OH2  791   0.385   3.050   2.862
  262TIP3    H1  792   0.375   3.098   2.945
  262TIP3    H2  793   0.310   3.077   2.810
  263TIP3   OH2  794   3.067   2.045   1.800
  263TIP3    H1  795   3.151   2.083   1.824
  263TIP3    H2  796   3.023   2.028   1.883
  264TIP3   OH2  797   0.345   5.314   4.493
  264TIP3    H1  798   0.416   5.277   4.546
  264TIP3    H2  799   0.379   5.397   4.461
  265TIP3   OH2  800   4.218   0.675   1.231
  265TIP3    H1  801   4.152   0.625   1.183
  265TIP3    H2  802   4.286   0.611   1.251
  266TIP3   OH2  803   3.447   3.310   0.079
  266TIP3    H1  804   3.435   3.230   0.129
  266TIP3    H2  805   3.511   3.287   0.012
  267TIP3   OH2  806   4.935   5.251   0.426
  267TIP3    H1  807   5.027   5.279   0.431
  267TIP3    H2  808   4.918   5.209   0.510
  268TIP3   OH2  809   4.192   2.143   2.387
  268TIP3    H1  810   4.108   2.166   2.348
  268TIP3    H2  811   4.173   2.067   2.442
  269TIP3   OH2  812   1.905   4.812   3.032
  269TIP3    H1  813   1.847   4.873   3.078
  269TIP3    H2  814   1.978   4.866   3.004
  270TIP3   OH2  815   3.646   5.682   2.268
  270TIP3    H1  816   3.593   5.686   2.188
  270TIP3    H2  817   3.582   5.669   2.339
  271TIP3   OH2  818   5.216   1.248   4.486
  271TIP3    H1  819   5.245   1.163   4.519
  271TIP3    H2  820   5.206   1.301   4.565
  272TIP3   OH2  821   3.935   2.497   1.648
  272TIP3    H1  822   3.923   2.402   1.640
  272TIP3    H2  823   3.904   2.532   1.565
  273TIP3   OH2  824   2.868   3.624   2.641
  273TIP3    H1  825   2.863   3.718   2.655
  273TIP3    H2  826   2.793   3.604   2.584
  274TIP3   OH2  827   0.990   4.878   0.135
  274TIP3    H1  828   0.959   4.895   0.046
  274TIP3    H2  829   0.933   4.808   0.167
  275TIP3   OH2  830   4.358   3.842   1.751
  275TIP3    H1  831   4.434   3.889   1.717
  275TIP3    H2  832   4.395   3.778   1.811
  276TIP3   OH2  833   5.125   5.154   2.910
  276TIP3    H1  834   5.128   5.178   3.003
  276TIP3    H2  835   5.194   5.088   2.901
  277TIP3   OH2  836   2.666   2.273   4.838
  277TIP3    H1  837   2.658   2.183   4.805
  277TIP3    H2  838   2.588   2.285   4.892
  278TIP3   OH2  839   1.397   4.589   0.043
  278TIP3    H1  840   1.418   4.682   0.033
  278TIP3    H2  841   1.474   4.543   0.010
  279TIP3   OH2  842   6.338   5.359   4.160
  279TIP3    H1  843   6.369   5.396   4.243
  279TIP3    H2  844   6.285   5.429   4.121
  280TIP3   OH2  845   1.509   4.417   5.100
  280TIP3    H1  846   1.417   4.394   5.114
  280TIP3    H2  847   1.558   4.346   5.140
  281TIP3   OH2  848   2.646   4.422   3.546
  281TIP3    H1  849   2.639   4.500   3.491
  281TIP3    H2  850   2.735   4.426   3.582
  282TIP3   OH2  851   5.906   0.521   4.148
  282TIP3    H1  852   5.875   0.608   4.124
  282TIP3    H2  853   5.914   0.524   4.243
  283TIP3   OH2  854   4.439   4.118   0.848
  283TIP3    H1  855   4.513   4.105   0.908
  283TIP3    H2  856   4.478   4.158   0.770
  284TIP3   OH2  857   6.183   1.680   3.322
  284TIP3    H1  858   6.175   1.590   3.351
  284TIP3    H2  859   6.266   1.711   3.360
  285TIP3   OH2  860   1.138   1.887   1.897
  285TIP3    H1  861   1.054   1.844   1.881
  285TIP3    H2  862   1.167   1.914   1.810
  286TIP3   OH2  863   1.173   2.172   4.975
  286TIP3    H1  864   1.087   2.166   4.933
  286TIP3    H2  865   1.234   2.189   4.903
  287TIP3   OH2  866   2.539   0.376   1.176
  287TIP3    H1  867   2.626   0.413   1.191
  287TIP3    H2  868   2.514   0.338   1.260
  288TIP3   OH2  869   2.993   2.809   3.516
  288TIP3    H1  870   3.028   2.890   3.478
  288TIP3    H2  871   3.056   2.741   3.490
  289TIP3   OH2  872   0.351   0.949   3.055
  289TIP3    H1  873   0.296   0.888   3.006
  289TIP3    H2  874   0.441   0.923   3.033
  290TIP3   OH2  875   0.020   4.141   3.458
  290TIP3    H1  876   0.012   4.173   3.368
  290TIP3    H2  877   0.105   4.174   3.488
  291TIP3   OH2  878   0.846   3.535   1.803
  291TIP3    H1  879   0.825   3.582   1.883
  291TIP3    H2  880   0.942   3.534   1.799
  292TIP3   OH2  881   1.126   1.025   2.381
  292TIP3    H1  882   1.168   1.107   2.407
  292TIP3    H2  883   1.196   0.972   2.345
  293TIP3   OH2  884   1.785   0.645   1.071
  293TIP3    H1  885   1.784   0.635   1.166
  293TIP3    H2  886   1.825   0.564   1.038
  294TIP3   OH2  887   4.321   2.967   2.082
  294TIP3    H1  888   4.238   2.944   2.125
  294TIP3    H2  889   4.296   3.033   2.018
  295TIP3   OH2  890   2.535   5.523   4.025
  295TIP3    H1  891   2.553   5.565   4.109
  295TIP3    H2  892   2.547   5.430   4.041
  296TIP3   OH2  893   6.283   2.434   4.654
  296TIP3    H1  894   6.239   2.435   4.569
  296TIP3    H2  895   6.368   2.475   4.637
  297TIP3   OH2  896   5.127   3.532   0.785
  297TIP3    H1  897   5.083   3.505   0.866
  297TIP3    H2  898   5.219   3.509   0.800
  298TIP3   OH2  899   1.871   0.933   5.078
  298TIP3    H1  900   1.874   0.864   5.013
  298TIP3    H2  901   1.823   0.894   5.151
  299TIP3   OH2  902   4.182   1.695   2.732
  299TIP3    H1  903   4.242   1.728   2.665
  299TIP3    H2  904   4.236   1.687   2.810
  300TIP3   OH2  905   4.505   1.877   0.334
  300TIP3    H1  906   4.555   1.954   0.363
  300TIP3    H2  907   4.476   1.900   0.246
  301TIP3   OH2  908   4.943   1.113   3.843
  301TIP3    H1  909   4.949   1.019   3.830
  301TIP3    H2  910   4.957   1.150   3.756
  302TIP3   OH2  911   3.960   5.409   1.805
  302TIP3    H1  912   4.049   5.422   1.773
  302TIP3    H2  913   3.905   5.418   1.728
  303TIP3   OH2  914   4.517  -0.026   0.909
  303TIP3    H1  915   4.486   0.062   0.890
  303TIP3    H2  916   4.543  -0.024   1.000
  304TIP3   OH2  917   0.521   3.725   1.784
  304TIP3    H1  918   0.459   3.783   1.829
  304TIP3    H2  919   0.473   3.694   1.707
  305TIP3   OH2  920   5.674   5.001   2.381
  305TIP3    H1  921   5.586   5.021   2.351
  305TIP3    H2  922   5.661   4.953   2.463
  306TIP3   OH2  923   3.669   3.584   2.933
  306TIP3    H1  924   3.637   3.590   3.023
  306TIP3    H2  925   3.602   3.628   2.881
  307TIP3   OH2  926   1.172   2.531   0.554
  307TIP3    H1  927   1.082   2.541   0.583
  307TIP3    H2  928   1.168   2.543   0.459
  308TIP3   OH2  929   4.070   0.230   3.177
  308TIP3    H1  930   4.153   0.201   3.214
  308TIP3    H2  931   4.029   0.282   3.246
  309TIP3   OH2  932   3.646   4.420   2.601
  309TIP3    H1  933   3.726   4.471   2.587
  309TIP3    H2  934   3.597   4.430   2.519
  310TIP3   OH2  935   3.910   3.552   5.074
  310TIP3    H1  936   4.003   3.567   5.088
  310TIP3    H2  937   3.903   3.517   4.986
  311TIP3   OH2  938   4.365   5.073   4.864
  311TIP3    H1  939   4.409   5.087   4.780
  311TIP3    H2  940   4.314   5.152   4.878
  312TIP3   OH2  941   0.423   5.118   0.408
  312TIP3    H1  942   0.406   5.163   0.490
  312TIP3    H2  943   0.501   5.162   0.372
  313TIP3   OH2  944   0.764   5.443   0.166
  313TIP3    H1  945   0.713   5.523   0.155
  313TIP3    H2  946   0.751   5.395   0.084
  314TIP3   OH2  947   2.314   2.973   0.666
  314TIP3    H1  948   2.375   2.980   0.593
  314TIP3    H2  949   2.230   3.002   0.631
  315TIP3   OH2  950   2.600   5.177   2.352
  315TIP3    H1  951   2.523   5.135   2.315
  315TIP3    H2  952   2.607   5.140   2.441
  316TIP3   OH2  953   5.075   0.521   4.517
  316TIP3    H1  954   5.098   0.441   4.563
  316TIP3    H2  955   5.076   0.498   4.424
  317TIP3   OH2  956   1.616   2.116   3.434
  317TIP3    H1  957   1.701   2.137   3.473
  317TIP3    H2  958   1.595   2.192   3.380
  318TIP3   OH2  959   0.369   4.788   5.203
  318TIP3    H1  960   0.431   4.795   5.131
  318TIP3    H2  961   0.287   4.822   5.167
  319TIP3   OH2  962   3.058   2.450   0.988
  319TIP3    H1  963   3.060   2.542   0.963
  319TIP3    H2  964   3.028   2.405   0.909
  320TIP3   OH2  965   4.664   4.874   4.235
  320TIP3    H1  966   4.598   4.934   4.201
  320TIP3    H2  967   4.629   4.846   4.320
  321TIP3   OH2  968   4.468   3.421   1.713
  321TIP3    H1  969   4.483   3.451   1.803
  321TIP3    H2  970   4.480   3.326   1.717
  322TIP3   OH2  971   1.679   3.148   0.799
  322TIP3    H1  972   1.751   3.173   0.740
  322TIP3    H2  973   1.719   3.085   0.859
  323TIP3   OH2  974   4.828   1.205   2.125
  323TIP3    H1  975   4.825   1.290   2.169
  323TIP3    H2  976   4.903   1.212   2.065
  324TIP3   OH2  977   3.466   4.586   4.596
  324TIP3    H1  978   3.511   4.563   4.678
  324TIP3    H2  979   3.379   4.612   4.624
  325TIP3   OH2  980   2.079   0.183   2.945
  325TIP3    H1  981   2.171   0.210   2.949
  325TIP3    H2  982   2.058   0.180   2.852
  326TIP3   OH2  983   0.449   4.317   4.789
  326TIP3    H1  984   0.377   4.286   4.734
  326TIP3    H2  985   0.418   4.303   4.878
  327TIP3   OH2  986   3.868   3.432   2.799
  327TIP3    H1  987   3.814   3.450   2.876
  327TIP3    H2  988   3.958   3.427   2.833
  328TIP3   OH2  989   1.392   0.467   4.313
  328TIP3    H1  990   1.426   0.384   4.281
  328TIP3    H2  991   1.463   0.529   4.298
  329TIP3   OH2  992   4.184   4.453   0.149
  329TIP3    H1  993   4.174   4.448   0.054
  329TIP3    H2  994   4.245   4.382   0.170
  330TIP3   OH2  995   3.005   5.260   5.140
  330TIP3    H1  996   2.996   5.168   5.167
  330TIP3    H2  997   2.939   5.271   5.071
  331TIP3   OH2  998   2.396   2.438   2.333
  331TIP3    H1  999   2.323   2.444   2.395
  331TIP3    H2 1000   2.358   2.461   2.248
  332TIP3   OH2 1001   2.816   0.129   2.434
  332TIP3    H1 1002   2.832   0.207   2.380
  332TIP3    H2 1003   2.874   0.139   2.509
  333TIP3   OH2 1004   3.169   1.332   4.746
  333TIP3    H1 1005   3.076   1.353   4.742
  333TIP3    H2 1006   3.181   1.295   4.834
  334TIP3   OH2 1007   1.876   5.794   4.801
  334TIP3    H1 1008   1.838   5.706   4.798
  334TIP3    H2 1009   1.851   5.828   4.887
  335TIP3   OH2 1010   3.933   5.567   1.143
  335TIP3    H1 1011   3.890   5.613   1.215
  335TIP3    H2 1012   3.971   5.489   1.185
  336TIP3   OH2 1013   3.008   4.815   2.576
  336TIP3    H1 1014   3.047   4.731   2.551
  336TIP3    H2 1015   3.013   4.817   2.672
  337TIP3   OH2 1016   3.794   1.059   3.846
  337TIP3    H1 1017   3.801   1.021   3.758
  337TIP3    H2 1018   3.742   1.139   3.833
  338TIP3   OH2 1019   2.705   1.934   4.259
  338TIP3    H1 1020   2.653   1.996   4.310
  338TIP3    H2 1021   2.790   1.976   4.251
  339TIP3   OH2 1022   4.006   4.948   0.095
  339TIP3    H1 1023   4.066   4.877   0.118
  339TIP3    H2 1024   4.051   5.027   0.122
  340TIP3   OH2 1025   2.964   2.640   4.332
  340TIP3    H1 1026   2.948   2.557   4.286
  340TIP3    H2 1027   2.975   2.615   4.424
  341TIP3   OH2 1028   1.788   2.364   2.576
  341TIP3    H1 1029   1.697   2.357   2.548
  341TIP3    H2 1030   1.829   2.422   2.512
  342TIP3   OH2 1031   0.411   2.750   1.285
  342TIP3    H1 1032   0.430   2.751   1.192
  342TIP3    H2 1033   0.423   2.840   1.314
  343TIP3   OH2 1034   0.637   4.758   1.161
  343TIP3    H1 1035   0.664   4.757   1.069
  343TIP3    H2 1036   0.557   4.810   1.162
  344TIP3   OH2 1037   2.500   0.380   2.394
  344TIP3    H1 1038   2.503   0.443   2.322
  344TIP3    H2 1039   2.571   0.406   2.453
  345TIP3   OH2 1040   3.602   4.511   4.801
  345TIP3    H1 1041   3.511   4.492   4.823
  345TIP3    H2 1042   3.624   4.588   4.852
  346TIP3   OH2 1043   0.955   1.453   2.114
  346TIP3    H1 1044   0.919   1.542   2.112
  346TIP3    H2 1045   0.936   1.422   2.203
  347TIP3   OH2 1046   1.692   4.920   3.813
  347TIP3    H1 1047   1.618   4.862   3.834
  347TIP3    H2 1048   1.652   5.007   3.803
  348TIP3   OH2 1049   6.137   1.394   1.615
  348TIP3    H1 1050   6.051   1.437   1.619
  348TIP3    H2 1051   6.200   1.466   1.622
  349TIP3   OH2 1052   4.303   5.554   2.761
  349TIP3    H1 1053   4.352   5.473   2.749
  349TIP3    H2 1054   4.236   5.551   2.693
  350TIP3   OH2 1055   3.066   3.611   1.596
  350TIP3    H1 1056   2.973   3.589   1.595
  350TIP3    H2 1057   3.068   3.705   1.578
  351TIP3   OH2 1058   0.962   4.198   0.803
  351TIP3    H1 1059   0.875   4.161   0.815
  351TIP3    H2 1060   1.022   4.125   0.818
  352TIP3   OH2 1061   6.238   2.104   4.469
  352TIP3    H1 1062   6.310   2.147   4.422
  352TIP3    H2 1063   6.159   2.132   4.421
  353TIP3   OH2 1064   2.555   0.362   0.317
  353TIP3    H1 1065   2.593   0.275   0.332
  353TIP3    H2 1066   2.566   0.407   0.401
  354TIP3   OH2 1067   4.044   2.208   5.062
  354TIP3    H1 1068   4.024   2.163   5.144
  354TIP3    H2 1069   4.138   2.191   5.048
  355TIP3   OH2 1070   2.668   3.124   0.816
  355TIP3    H1 1071   2.577   3.143   0.841
  355TIP3    H2 1072   2.718   3.136   0.897
  356TIP3   OH2 1073   5.373   1.308   0.216
  356TIP3    H1 1074   5.305   1.242   0.201
  356TIP3    H2 1075   5.455   1.258   0.218
  357TIP3   OH2 1076   2.867   0.383   2.833
  357TIP3    H1 1077   2.813   0.352   2.905
  357TIP3    H2 1078   2.925   0.448   2.873
  358TIP3   OH2 1079   3.778   5.737   1.328
  358TIP3    H1 1080   3.813   5.755   1.416
  358TIP3    H2 1081   3.799   5.816   1.278
  359TIP3   OH2 1082   5.140   4.699   0.800
  359TIP3    H1 1083   5.222   4.684   0.849
  359TIP3    H2 1084   5.105   4.612   0.784
  360TIP3   OH2 1085   4.453   1.384   1.768
  360TIP3    H1 1086   4.371   1.426   1.740
  360TIP3    H2 1087   4.470   1.421   1.854
  361TIP3   OH2 1088   4.540   3.762   2.706
  361TIP3    H1 1089   4.562   3.806   2.788
  361TIP3    H2 1090   4.452   3.792   2.685
  362TIP3   OH2 1091   2.352   4.732   1.293
  362TIP3    H1 1092   2.305   4.710   1.213
  362TIP3    H2 1093   2.305   4.685   1.362
  363TIP3   OH2 1094   3.902   3.635   4.306
  363TIP3    H1 1095   3.875   3.549   4.272
  363TIP3    H2 1096   3.911   3.622   4.400
  364TIP3   OH2 1097   5.718   1.590   0.814
  364TIP3    H1 1098   5.633   1.624   0.786
  364TIP3    H2 1099   5.717   1.599   0.909
  365TIP3   OH2 1100   1.148   3.575   0.205
  365TIP3    H1 1101   1.227   3.543   0.161
  365TIP3    H2 1102   1.156   3.543   0.295
  366TIP3   OH2 1103   2.702   2.342   1.676
  366TIP3    H1 1104   2.712   2.378   1.588
  366TIP3    H2 1105   2.684   2.419   1.731
  367TIP3   OH2 1106   3.098   4.224   4.299
  367TIP3    H1 1107   3.146   4.304   4.320
  367TIP3    H2 1108   3.033   4.216   4.369
  368TIP3   OH2 1109   1.722   0.415   3.527
  368TIP3    H1 1110   1.775   0.451   3.597
  368TIP3    H2 1111   1.692   0.491   3.477
  369TIP3   OH2 1112   2.689   2.740   0.357
  369TIP3    H1 1113   2.763   2.791   0.390
  369TIP3    H2 1114   2.662   2.786   0.277
  370TIP3   OH2 1115   3.995   1.268   2.848
  370TIP3    H1 1116   3.917   1.255   2.902
  370TIP3    H2 1117   4.007   1.363   2.846
  371TIP3   OH2 1118   1.613   2.505   1.246
  371TIP3    H1 1119   1.545   2.438   1.241
  371TIP3    H2 1120   1.587   2.570   1.181
  372TIP3   OH2 1121   0.202   3.036   2.640
  372TIP3    H1 1122   0.246   3.100   2.584
  372TIP3    H2 1123   0.152   3.089   2.702
  373TIP3   OH2 1124   1.828   5.220   1.404
  373TIP3    H1 1125   1.788   5.142   1.444
  373TIP3    H2 1126   1.891   5.184   1.341
  374TIP3   OH2 1127   0.516   3.061   0.025
  374TIP3    H1 1128   0.425   3.035   0.014
  374TIP3    H2 1129   0.515   3.123   0.099
  375TIP3   OH2 1130   2.990   1.864   0.834
  375TIP3    H1 1131   3.060   1.802   0.856
  375TIP3    H2 1132   2.916   1.809   0.809
  376TIP3   OH2 1133   4.722   0.093   2.650
  376TIP3    H1 1134   4.756   0.011   2.685
  376TIP3    H2 1135   4.800   0.138   2.615
  377TIP3   OH2 1136   0.684   0.903   0.660
  377TIP3    H1 1137   0.766   0.910   0.611
  377TIP3    H2 1138   0.708   0.860   0.742
  378TIP3   OH2 1139   2.468   4.546   0.052
  378TIP3    H1 1140   2.532   4.609   0.085
  378TIP3    H2 1141   2.459   4.568  -0.040
  379TIP3   OH2 1142   1.691   0.039   4.841
  379TIP3    H1 1143   1.754   0.110   4.857
  379TIP3    H2 1144   1.740  -0.026   4.791
  380TIP3   OH2 1145   3.197   3.809   5.101
  380TIP3    H1 1146   3.148   3.885   5.135
  380TIP3    H2 1147   3.208   3.752   5.177
  381TIP3   OH2 1148   5.289   5.678   1.696
  381TIP3    H1 1149   5.229   5.713   1.762
  381TIP3    H2 1150   5.376   5.687   1.736
  382TIP3   OH2 1151   2.906   3.320   3.433
  382TIP3    H1 1152   2.882   3.412   3.443
  382TIP3    H2 1153   2.823   3.273   3.438
  383TIP3   OH2 1154   2.087   2.485   1.395
  383TIP3    H1 1155   1.999   2.451   1.378
  383TIP3    H2 1156   2.146   2.416   1.366
  384TIP3   OH2 1157   1.996   4.913   5.084
  384TIP3    H1 1158   2.040   4.989   5.047
  384TIP3    H2 1159   2.057   4.840   5.069
  385TIP3   OH2 1160   5.474   4.504   1.379
  385TIP3    H1 1161   5.418   4.573   1.344
  385TIP3    H2 1162   5.474   4.519   1.473
  386TIP3   OH2 1163   4.595   3.566   0.317
  386TIP3    H1 1164   4.570   3.478   0.290
  386TIP3    H2 1165   4.584   3.566   0.412
  387TIP3   OH2 1166   1.378   4.697   2.101
  387TIP3    H1 1167   1.398   4.789   2.085
  387TIP3    H2 1168   1.285   4.696   2.124
  388TIP3   OH2 1169   5.586   2.513   4.389
  388TIP3    H1 1170   5.601   2.559   4.306
  388TIP3    H2 1171   5.507   2.554   4.425
  389TIP3   OH2 1172   6.207   0.777   3.300
  389TIP3    H1 1173   6.120   0.808   3.322
  389TIP3    H2 1174   6.206   0.767   3.205
  390TIP3   OH2 1175   5.652   1.264   1.324
  390TIP3    H1 1176   5.742   1.297   1.320
  390TIP3    H2 1177   5.654   1.199   1.395
  391TIP3   OH2 1178   2.478   1.981   2.953
  391TIP3    H1 1179   2.397   2.032   2.960
  391TIP3    H2 1180   2.459   1.900   3.001
  392TIP3   OH2 1181   0.846   1.415   0.456
  392TIP3    H1 1182   0.851   1.359   0.378
  392TIP3    H2 1183   0.764   1.463   0.445
  393TIP3   OH2 1184   3.061   4.464   3.212
  393TIP3    H1 1185   3.097   4.526   3.276
  393TIP3    H2 1186   3.126   4.395   3.206
  394TIP3   OH2 1187   3.798   2.732   3.811
  394TIP3    H1 1188   3.877   2.769   3.771
  394TIP3    H2 1189   3.785   2.784   3.890
  395TIP3   OH2 1190   4.950   3.024   1.267
  395TIP3    H1 1191   4.891   2.974   1.211
  395TIP3    H2 1192   5.000   3.079   1.206
  396TIP3   OH2 1193   3.258   4.896   2.000
  396TIP3    H1 1194   3.172   4.923   2.031
  396TIP3    H2 1195   3.295   4.975   1.959
  397TIP3   OH2 1196   2.655   2.774   2.960
  397TIP3    H1 1197   2.642   2.736   3.047
  397TIP3    H2 1198   2.666   2.698   2.902
  398TIP3   OH2 1199   4.911   4.732   2.038
  398TIP3    H1 1200   4.949   4.815   2.067
  398TIP3    H2 1201   4.945   4.720   1.949
  399TIP3   OH2 1202   0.700   3.550   4.378
  399TIP3    H1 1203   0.768   3.486   4.353
  399TIP3    H2 1204   0.695   3.609   4.303
  400TIP3   OH2 1205   4.735   5.581   2.009
  400TIP3    H1 1206   4.719   5.546   2.097
  400TIP3    H2 1207   4.715   5.508   1.950
  401TIP3   OH2 1208   5.222   0.167   3.281
  401TIP3    H1 1209   5.200   0.231   3.348
  401TIP3    H2 1210   5.231   0.084   3.329
  402TIP3   OH2 1211   4.750   0.455   1.038
  402TIP3    H1 1212   4.841   0.481   1.021
  402TIP3    H2 1213   4.743   0.452   1.133
  403TIP3   OH2 1214   2.941   2.126   3.762
  403TIP3    H1 1215   2.854   2.087   3.771
  403TIP3    H2 1216   2.932   2.190   3.692
  404TIP3   OH2 1217   5.408   5.785   0.755
  404TIP3    H1 1218   5.358   5.819   0.829
  404TIP3    H2 1219   5.350   5.798   0.679
  405TIP3   OH2 1220   0.796   4.226   1.136
  405TIP3    H1 1221   0.882   4.224   1.094
  405TIP3    H2 1222   0.782   4.318   1.157
  406TIP3   OH2 1223   4.408   4.416   4.638
  406TIP3    H1 1224   4.440   4.367   4.714
  406TIP3    H2 1225   4.476   4.404   4.571
  407TIP3   OH2 1226   4.087   2.990   0.145
  407TIP3    H1 1227   4.168   2.991   0.093
  407TIP3    H2 1228   4.117   3.003   0.235
  408TIP3   OH2 1229   5.535   5.663   3.481
  408TIP3    H1 1230   5.511   5.611   3.404
  408TIP3    H2 1231   5.497   5.616   3.555
  409TIP3   OH2 1232   3.365   5.594   5.173
  409TIP3    H1 1233   3.289   5.653   5.172
  409TIP3    H2 1234   3.328   5.508   5.153
  410TIP3   OH2 1235   3.675   0.783   4.202
  410TIP3    H1 1236   3.671   0.878   4.213
  410TIP3    H2 1237   3.690   0.771   4.108
  411TIP3   OH2 1238   3.881   2.469   4.262
  411TIP3    H1 1239   3.804   2.523   4.276
  411TIP3    H2 1240   3.938   2.488   4.337
  412TIP3   OH2 1241   2.798   3.898   4.134
  412TIP3    H1 1242   2.876   3.952   4.139
  412TIP3    H2 1243   2.757   3.923   4.051
  413TIP3   OH2 1244   4.246   4.852   4.964
  413TIP3    H1 1245   4.302   4.779   4.938
  413TIP3    H2 1246   4.291   4.930   4.932
  414TIP3   OH2 1247   4.790   4.528   4.256
  414TIP3    H1 1248   4.718   4.585   4.229
  414TIP3    H2 1249   4.831   4.574   4.329
  415TIP3   OH2 1250   3.697   2.777   1.618
  415TIP3    H1 1251   3.752   2.851   1.643
  415TIP3    H2 1252   3.655   2.750   1.700
  416TIP3   OH2 1253   3.198   3.465   4.974
  416TIP3    H1 1254   3.255   3.394   5.004
  416TIP3    H2 1255   3.120   3.420   4.940
  417TIP3   OH2 1256   0.763   4.034   4.603
  417TIP3    H1 1257   0.789   3.943   4.617
  417TIP3    H2 1258   0.707   4.032   4.526
  418TIP3   OH2 1259   4.853   2.643   0.327
  418TIP3    H1 1260   4.885   2.579   0.391
  418TIP3    H2 1261   4.913   2.635   0.253
  419TIP3   OH2 1262   2.895   1.354   4.698
  419TIP3    H1 1263   2.847   1.289   4.748
  419TIP3    H2 1264   2.829   1.417   4.670
  420TIP3   OH2 1265   3.089   4.865   3.176
  420TIP3    H1 1266   3.116   4.802   3.242
  420TIP3    H2 1267   3.170   4.909   3.150
  421TIP3   OH2 1268   0.556   5.588   0.492
  421TIP3    H1 1269   0.575   5.508   0.443
  421TIP3    H2 1270   0.594   5.573   0.578
  422TIP3   OH2 1271   5.114   2.472   0.460
  422TIP3    H1 1272   5.177   2.544   0.454
  422TIP3    H2 1273   5.142   2.409   0.394
  423TIP3   OH2 1274   2.139   4.378   4.724
  423TIP3    H1 1275   2.151   4.284   4.738
  423TIP3    H2 1276   2.070   4.402   4.786
  424TIP3   OH2 1277   3.327   4.423   0.649
  424TIP3    H1 1278   3.416   4.421   0.614
  424TIP3    H2 1279   3.278   4.477   0.587
  425TIP3   OH2 1280   1.248   2.508   3.376
  425TIP3    H1 1281   1.170   2.558   3.353
  425TIP3    H2 1282   1.317   2.542   3.319
  426TIP3   OH2 1283   2.279   0.832   1.268
  426TIP3    H1 1284   2.189   0.824   1.237
  426TIP3    H2 1285   2.328   0.767   1.217
  427TIP3   OH2 1286   0.671   4.075   0.662
  427TIP3    H1 1287   0.607   4.137   0.627
  427TIP3    H2 1288   0.654   4.074   0.756
  428TIP3   OH2 1289   5.105   3.615   2.422
  428TIP3    H1 1290   5.098   3.522   2.402
  428TIP3    H2 1291   5.102   3.619   2.518
  429TIP3   OH2 1292   0.588   2.803   3.929
  429TIP3    H1 1293   0.524   2.750   3.881
  429TIP3    H2 1294   0.633   2.853   3.861
  430TIP3   OH2 1295   5.216   4.858   2.303
  430TIP3    H1 1296   5.175   4.897   2.226
  430TIP3    H2 1297   5.158   4.880   2.375
  431TIP3   OH2 1298   5.916   3.605   2.824
  431TIP3    H1 1299   5.863   3.592   2.902
  431TIP3    H2 1300   5.880   3.684   2.784
  432TIP3   OH2 1301   3.447   3.640   2.121
  432TIP3    H1 1302   3.427   3.578   2.052
  432TIP3    H2 1303   3.542   3.648   2.120
  433TIP3   OH2 1304   2.278   0.323   0.579
  433TIP3    H1 1305   2.359   0.279   0.605
  433TIP3    H2 1306   2.212   0.252   0.578
  434TIP3   OH2 1307   1.403   3.136   4.824
  434TIP3    H1 1308   1.386   3.167   4.735
  434TIP3    H2 1309   1.327   3.082   4.846
  435TIP3   OH2 1310   2.684   5.474   0.108
  435TIP3    H1 1311   2.602   5.473   0.058
  435TIP3    H2 1312   2.657   5.452   0.197
  436TIP3   OH2 1313   6.059   0.874   1.371
  436TIP3    H1 1314   6.015   0.894   1.289
  436TIP3    H2 1315   6.145   0.840   1.345
  437TIP3   OH2 1316   0.320   3.913   4.382
  437TIP3    H1 1317   0.249   3.883   4.325
  437TIP3    H2 1318   0.334   3.840   4.442
  438TIP3   OH2 1319   0.439   3.350   4.768
  438TIP3    H1 1320   0.365   3.409   4.758
  438TIP3    H2 1321   0.438   3.295   4.690
  439TIP3   OH2 1322   3.981   4.291   3.001
  439TIP3    H1 1323   3.953   4.302   2.910
  439TIP3    H2 1324   3.967   4.198   3.020
  440TIP3   OH2 1325   0.022   3.421   1.948
  440TIP3    H1 1326   0.106   3.467   1.943
  440TIP3    H2 1327   0.033   3.360   2.021
  441TIP3   OH2 1328   2.153   1.521   4.043
  441TIP3    H1 1329   2.167   1.491   3.953
  441TIP3    H2 1330   2.114   1.446   4.088
  442TIP3   OH2 1331   3.123   3.631   4.296
  442TIP3    H1 1332   3.159   3.683   4.368
  442TIP3    H2 1333   3.187   3.561   4.283
  443TIP3   OH2 1334   0.757   1.104   3.340
  443TIP3    H1 1335   0.793   1.107   3.428
  443TIP3    H2 1336   0.665   1.082   3.352
  444TIP3   OH2 1337   6.321   1.627   2.552
  444TIP3    H1 1338   6.232   1.592   2.556
  444TIP3    H2 1339   6.329   1.681   2.630
  445TIP3   OH2 1340   6.072   1.616   2.075
  445TIP3    H1 1341   6.027   1.532   2.069
  445TIP3    H2 1342   6.100   1.635   1.985
  446TIP3   OH2 1343   1.703   3.915   4.933
  446TIP3    H1 1344   1.722   3.947   5.021
  446TIP3    H2 1345   1.754   3.834   4.925
  447TIP3   OH2 1346   2.569   4.468   2.114
  447TIP3    H1 1347   2.603   4.466   2.203
  447TIP3    H2 1348   2.475   4.460   2.124
  448TIP3   OH2 1349   1.623   5.663   4.987
  448TIP3    H1 1350   1.614   5.592   5.051
  448TIP3    H2 1351   1.608   5.742   5.038
  449TIP3   OH2 1352   0.792   5.307   0.989
  449TIP3    H1 1353   0.827   5.235   0.936
  449TIP3    H2 1354   0.840   5.384   0.960
  450TIP3   OH2 1355   3.768   1.511   3.611
  450TIP3    H1 1356   3.714   1.571   3.662
  450TIP3    H2 1357   3.763   1.544   3.522
  451TIP3   OH2 1358   3.156   3.740   1.993
  451TIP3    H1 1359   3.068   3.778   2.001
  451TIP3    H2 1360   3.181   3.720   2.084
  452TIP3   OH2 1361   0.341   4.084   0.121
  452TIP3    H1 1362   0.255   4.094   0.079
  452TIP3    H2 1363   0.402   4.122   0.058
  453TIP3   OH2 1364   3.724   0.898   1.153
  453TIP3    H1 1365   3.819   0.901   1.151
  453TIP3    H2 1366   3.697   0.914   1.062
  454TIP3   OH2 1367   3.072   5.684   5.148
  454TIP3    H1 1368   3.080   5.778   5.160
  454TIP3    H2 1369   3.086   5.670   5.055
  455TIP3   OH2 1370   1.100   4.664   1.075
  455TIP3    H1 1371   1.036   4.616   1.021
  455TIP3    H2 1372   1.181   4.613   1.067
  456TIP3   OH2 1373   1.633   3.979   2.637
  456TIP3    H1 1374   1.631   3.914   2.707
  456TIP3    H2 1375   1.543   3.981   2.603
  457TIP3   OH2 1376   3.875   2.620   0.415
  457TIP3    H1 1377   3.963   2.588   0.391
  457TIP3    H2 1378   3.887   2.713   0.431
  458TIP3   OH2 1379   3.330   0.982   5.103
  458TIP3    H1 1380   3.393   0.947   5.165
  458TIP3    H2 1381   3.273   0.908   5.082
  459TIP3   OH2 1382   6.252   1.417   0.235
  459TIP3    H1 1383   6.249   1.499   0.185
  459TIP3    H2 1384   6.161   1.387   0.236
  460TIP3   OH2 1385   4.001   5.110   5.072
  460TIP3    H1 1386   3.913   5.143   5.054
  460TIP3    H2 1387   4.044   5.106   4.987
  461TIP3   OH2 1388   2.751   2.309   0.218
  461TIP3    H1 1389   2.824   2.370   0.225
  461TIP3    H2 1390   2.726   2.291   0.308
  462TIP3   OH2 1391   5.296   5.633   4.755
  462TIP3    H1 1392   5.282   5.539   4.768
  462TIP3    H2 1393   5.208   5.669   4.745
  463TIP3   OH2 1394   2.921   2.379   4.237
  463TIP3    H1 1395   2.887   2.343   4.155
  463TIP3    H2 1396   3.014   2.356   4.237
  464TIP3   OH2 1397   5.104   2.860   2.239
  464TIP3    H1 1398   5.031   2.809   2.275
  464TIP3    H2 1399   5.080   2.873   2.147
  465TIP3   OH2 1400   0.433   2.161   0.156
  465TIP3    H1 1401   0.511   2.105   0.160
  465TIP3    H2 1402   0.461   2.238   0.106
  466TIP3   OH2 1403   4.935   0.928   2.137
  466TIP3    H1 1404   4.870   0.864   2.168
  466TIP3    H2 1405   4.892   0.973   2.064
  467TIP3   OH2 1406   5.154   3.179   4.309
  467TIP3    H1 1407   5.212   3.207   4.238
  467TIP3    H2 1408   5.106   3.105   4.273
  468TIP3   OH2 1409   1.479   5.077   4.658
  468TIP3    H1 1410   1.534   5.078   4.735
  468TIP3    H2 1411   1.453   5.169   4.645
  469TIP3   OH2 1412   3.400   0.398   1.496
  469TIP3    H1 1413   3.399   0.491   1.476
  469TIP3    H2 1414   3.485   0.367   1.462
  470TIP3   OH2 1415   3.839   5.597   1.972
  470TIP3    H1 1416   3.876   5.571   2.057
  470TIP3    H2 1417   3.861   5.525   1.913
  471TIP3   OH2 1418   4.754   0.063   1.043
  471TIP3    H1 1419   4.698   0.120   1.095
  471TIP3    H2 1420   4.780   0.118   0.968
  472TIP3   OH2 1421   2.878   4.598   1.415
  472TIP3    H1 1422   2.787   4.589   1.386
  472TIP3    H2 1423   2.913   4.509   1.412
  473TIP3   OH2 1424   1.268   0.974   2.960
  473TIP3    H1 1425   1.280   0.908   3.027
  473TIP3    H2 1426   1.181   0.957   2.925
  474TIP3   OH2 1427   5.689   4.035   2.544
  474TIP3    H1 1428   5.633   4.112   2.551
  474TIP3    H2 1429   5.716   4.033   2.452
  475TIP3   OH2 1430   2.225   1.492   5.019
  475TIP3    H1 1431   2.225   1.397   5.006
  475TIP3    H2 1432   2.132   1.515   5.026
  476TIP3   OH2 1433   3.478   3.827   0.280
  476TIP3    H1 1434   3.501   3.843   0.188
  476TIP3    H2 1435   3.516   3.742   0.300
  477TIP3   OH2 1436   0.579   5.529   3.432
  477TIP3    H1 1437   0.542   5.441   3.432
  477TIP3    H2 1438   0.584   5.554   3.340
  478TIP3   OH2 1439   4.480   1.034   0.218
  478TIP3    H1 1440   4.442   1.093   0.153
  478TIP3    H2 1441   4.476   1.083   0.300
  479TIP3   OH2 1442   0.603   3.079   1.275
  479TIP3    H1 1443   0.612   3.083   1.370
  479TIP3    H2 1444   0.666   3.143   1.242
  480TIP3   OH2 1445   4.225   3.201   2.269
  480TIP3    H1 1446   4.252   3.109   2.262
  480TIP3    H2 1447   4.283   3.239   2.334
  481TIP3   OH2 1448   1.208   5.274   2.944
  481TIP3    H1 1449   1.230   5.199   3.000
  481TIP3    H2 1450   1.178   5.341   3.006
  482TIP3   OH2 1451   6.165   4.373   0.791
  482TIP3    H1 1452   6.207   4.418   0.864
  482TIP3    H2 1453   6.088   4.332   0.829
  483TIP3   OH2 1454   2.725   1.681   1.505
  483TIP3    H1 1455   2.792   1.742   1.537
  483TIP3    H2 1456   2.688   1.724   1.428
  484TIP3   OH2 1457   0.353   2.277   3.867
  484TIP3    H1 1458   0.372   2.195   3.914
  484TIP3    H2 1459   0.318   2.248   3.782
  485TIP3   OH2 1460   5.557   0.949   4.736
  485TIP3    H1 1461   5.485   0.900   4.776
  485TIP3    H2 1462   5.599   0.887   4.677
  486TIP3   OH2 1463   1.278   4.868   1.143
  486TIP3    H1 1464   1.194   4.837   1.108
  486TIP3    H2 1465   1.293   4.951   1.099
  487TIP3   OH2 1466   4.013   3.304   1.650
  487TIP3    H1 1467   4.049   3.230   1.698
  487TIP3    H2 1468   4.020   3.378   1.711
  488TIP3   OH2 1469   1.375   5.772   2.552
  488TIP3    H1 1470   1.309   5.770   2.482
  488TIP3    H2 1471   1.440   5.707   2.525
  489TIP3   OH2 1472   3.671   4.773   0.045
  489TIP3    H1 1473   3.717   4.706   0.095
  489TIP3    H2 1474   3.582   4.738   0.035
  490TIP3   OH2 1475   3.315   0.870   0.463
  490TIP3    H1 1476   3.395   0.896   0.508
  490TIP3    H2 1477   3.256   0.944   0.473
  491TIP3   OH2 1478   2.690   3.578   3.933
  491TIP3    H1 1479   2.692   3.487   3.902
  491TIP3    H2 1480   2.658   3.571   4.024
  492TIP3   OH2 1481   3.049   2.911   4.958
  492TIP3    H1 1482   3.092   2.952   4.883
  492TIP3    H2 1483   2.985   2.851   4.919
  493TIP3   OH2 1484   1.790   0.712   2.478
  493TIP3    H1 1485   1.853   0.711   2.549
  493TIP3    H2 1486   1.777   0.620   2.455
  494TIP3   OH2 1487   1.137   3.313   2.403
  494TIP3    H1 1488   1.121   3.397   2.444
  494TIP3    H2 1489   1.052   3.286   2.368
  495TIP3   OH2 1490   2.160   4.645   1.105
  495TIP3    H1 1491   2.187   4.555   1.085
  495TIP3    H2 1492   2.065   4.643   1.101
  496TIP3   OH2 1493   1.492   1.433   3.393
  496TIP3    H1 1494   1.438   1.365   3.351
  496TIP3    H2 1495   1.582   1.410   3.369
  497TIP3   OH2 1496   4.705   2.257   4.568
  497TIP3    H1 1497   4.703   2.278   4.662
  497TIP3    H2 1498   4.798   2.242   4.549
  498TIP3   OH2 1499   3.189   5.477   2.398
  498TIP3    H1 1500   3.279   5.452   2.418
  498TIP3    H2 1501   3.162   5.416   2.329
  499TIP3   OH2 1502   3.515   5.702   1.412
  499TIP3    H1 1503   3.591   5.726   1.359
  499TIP3    H2 1504   3.548   5.635   1.472
  500TIP3   OH2 1505   1.708   0.830   1.549
  500TIP3    H1 1506   1.618   0.847   1.577
  500TIP3    H2 1507   1.755   0.814   1.630
  501TIP3   OH2 1508   6.083   4.394   4.486
  501TIP3    H1 1509   5.994   4.360   4.493
  501TIP3    H2 1510   6.138   4.317   4.482
  502TIP3   OH2 1511   2.616   4.387   4.507
  502TIP3    H1 1512   2.571   4.338   4.576
  502TIP3    H2 1513   2.545   4.423   4.453
  503TIP3   OH2 1514   4.109   1.964   4.632
  503TIP3    H1 1515   4.205   1.962   4.637
  503TIP3    H2 1516   4.086   2.056   4.643
  504TIP3   OH2 1517   0.912   5.309   1.313
  504TIP3    H1 1518   0.902   5.332   1.405
  504TIP3    H2 1519   0.839   5.353   1.269
  505TIP3   OH2 1520   0.615   2.894   4.187
  505TIP3    H1 1521   0.604   2.845   4.105
  505TIP3    H2 1522   0.542   2.956   4.187
  506TIP3   OH2 1523   2.497   5.439   4.573
  506TIP3    H1 1524   2.435   5.369   4.553
  506TIP3    H2 1525   2.567   5.428   4.508
  507TIP3   OH2 1526   5.044   1.818   5.047
  507TIP3    H1 1527   4.968   1.790   5.098
  507TIP3    H2 1528   5.009   1.882   4.985
  508TIP3   OH2 1529   2.062   0.889   2.416
  508TIP3    H1 1530   2.055   0.853   2.505
  508TIP3    H2 1531   2.133   0.838   2.375
  509TIP3   OH2 1532   1.234   3.993   1.622
  509TIP3    H1 1533   1.232   4.089   1.618
  509TIP3    H2 1534   1.147   3.969   1.655
  510TIP3   OH2 1535   3.801   0.857   2.925
  510TIP3    H1 1536   3.796   0.952   2.934
  510TIP3    H2 1537   3.882   0.833   2.970
  511TIP3   OH2 1538   6.312   2.242   0.127
  511TIP3    H1 1539   6.320   2.176   0.197
  511TIP3    H2 1540   6.243   2.301   0.158
  512TIP3   OH2 1541   0.930   4.813   0.487
  512TIP3    H1 1542   0.868   4.886   0.483
  512TIP3    H2 1543   0.942   4.786   0.396
  513TIP3   OH2 1544   2.872   4.367   4.747
  513TIP3    H1 1545   2.918   4.361   4.831
  513TIP3    H2 1546   2.796   4.422   4.765
  514TIP3   OH2 1547   1.699   3.745   2.804
  514TIP3    H1 1548   1.734   3.755   2.892
  514TIP3    H2 1549   1.773   3.762   2.746
  515TIP3   OH2 1550   6.031   5.256   1.771
  515TIP3    H1 1551   6.065   5.244   1.682
  515TIP3    H2 1552   6.067   5.341   1.799
  516TIP3   OH2 1553   1.655   2.835   3.678
  516TIP3    H1 1554   1.613   2.842   3.763
  516TIP3    H2 1555   1.721   2.766   3.689
  517TIP3   OH2 1556   1.835   0.174   2.238
  517TIP3    H1 1557   1.882   0.232   2.178
  517TIP3    H2 1558   1.903   0.132   2.290
  518TIP3   OH2 1559   5.881   4.369   4.165
  518TIP3    H1 1560   5.931   4.287   4.167
  518TIP3    H2 1561   5.840   4.374   4.252
  519TIP3   OH2 1562   0.081   4.031   4.043
  519TIP3    H1 1563   0.034   4.074   3.972
  519TIP3    H2 1564   0.014   4.007   4.106
  520TIP3   OH2 1565   5.324   3.967   5.129
  520TIP3    H1 1566   5.317   4.062   5.125
  520TIP3    H2 1567   5.383   3.950   5.203
  521TIP3   OH2 1568   5.502   0.745   1.377
  521TIP3    H1 1569   5.578   0.786   1.337
  521TIP3    H2 1570   5.537   0.699   1.454
  522TIP3   OH2 1571   4.008   4.213   3.843
  522TIP3    H1 1572   4.064   4.142   3.815
  522TIP3    H2 1573   4.005   4.273   3.768
  523TIP3   OH2 1574   3.724   4.411   1.724
  523TIP3    H1 1575   3.751   4.357   1.650
  523TIP3    H2 1576   3.683   4.350   1.785
  524TIP3   OH2 1577   0.433   2.701   0.662
  524TIP3    H1 1578   0.443   2.746   0.746
  524TIP3    H2 1579   0.493   2.626   0.667
  525TIP3   OH2 1580   0.339   4.901   4.561
  525TIP3    H1 1581   0.344   4.873   4.469
  525TIP3    H2 1582   0.258   4.951   4.567
  526TIP3   OH2 1583   1.429   1.385   2.678
  526TIP3    H1 1584   1.446   1.295   2.649
  526TIP3    H2 1585   1.351   1.378   2.733
  527TIP3   OH2 1586   1.492   5.311   4.337
  527TIP3    H1 1587   1.406   5.336   4.370
  527TIP3    H2 1588   1.489   5.328   4.243
  528TIP3   OH2 1589   5.745   4.289   0.270
  528TIP3    H1 1590   5.736   4.197   0.247
  528TIP3    H2 1591   5.783   4.330   0.193
  529TIP3   OH2 1592   5.848   3.969   3.462
  529TIP3    H1 1593   5.796   4.020   3.524
  529TIP3    H2 1594   5.835   3.878   3.488
  530TIP3   OH2 1595   2.512   4.805   2.138
  530TIP3    H1 1596   2.596   4.850   2.134
  530TIP3    H2 1597   2.529   4.726   2.190
  531TIP3   OH2 1598   6.004   2.465   1.385
  531TIP3    H1 1599   6.038   2.551   1.410
  531TIP3    H2 1600   5.911   2.469   1.408
  532TIP3   OH2 1601   2.458   3.358   2.071
  532TIP3    H1 1602   2.549   3.382   2.054
  532TIP3    H2 1603   2.413   3.371   1.988
  533TIP3   OH2 1604   3.251   0.044   4.532
  533TIP3    H1 1605   3.177   0.059   4.474
  533TIP3    H2 1606   3.243   0.113   4.598
  534TIP3   OH2 1607   1.953   5.510   0.264
  534TIP3    H1 1608   2.047   5.518   0.246
  534TIP3    H2 1609   1.912   5.514   0.177
  535TIP3   OH2 1610   0.642   4.575   3.558
  535TIP3    H1 1611   0.596   4.493   3.577
  535TIP3    H2 1612   0.636   4.625   3.640
  536TIP3   OH2 1613   1.416   5.843   2.055
  536TIP3    H1 1614   1.321   5.857   2.056
  536TIP3    H2 1615   1.453   5.931   2.051
  537TIP3   OH2 1616   1.857   0.830   1.795
  537TIP3    H1 1617   1.949   0.854   1.801
  537TIP3    H2 1618   1.857   0.735   1.796
  538TIP3   OH2 1619   6.164   5.495   1.769
  538TIP3    H1 1620   6.085   5.550   1.772
  538TIP3    H2 1621   6.192   5.499   1.677
  539TIP3   OH2 1622   5.983   5.977   3.096
  539TIP3    H1 1623   5.926   6.048   3.124
  539TIP3    H2 1624   6.019   6.005   3.013
  540TIP3   OH2 1625   5.498   3.998   3.548
  540TIP3    H1 1626   5.478   3.963   3.461
  540TIP3    H2 1627   5.452   3.941   3.609
  541TIP3   OH2 1628   5.493   4.428   0.320
  541TIP3    H1 1629   5.429   4.363   0.347
  541TIP3    H2 1630   5.569   4.377   0.292
  542TIP3   OH2 1631   1.787   1.586   3.237
  542TIP3    H1 1632   1.859   1.601   3.176
  542TIP3    H2 1633   1.800   1.496   3.268
  543TIP3   OH2 1634   2.059   4.106   2.682
  543TIP3    H1 1635   2.017   4.167   2.621
  543TIP3    H2 1636   2.011   4.117   2.764
  544TIP3   OH2 1637   5.941   3.856   0.206
  544TIP3    H1 1638   6.035   3.855   0.220
  544TIP3    H2 1639   5.930   3.841   0.113
  545TIP3   OH2 1640   2.687   3.054   1.449
  545TIP3    H1 1641   2.673   3.015   1.363
  545TIP3    H2 1642   2.628   3.129   1.451
  546TIP3   OH2 1643   5.738   2.216   2.443
  546TIP3    H1 1644   5.799   2.279   2.407
  546TIP3    H2 1645   5.782   2.181   2.520
  547TIP3   OH2 1646   2.972   2.227   4.886
  547TIP3    H1 1647   2.941   2.302   4.936
  547TIP3    H2 1648   2.893   2.174   4.872
  548TIP3   OH2 1649   2.899   3.030   4.107
  548TIP3    H1 1650   2.822   2.978   4.086
  548TIP3    H2 1651   2.872   3.120   4.090
  549TIP3   OH2 1652   5.133   5.446   0.770
  549TIP3    H1 1653   5.191   5.382   0.811
  549TIP3    H2 1654   5.054   5.445   0.825
  550TIP3   OH2 1655   1.896   0.211   3.602
  550TIP3    H1 1656   1.818   0.244   3.558
  550TIP3    H2 1657   1.936   0.289   3.642
  551TIP3   OH2 1658   1.404   3.476   0.268
  551TIP3    H1 1659   1.451   3.555   0.295
  551TIP3    H2 1660   1.442   3.453   0.183
  552TIP3   OH2 1661   2.718   3.497   3.113
  552TIP3    H1 1662   2.696   3.525   3.024
  552TIP3    H2 1663   2.716   3.578   3.165
  553TIP3   OH2 1664   0.153   1.762   0.971
  553TIP3    H1 1665   0.080   1.789   0.915
  553TIP3    H2 1666   0.219   1.730   0.910
  554TIP3   OH2 1667   3.151   3.716   1.310
  554TIP3    H1 1668   3.154   3.767   1.391
  554TIP3    H2 1669   3.063   3.733   1.275
  555TIP3   OH2 1670   5.091   2.379   2.341
  555TIP3    H1 1671   5.130   2.423   2.266
  555TIP3    H2 1672   5.019   2.436   2.368
  556TIP3   OH2 1673   5.850   0.562   0.306
  556TIP3    H1 1674   5.899   0.578   0.387
  556TIP3    H2 1675   5.792   0.637   0.297
  557TIP3   OH2 1676   5.024   2.015   2.520
  557TIP3    H1 1677   4.973   2.006   2.440
  557TIP3    H2 1678   5.095   2.075   2.497
  558TIP3   OH2 1679   1.381   1.083   1.240
  558TIP3    H1 1680   1.477   1.077   1.238
  558TIP3    H2 1681   1.356   1.091   1.149
  559TIP3   OH2 1682   5.841   5.066   5.031
  559TIP3    H1 1683   5.866   5.156   5.051
  559TIP3    H2 1684   5.839   5.062   4.935
  560TIP3   OH2 1685   1.414   0.255   2.559
  560TIP3    H1 1686   1.419   0.223   2.469
  560TIP3    H2 1687   1.399   0.349   2.551
  561TIP3   OH2 1688   5.535   5.329   3.764
  561TIP3    H1 1689   5.465   5.301   3.822
  561TIP3    H2 1690   5.615   5.309   3.813
  562TIP3   OH2 1691   1.307   4.027   1.897
  562TIP3    H1 1692   1.276   4.115   1.875
  562TIP3    H2 1693   1.280   3.972   1.823
  563TIP3   OH2 1694   1.401   4.862   3.490
  563TIP3    H1 1695   1.336   4.807   3.445
  563TIP3    H2 1696   1.477   4.863   3.432
  564TIP3   OH2 1697   5.020   3.988   4.646
  564TIP3    H1 1698   4.947   4.037   4.684
  564TIP3    H2 1699   5.091   4.052   4.640
  565TIP3   OH2 1700   4.147   5.005   4.542
  565TIP3    H1 1701   4.230   5.052   4.556
  565TIP3    H2 1702   4.147   4.984   4.448
  566TIP3   OH2 1703   0.281   4.780   3.306
  566TIP3    H1 1704   0.249   4.724   3.376
  566TIP3    H2 1705   0.340   4.841   3.349
  567TIP3   OH2 1706   3.330   5.371   1.912
  567TIP3    H1 1707   3.266   5.435   1.944
  567TIP3    H2 1708   3.377   5.342   1.990
  568TIP3   OH2 1709   1.987   5.509   1.156
  568TIP3    H1 1710   2.028   5.594   1.169
  568TIP3    H2 1711   2.036   5.450   1.215
  569TIP3   OH2 1712   2.856   0.321   1.709
  569TIP3    H1 1713   2.773   0.293   1.672
  569TIP3    H2 1714   2.922   0.289   1.648
  570TIP3   OH2 1715   3.855   2.676   2.385
  570TIP3    H1 1716   3.938   2.673   2.433
  570TIP3    H2 1717   3.813   2.756   2.416
  571TIP3   OH2 1718   2.301   2.363   3.641
  571TIP3    H1 1719   2.319   2.376   3.734
  571TIP3    H2 1720   2.363   2.295   3.614
  572TIP3   OH2 1721   0.800   0.655   0.023
  572TIP3    H1 1722   0.857   0.682   0.095
  572TIP3    H2 1723   0.805   0.559   0.024
  573TIP3   OH2 1724   2.663   4.439   0.945
  573TIP3    H1 1725   2.740   4.390   0.915
  573TIP3    H2 1726   2.626   4.384   1.014
  574TIP3   OH2 1727   4.780   5.847   1.941
  574TIP3    H1 1728   4.779   5.753   1.956
  574TIP3    H2 1729   4.695   5.866   1.901
  575TIP3   OH2 1730   0.330   3.577   1.970
  575TIP3    H1 1731   0.382   3.608   1.896
  575TIP3    H2 1732   0.298   3.657   2.012
  576TIP3   OH2 1733   4.817   4.334   0.013
  576TIP3    H1 1734   4.885   4.368  -0.046
  576TIP3    H2 1735   4.746   4.397   0.007
  577TIP3   OH2 1736   1.041   4.679   1.434
  577TIP3    H1 1737   1.036   4.696   1.528
  577TIP3    H2 1738   0.952   4.696   1.402
  578TIP3   OH2 1739   4.497   2.067   1.327
  578TIP3    H1 1740   4.438   2.019   1.268
  578TIP3    H2 1741   4.488   2.158   1.300
  579TIP3   OH2 1742   0.067   3.331   2.531
  579TIP3    H1 1743   0.043   3.388   2.605
  579TIP3    H2 1744   0.158   3.354   2.513
  580TIP3   OH2 1745   4.561   1.552   0.229
  580TIP3    H1 1746   4.593   1.595   0.150
  580TIP3    H2 1747   4.475   1.589   0.244
  581TIP3   OH2 1748   1.476   2.332   2.935
  581TIP3    H1 1749   1.482   2.396   2.864
  581TIP3    H2 1750   1.391   2.349   2.976
  582TIP3   OH2 1751   3.229   5.588   0.930
  582TIP3    H1 1752   3.272   5.673   0.920
  582TIP3    H2 1753   3.239   5.566   1.023
  583TIP3   OH2 1754   1.143   1.305   0.100
  583TIP3    H1 1755   1.112   1.268   0.018
  583TIP3    H2 1756   1.229   1.342   0.078
  584TIP3   OH2 1757   6.134   1.566   3.718
  584TIP3    H1 1758   6.199   1.635   3.734
  584TIP3    H2 1759   6.185   1.485   3.718
  585TIP3   OH2 1760   3.097   2.755   5.190
  585TIP3    H1 1761   3.087   2.806   5.109
  585TIP3    H2 1762   3.187   2.724   5.187
  586TIP3   OH2 1763   5.368   3.331   3.009
  586TIP3    H1 1764   5.283   3.330   2.967
  586TIP3    H2 1765   5.430   3.350   2.938
  587TIP3   OH2 1766   1.580   5.150   0.532
  587TIP3    H1 1767   1.542   5.063   0.526
  587TIP3    H2 1768   1.559   5.179   0.621
  588TIP3   OH2 1769   5.209   5.673   3.365
  588TIP3    H1 1770   5.283   5.639   3.315
  588TIP3    H2 1771   5.249   5.727   3.433
  589TIP3   OH2 1772   1.157   2.736   1.876
  589TIP3    H1 1773   1.219   2.690   1.932
  589TIP3    H2 1774   1.142   2.819   1.922
  590TIP3   OH2 1775   5.956   5.258   4.291
  590TIP3    H1 1776   5.968   5.298   4.377
  590TIP3    H2 1777   5.925   5.330   4.235
  591TIP3   OH2 1778   0.873   0.609   2.844
  591TIP3    H1 1779   0.822   0.621   2.924
  591TIP3    H2 1780   0.958   0.576   2.874
  592TIP3   OH2 1781   3.694   1.616   0.391
  592TIP3    H1 1782   3.774   1.659   0.421
  592TIP3    H2 1783   3.638   1.614   0.468
  593TIP3   OH2 1784   2.857   5.506   0.905
  593TIP3    H1 1785   2.910   5.568   0.855
  593TIP3    H2 1786   2.898   5.502   0.991
  594TIP3   OH2 1787   2.311   3.241   4.666
  594TIP3    H1 1788   2.324   3.233   4.761
  594TIP3    H2 1789   2.216   3.236   4.655
  595TIP3   OH2 1790   6.141   3.584   2.498
  595TIP3    H1 1791   6.180   3.580   2.411
  595TIP3    H2 1792   6.064   3.527   2.492
  596TIP3   OH2 1793   0.625   4.446   1.782
  596TIP3    H1 1794   0.691   4.438   1.851
  596TIP3    H2 1795   0.543   4.461   1.828
  597TIP3   OH2 1796   1.213   5.795   3.342
  597TIP3    H1 1797   1.224   5.869   3.403
  597TIP3    H2 1798   1.119   5.778   3.341
  598TIP3   OH2 1799   4.674   4.141   0.120
  598TIP3    H1 1800   4.665   4.063   0.065
  598TIP3    H2 1801   4.724   4.203   0.067
  599TIP3   OH2 1802   1.990   5.741   2.189
  599TIP3    H1 1803   2.023   5.672   2.247
  599TIP3    H2 1804   1.983   5.699   2.103
  600TIP3   OH2 1805   5.014   1.325   0.465
  600TIP3    H1 1806   4.946   1.385   0.434
  600TIP3    H2 1807   5.096   1.368   0.441
  601TIP3   OH2 1808   1.895   0.280   0.202
  601TIP3    H1 1809   1.921   0.245   0.117
  601TIP3    H2 1810   1.806   0.248   0.216
  602TIP3   OH2 1811   6.251   5.744   0.312
  602TIP3    H1 1812   6.191   5.721   0.241
  602TIP3    H2 1813   6.195   5.786   0.378
  603TIP3   OH2 1814   0.724   1.409   1.940
  603TIP3    H1 1815   0.731   1.450   1.854
  603TIP3    H2 1816   0.814   1.407   1.973
  604TIP3   OH2 1817   6.315   0.263   4.741
  604TIP3    H1 1818   6.221   0.282   4.732
  604TIP3    H2 1819   6.356   0.349   4.753
  605TIP3   OH2 1820   2.052   3.291   4.940
  605TIP3    H1 1821   1.985   3.227   4.919
  605TIP3    H2 1822   2.015   3.375   4.911
  606TIP3   OH2 1823   5.976   1.207   3.198
  606TIP3    H1 1824   5.890   1.245   3.218
  606TIP3    H2 1825   5.970   1.180   3.107
  607TIP3   OH2 1826   0.792   1.017   4.641
  607TIP3    H1 1827   0.807   0.934   4.595
  607TIP3    H2 1828   0.729   0.996   4.709
  608TIP3   OH2 1829   3.336   5.519   0.209
  608TIP3    H1 1830   3.376   5.492   0.292
  608TIP3    H2 1831   3.379   5.603   0.189
  609TIP3   OH2 1832   2.855   0.708   0.157
  609TIP3    H1 1833   2.828   0.618   0.139
  609TIP3    H2 1834   2.908   0.701   0.237
  610TIP3   OH2 1835   4.327   2.620   0.181
  610TIP3    H1 1836   4.369   2.648   0.100
  610TIP3    H2 1837   4.391   2.642   0.249
  611TIP3   OH2 1838   5.752   5.156   2.884
  611TIP3    H1 1839   5.801   5.238   2.885
  611TIP3    H2 1840   5.663   5.180   2.908
  612TIP3   OH2 1841   4.354   1.727   0.740
  612TIP3    H1 1842   4.273   1.680   0.716
  612TIP3    H2 1843   4.403   1.731   0.658
  613TIP3   OH2 1844   5.842   3.334   0.849
  613TIP3    H1 1845   5.922   3.329   0.902
  613TIP3    H2 1846   5.851   3.264   0.785
  614TIP3   OH2 1847   0.148   4.638   3.857
  614TIP3    H1 1848   0.129   4.729   3.880
  614TIP3    H2 1849   0.236   4.623   3.891
  615TIP3   OH2 1850   2.058   2.577   4.458
  615TIP3    H1 1851   2.004   2.501   4.433
  615TIP3    H2 1852   2.143   2.559   4.418
  616TIP3   OH2 1853   1.506   2.552   2.740
  616TIP3    H1 1854   1.445   2.623   2.717
  616TIP3    H2 1855   1.552   2.534   2.658
  617TIP3   OH2 1856   4.001   4.386   0.645
  617TIP3    H1 1857   4.084   4.405   0.689
  617TIP3    H2 1858   4.027   4.337   0.567
  618TIP3   OH2 1859   3.545   4.754   1.190
  618TIP3    H1 1860   3.501   4.740   1.274
  618TIP3    H2 1861   3.598   4.832   1.203
  619TIP3   OH2 1862   2.448   3.972   3.111
  619TIP3    H1 1863   2.500   3.917   3.052
  619TIP3    H2 1864   2.382   4.011   3.055
  620TIP3   OH2 1865   1.296   1.641   4.664
  620TIP3    H1 1866   1.385   1.622   4.636
  620TIP3    H2 1867   1.243   1.574   4.621
  621TIP3   OH2 1868   5.944   5.648   3.030
  621TIP3    H1 1869   5.972   5.734   3.060
  621TIP3    H2 1870   5.887   5.616   3.100
  622TIP3   OH2 1871   1.396   1.435   1.562
  622TIP3    H1 1872   1.337   1.373   1.520
  622TIP3    H2 1873   1.418   1.394   1.646
  623TIP3   OH2 1874   5.786   2.381   3.268
  623TIP3    H1 1875   5.870   2.341   3.289
  623TIP3    H2 1876   5.741   2.316   3.215
  624TIP3   OH2 1877   2.391   4.273   1.949
  624TIP3    H1 1878   2.471   4.274   2.002
  624TIP3    H2 1879   2.326   4.320   2.002
  625TIP3   OH2 1880   0.015   2.590   5.027
  625TIP3    H1 1881   0.000   2.653   5.098
  625TIP3    H2 1882   0.051   2.643   4.956
  626TIP3   OH2 1883   0.749   5.967   1.496
  626TIP3    H1 1884   0.829   6.000   1.537
  626TIP3    H2 1885   0.712   5.908   1.561
  627TIP3   OH2 1886   3.633   0.082   3.361
  627TIP3    H1 1887   3.702   0.015   3.365
  627TIP3    H2 1888   3.677   0.163   3.384
  628TIP3   OH2 1889   5.771   5.133   1.691
  628TIP3    H1 1890   5.833   5.185   1.742
  628TIP3    H2 1891   5.819   5.055   1.665
  629TIP3   OH2 1892   0.358   2.766   4.165
  629TIP3    H1 1893   0.447   2.768   4.198
  629TIP3    H2 1894   0.368   2.761   4.070
  630TIP3   OH2 1895   2.628   4.684   1.303
  630TIP3    H1 1896   2.535   4.702   1.314
  630TIP3    H2 1897   2.672   4.755   1.351
  631TIP3   OH2 1898   0.808   3.760   4.675
  631TIP3    H1 1899   0.899   3.732   4.680
  631TIP3    H2 1900   0.757   3.679   4.672
  632TIP3   OH2 1901   3.635   5.793   3.335
  632TIP3    H1 1902   3.540   5.794   3.340
  632TIP3    H2 1903   3.664   5.824   3.421
  633TIP3   OH2 1904   2.382   2.635   1.647
  633TIP3    H1 1905   2.340   2.630   1.561
  633TIP3    H2 1906   2.311   2.659   1.706
  634TIP3   OH2 1907   3.346   0.384   4.943
  634TIP3    H1 1908   3.351   0.433   5.025
  634TIP3    H2 1909   3.357   0.451   4.875
  635TIP3   OH2 1910   4.450   3.269   0.407
  635TIP3    H1 1911   4.544   3.278   0.420
  635TIP3    H2 1912   4.442   3.201   0.340
  636TIP3   OH2 1913   1.318   1.960   2.839
  636TIP3    H1 1914   1.394   1.966   2.896
  636TIP3    H2 1915   1.246   1.933   2.897
  637TIP3   OH2 1916   5.080   1.161   0.692
  637TIP3    H1 1917   5.026   1.214   0.633
  637TIP3    H2 1918   5.079   1.208   0.775
  638TIP3   OH2 1919   5.598   2.362   4.121
  638TIP3    H1 1920   5.558   2.343   4.036
  638TIP3    H2 1921   5.682   2.315   4.119
  639TIP3   OH2 1922   2.582   1.415   3.188
  639TIP3    H1 1923   2.576   1.442   3.280
  639TIP3    H2 1924   2.584   1.320   3.192
  640TIP3   OH2 1925   5.626   0.416   0.411
  640TIP3    H1 1926   5.575   0.488   0.374
  640TIP3    H2 1927   5.716   0.436   0.389
  641TIP3   OH2 1928   5.932   5.500   4.085
  641TIP3    H1 1929   6.020   5.539   4.079
  641TIP3    H2 1930   5.873   5.573   4.063
  642TIP3   OH2 1931   3.616   4.143   1.336
  642TIP3    H1 1932   3.522   4.125   1.340
  642TIP3    H2 1933   3.650   4.083   1.269
  643TIP3   OH2 1934   5.872   3.389   2.397
  643TIP3    H1 1935   5.783   3.365   2.372
  643TIP3    H2 1936   5.882   3.357   2.487
  644TIP3   OH2 1937   1.836   3.876   1.404
  644TIP3    H1 1938   1.783   3.918   1.337
  644TIP3    H2 1939   1.816   3.925   1.484
  645TIP3   OH2 1940   4.484   0.975   1.397
  645TIP3    H1 1941   4.446   1.002   1.313
  645TIP3    H2 1942   4.408   0.960   1.454
  646TIP3   OH2 1943   0.450   2.781   1.850
  646TIP3    H1 1944   0.451   2.749   1.760
  646TIP3    H2 1945   0.432   2.703   1.903
  647TIP3   OH2 1946   4.261   3.589   4.547
  647TIP3    H1 1947   4.270   3.553   4.459
  647TIP3    H2 1948   4.245   3.513   4.602
  648TIP3   OH2 1949   2.250   5.913   0.092
  648TIP3    H1 1950   2.319   5.850   0.116
  648TIP3    H2 1951   2.172   5.860   0.079
  649TIP3   OH2 1952   1.228   0.084   3.130
  649TIP3    H1 1953   1.181   0.024   3.072
  649TIP3    H2 1954   1.259   0.029   3.201
  650TIP3   OH2 1955   1.656   2.619   2.503
  650TIP3    H1 1956   1.678   2.710   2.485
  650TIP3    H2 1957   1.575   2.603   2.454
  651TIP3   OH2 1958   4.160   4.306   4.600
  651TIP3    H1 1959   4.243   4.350   4.619
  651TIP3    H2 1960   4.155   4.304   4.504
  652TIP3   OH2 1961   5.840   0.400   3.251
  652TIP3    H1 1962   5.771   0.335   3.268
  652TIP3    H2 1963   5.921   0.349   3.254
  653TIP3   OH2 1964   0.625   3.340   3.718
  653TIP3    H1 1965   0.719   3.353   3.730
  653TIP3    H2 1966   0.611   3.349   3.623
  654TIP3   OH2 1967   2.845   2.818   1.058
  654TIP3    H1 1968   2.902   2.773   1.121
  654TIP3    H2 1969   2.904   2.845   0.988
  655TIP3   OH2 1970   3.707   2.126   1.304
  655TIP3    H1 1971   3.717   2.086   1.391
  655TIP3    H2 1972   3.634   2.080   1.264
  656TIP3   OH2 1973   1.597   3.095   5.004
  656TIP3    H1 1974   1.552   3.137   5.077
  656TIP3    H2 1975   1.538   3.108   4.929
  657TIP3   OH2 1976   2.378   5.476   0.854
  657TIP3    H1 1977   2.301   5.476   0.798
  657TIP3    H2 1978   2.452   5.490   0.795
  658TIP3   OH2 1979   4.806   2.045   0.870
  658TIP3    H1 1980   4.719   2.009   0.859
  658TIP3    H2 1981   4.815   2.060   0.964
  659TIP3   OH2 1982   3.697   5.219   0.718
  659TIP3    H1 1983   3.778   5.203   0.766
  659TIP3    H2 1984   3.707   5.308   0.684
  660TIP3   OH2 1985   2.549   0.443   0.904
  660TIP3    H1 1986   2.616   0.385   0.866
  660TIP3    H2 1987   2.546   0.420   0.996
  661TIP3   OH2 1988   1.721   3.977   4.019
  661TIP3    H1 1989   1.695   3.885   4.021
  661TIP3    H2 1990   1.644   4.022   3.986
  662TIP3   OH2 1991   2.081   2.206   3.683
  662TIP3    H1 1992   2.134   2.129   3.704
  662TIP3    H2 1993   2.144   2.277   3.675
  663TIP3   OH2 1994   2.335   4.830   4.085
  663TIP3    H1 1995   2.302   4.742   4.102
  663TIP3    H2 1996   2.415   4.835   4.139
  664TIP3   OH2 1997   3.316   0.537   4.039
  664TIP3    H1 1998   3.257   0.482   4.091
  664TIP3    H2 1999   3.277   0.624   4.044
  665TIP3   OH2 2000   6.066   0.048   3.022
  665TIP3    H1 2001   5.994  -0.015   3.021
  665TIP3    H2 2002   6.049   0.105   2.947
  666TIP3   OH2 2003   0.188   5.285   2.360
  666TIP3    H1 2004   0.283   5.279   2.357
  666TIP3    H2 2005   0.159   5.194   2.370
  667TIP3   OH2 2006   1.190   1.684   2.152
  667TIP3    H1 2007   1.119   1.733   2.194
  667TIP3    H2 2008   1.149   1.602   2.125
  668TIP3   OH2 2009   2.626   3.489   1.136
  668TIP3    H1 2010   2.555   3.428   1.156
  668TIP3    H2 2011   2.584   3.559   1.086
  669TIP3   OH2 2012   4.756   0.391   4.448
  669TIP3    H1 2013   4.662   0.399   4.439
  669TIP3    H2 2014   4.769   0.311   4.500
  670TIP3   OH2 2015   0.118   5.995   4.750
  670TIP3    H1 2016   0.194   5.937   4.752
  670TIP3    H2 2017   0.113   6.026   4.660
  671TIP3   OH2 2018   6.006   1.648   5.036
  671TIP3    H1 2019   6.097   1.674   5.023
  671TIP3    H2 2020   5.957   1.729   5.026
  672TIP3   OH2 2021   1.219   5.562   3.550
  672TIP3    H1 2022   1.233   5.603   3.465
  672TIP3    H2 2023   1.156   5.619   3.594
  673TIP3   OH2 2024   4.331   4.606   2.728
  673TIP3    H1 2025   4.318   4.633   2.819
  673TIP3    H2 2026   4.426   4.594   2.720
  674TIP3   OH2 2027   5.688   2.641   3.221
  674TIP3    H1 2028   5.713   2.549   3.233
  674TIP3    H2 2029   5.603   2.637   3.177
  675TIP3   OH2 2030   5.261   0.403   2.506
  675TIP3    H1 2031   5.338   0.348   2.503
  675TIP3    H2 2032   5.200   0.357   2.563
  676TIP3   OH2 2033   2.800   5.018   3.516
  676TIP3    H1 2034   2.704   5.022   3.520
  676TIP3    H2 2035   2.823   5.069   3.439
  677TIP3   OH2 2036   3.201   0.077   3.213
  677TIP3    H1 2037   3.285   0.113   3.183
  677TIP3    H2 2038   3.211   0.066   3.308
  678TIP3   OH2 2039   4.242   5.218   4.284
  678TIP3    H1 2040   4.231   5.248   4.374
  678TIP3    H2 2041   4.233   5.297   4.231
  679TIP3   OH2 2042   4.874   2.428   1.255
  679TIP3    H1 2043   4.781   2.423   1.231
  679TIP3    H2 2044   4.888   2.350   1.309
  680TIP3   OH2 2045   5.974   0.450   1.525
  680TIP3    H1 2046   5.924   0.529   1.504
  680TIP3    H2 2047   5.916   0.378   1.501
  681TIP3   OH2 2048   5.241   1.696   4.466
  681TIP3    H1 2049   5.232   1.683   4.561
  681TIP3    H2 2050   5.243   1.607   4.430
  682TIP3   OH2 2051   2.714   0.921   1.451
  682TIP3    H1 2052   2.621   0.898   1.442
  682TIP3    H2 2053   2.718   0.974   1.530
  683TIP3   OH2 2054   3.554   3.673   1.647
  683TIP3    H1 2055   3.631   3.718   1.682
  683TIP3    H2 2056   3.516   3.628   1.722
  684TIP3   OH2 2057   0.572   0.096   3.677
  684TIP3    H1 2058   0.549   0.104   3.585
  684TIP3    H2 2059   0.518   0.162   3.721
  685TIP3   OH2 2060   0.356   3.699   4.545
  685TIP3    H1 2061   0.340   3.679   4.637
  685TIP3    H2 2062   0.321   3.624   4.498
  686TIP3   OH2 2063   1.908   5.455   1.532
  686TIP3    H1 2064   1.888   5.529   1.476
  686TIP3    H2 2065   1.851   5.384   1.501
  687TIP3   OH2 2066   1.394   3.908   2.535
  687TIP3    H1 2067   1.304   3.930   2.559
  687TIP3    H2 2068   1.387   3.821   2.494
  688TIP3   OH2 2069   0.247   2.942   3.653
  688TIP3    H1 2070   0.180   2.956   3.587
  688TIP3    H2 2071   0.330   2.959   3.608
  689TIP3   OH2 2072   1.101   0.847   3.737
  689TIP3    H1 2073   1.039   0.836   3.809
  689TIP3    H2 2074   1.051   0.894   3.670
  690TIP3   OH2 2075   5.850   0.435   0.703
  690TIP3    H1 2076   5.907   0.420   0.778
  690TIP3    H2 2077   5.900   0.492   0.645
  691TIP3   OH2 2078   0.946   2.037   3.430
  691TIP3    H1 2079   0.915   2.060   3.342
  691TIP3    H2 2080   1.018   1.976   3.415
  692TIP3   OH2 2081   2.993   5.526   3.624
  692TIP3    H1 2082   2.994   5.542   3.529
  692TIP3    H2 2083   2.909   5.562   3.653
  693TIP3   OH2 2084   4.705   2.542   4.178
  693TIP3    H1 2085   4.611   2.548   4.162
  693TIP3    H2 2086   4.736   2.479   4.113
  694TIP3   OH2 2087   4.822   3.228   3.939
  694TIP3    H1 2088   4.891   3.167   3.967
  694TIP3    H2 2089   4.870   3.301   3.900
  695TIP3   OH2 2090   2.502   2.593   2.088
  695TIP3    H1 2091   2.514   2.498   2.080
  695TIP3    H2 2092   2.479   2.622   1.999
  696TIP3   OH2 2093   5.794   5.431   0.409
  696TIP3    H1 2094   5.839   5.451   0.491
  696TIP3    H2 2095   5.702   5.418   0.435
  697TIP3   OH2 2096   3.307   5.012   2.400
  697TIP3    H1 2097   3.213   5.027   2.397
  697TIP3    H2 2098   3.321   4.965   2.483
  698TIP3   OH2 2099   1.284   5.194   3.629
  698TIP3    H1 2100   1.320   5.245   3.556
  698TIP3    H2 2101   1.207   5.151   3.593
  699TIP3   OH2 2102   4.398   2.732   2.848
  699TIP3    H1 2103   4.411   2.689   2.763
  699TIP3    H2 2104   4.485   2.762   2.874
  700TIP3   OH2 2105   2.766   0.061   1.045
  700TIP3    H1 2106   2.737   0.111   1.122
  700TIP3    H2 2107   2.848   0.021   1.072
  701TIP3   OH2 2108   3.983   0.024   1.794
  701TIP3    H1 2109   3.967   0.114   1.824
  701TIP3    H2 2110   3.895  -0.012   1.779
  702TIP3   OH2 2111   5.056  -0.013   2.126
  702TIP3    H1 2112   4.992   0.000   2.056
  702TIP3    H2 2113   5.011   0.016   2.205
  703TIP3   OH2 2114   0.843   5.637   4.008
  703TIP3    H1 2115   0.915   5.691   4.039
  703TIP3    H2 2116   0.768   5.697   4.005
  704TIP3   OH2 2117   3.789   3.428   0.474
  704TIP3    H1 2118   3.710   3.469   0.509
  704TIP3    H2 2119   3.778   3.335   0.494
  705TIP3   OH2 2120   3.259   0.095   0.125
  705TIP3    H1 2121   3.271   0.001   0.109
  705TIP3    H2 2122   3.175   0.100   0.172
  706TIP3   OH2 2123   3.296   3.160   1.953
  706TIP3    H1 2124   3.221   3.205   1.992
  706TIP3    H2 2125   3.311   3.206   1.870
  707TIP3   OH2 2126   5.162   1.615   1.468
  707TIP3    H1 2127   5.163   1.522   1.446
  707TIP3    H2 2128   5.110   1.655   1.399
  708TIP3   OH2 2129   4.455   3.134   1.724
  708TIP3    H1 2130   4.359   3.130   1.726
  708TIP3    H2 2131   4.483   3.044   1.734
  709TIP3   OH2 2132   4.434   5.831   3.834
  709TIP3    H1 2133   4.485   5.831   3.916
  709TIP3    H2 2134   4.389   5.747   3.835
  710TIP3   OH2 2135   1.252   0.707   0.680
  710TIP3    H1 2136   1.266   0.653   0.757
  710TIP3    H2 2137   1.325   0.770   0.681
  711TIP3   OH2 2138   3.585   3.840   2.328
  711TIP3    H1 2139   3.580   3.792   2.411
  711TIP3    H2 2140   3.495   3.868   2.311
  712TIP3   OH2 2141   0.502   4.051   2.336
  712TIP3    H1 2142   0.555   4.090   2.266
  712TIP3    H2 2143   0.420   4.101   2.334
  713TIP3   OH2 2144   4.870   2.299   0.037
  713TIP3    H1 2145   4.913   2.288   0.122
  713TIP3    H2 2146   4.815   2.221   0.029
  714TIP3   OH2 2147   1.939   4.908   2.260
  714TIP3    H1 2148   1.984   4.989   2.236
  714TIP3    H2 2149   1.846   4.930   2.256
  715TIP3   OH2 2150   2.212   0.201   1.877
  715TIP3    H1 2151   2.243   0.138   1.943
  715TIP3    H2 2152   2.206   0.284   1.924
  716TIP3   OH2 2153   5.794   3.557   0.259
  716TIP3    H1 2154   5.720   3.617   0.261
  716TIP3    H2 2155   5.776   3.498   0.186
  717TIP3   OH2 2156   5.505   4.648   0.783
  717TIP3    H1 2157   5.546   4.570   0.747
  717TIP3    H2 2158   5.579   4.704   0.809
  718TIP3   OH2 2159   4.746   0.890   0.289
  718TIP3    H1 2160   4.662   0.936   0.281
  718TIP3    H2 2161   4.805   0.938   0.231
  719TIP3   OH2 2162   4.896   0.735   4.512
  719TIP3    H1 2163   4.801   0.720   4.517
  719TIP3    H2 2164   4.934   0.649   4.527
  720TIP3   OH2 2165   4.279   4.103   2.361
  720TIP3    H1 2166   4.368   4.088   2.393
  720TIP3    H2 2167   4.228   4.123   2.440
  721TIP3   OH2 2168   2.203   5.049   4.195
  721TIP3    H1 2169   2.109   5.036   4.186
  721TIP3    H2 2170   2.242   4.969   4.160
  722TIP3   OH2 2171   4.047   0.036   1.529
  722TIP3    H1 2172   3.968   0.085   1.506
  722TIP3    H2 2173   4.037   0.017   1.622
  723TIP3   OH2 2174   5.742   4.004   1.751
  723TIP3    H1 2175   5.780   4.070   1.692
  723TIP3    H2 2176   5.668   4.049   1.793
  724TIP3   OH2 2177   1.472   4.862   0.087
  724TIP3    H1 2178   1.522   4.934   0.049
  724TIP3    H2 2179   1.533   4.819   0.146
  725TIP3   OH2 2180   2.939   1.707  -0.018
  725TIP3    H1 2181   2.999   1.713  -0.092
  725TIP3    H2 2182   2.966   1.777   0.041
  726TIP3   OH2 2183   3.858   1.399   1.402
  726TIP3    H1 2184   3.915   1.406   1.479
  726TIP3    H2 2185   3.784   1.346   1.431
  727TIP3   OH2 2186   3.850   4.085   2.035
  727TIP3    H1 2187   3.822   4.172   2.063
  727TIP3    H2 2188   3.871   4.095   1.943
  728TIP3   OH2 2189   0.853   0.452   4.206
  728TIP3    H1 2190   0.915   0.474   4.275
  728TIP3    H2 2191   0.783   0.517   4.214
  729TIP3   OH2 2192   1.460   1.998   1.309
  729TIP3    H1 2193   1.510   1.918   1.296
  729TIP3    H2 2194   1.369   1.973   1.294
  730TIP3   OH2 2195   6.122   5.387   0.275
  730TIP3    H1 2196   6.215   5.397   0.296
  730TIP3    H2 2197   6.084   5.350   0.355
  731TIP3   OH2 2198   3.039   5.111   2.503
  731TIP3    H1 2199   2.981   5.115   2.427
  731TIP3    H2 2200   3.011   5.033   2.550
  732TIP3   OH2 2201   4.130   2.758   1.317
  732TIP3    H1 2202   4.138   2.826   1.250
  732TIP3    H2 2203   4.178   2.793   1.392
  733TIP3   OH2 2204   5.256   2.744   1.029
  733TIP3    H1 2205   5.181   2.693   1.059
  733TIP3    H2 2206   5.330   2.710   1.079
  734TIP3   OH2 2207   4.509   5.437   3.949
  734TIP3    H1 2208   4.483   5.486   4.027
  734TIP3    H2 2209   4.488   5.496   3.876
  735TIP3   OH2 2210   4.947   2.638   3.675
  735TIP3    H1 2211   4.996   2.642   3.593
  735TIP3    H2 2212   4.998   2.580   3.731
  736TIP3   OH2 2213   4.230   4.963   5.226
  736TIP3    H1 2214   4.253   5.050   5.192
  736TIP3    H2 2215   4.238   4.906   5.150
  737TIP3   OH2 2216   0.968   2.174   0.294
  737TIP3    H1 2217   0.963   2.265   0.264
  737TIP3    H2 2218   1.044   2.138   0.249
  738TIP3   OH2 2219   5.586   2.894   4.224
  738TIP3    H1 2220   5.620   2.814   4.185
  738TIP3    H2 2221   5.587   2.877   4.318
  739TIP3   OH2 2222   3.981   0.929   1.824
  739TIP3    H1 2223   4.058   0.945   1.769
  739TIP3    H2 2224   3.950   0.842   1.796
  740TIP3   OH2 2225   4.842   2.978   0.064
  740TIP3    H1 2226   4.837   2.996   0.158
  740TIP3    H2 2227   4.882   3.057   0.027
  741TIP3   OH2 2228   2.201   1.832   1.795
  741TIP3    H1 2229   2.219   1.751   1.748
  741TIP3    H2 2230   2.218   1.901   1.730
  742TIP3   OH2 2231   3.033   4.956   3.636
  742TIP3    H1 2232   2.960   4.973   3.577
  742TIP3    H2 2233   3.047   5.040   3.681
  743TIP3   OH2 2234   0.919   2.893   1.560
  743TIP3    H1 2235   0.953   2.972   1.603
  743TIP3    H2 2236   0.984   2.826   1.578
  744TIP3   OH2 2237   4.327   5.621   0.921
  744TIP3    H1 2238   4.252   5.671   0.954
  744TIP3    H2 2239   4.385   5.613   0.996
  745TIP3   OH2 2240   5.336   3.068   3.620
  745TIP3    H1 2241   5.302   3.030   3.539
  745TIP3    H2 2242   5.276   3.140   3.640
  746TIP3   OH2 2243   3.267   0.797   2.791
  746TIP3    H1 2244   3.220   0.846   2.723
  746TIP3    H2 2245   3.357   0.828   2.785
  747TIP3   OH2 2246   2.966   0.981   1.541
  747TIP3    H1 2247   3.009   1.000   1.458
  747TIP3    H2 2248   2.886   0.935   1.516
  748TIP3   OH2 2249   5.177   5.806   1.475
  748TIP3    H1 2250   5.217   5.755   1.546
  748TIP3    H2 2251   5.198   5.756   1.396
  749TIP3   OH2 2252   4.244   1.062   1.885
  749TIP3    H1 2253   4.287   1.068   1.800
  749TIP3    H2 2254   4.315   1.060   1.949
  750TIP3   OH2 2255   5.872   1.125   0.863
  750TIP3    H1 2256   5.810   1.075   0.811
  750TIP3    H2 2257   5.954   1.121   0.814
  751TIP3   OH2 2258   2.063   5.179   2.231
  751TIP3    H1 2259   1.987   5.237   2.219
  751TIP3    H2 2260   2.116   5.223   2.299
  752TIP3   OH2 2261   3.030   2.755   1.685
  752TIP3    H1 2262   3.090   2.829   1.688
  752TIP3    H2 2263   3.082   2.683   1.649
  753TIP3   OH2 2264   4.002   3.135   3.842
  753TIP3    H1 2265   3.989   3.092   3.758
  753TIP3    H2 2266   4.024   3.063   3.902
  754TIP3   OH2 2267   1.400   1.816   2.391
  754TIP3    H1 2268   1.372   1.763   2.466
  754TIP3    H2 2269   1.454   1.885   2.429
  755TIP3   OH2 2270   6.090   1.555   2.673
  755TIP3    H1 2271   6.011   1.509   2.644
  755TIP3    H2 2272   6.084   1.558   2.768
  756TIP3   OH2 2273   0.546   5.441   1.591
  756TIP3    H1 2274   0.481   5.437   1.662
  756TIP3    H2 2275   0.543   5.532   1.561
  757TIP3   OH2 2276   4.788   5.764   4.598
  757TIP3    H1 2277   4.817   5.684   4.555
  757TIP3    H2 2278   4.703   5.741   4.637
  758TIP3   OH2 2279   4.851   5.146   2.066
  758TIP3    H1 2280   4.801   5.084   2.012
  758TIP3    H2 2281   4.847   5.229   2.019
  759TIP3   OH2 2282   0.962   0.784   3.968
  759TIP3    H1 2283   0.894   0.716   3.968
  759TIP3    H2 2284   0.937   0.842   4.041
  760TIP3   OH2 2285   1.162   0.292   1.697
  760TIP3    H1 2286   1.114   0.211   1.716
  760TIP3    H2 2287   1.129   0.355   1.761
  761TIP3   OH2 2288   1.295   1.982   2.090
  761TIP3    H1 2289   1.255   2.068   2.104
  761TIP3    H2 2290   1.229   1.933   2.042
  762TIP3   OH2 2291   2.470   3.766   0.585
  762TIP3    H1 2292   2.426   3.730   0.661
  762TIP3    H2 2293   2.474   3.860   0.602
  763TIP3   OH2 2294   0.864   1.932   0.771
  763TIP3    H1 2295   0.807   1.856   0.782
  763TIP3    H2 2296   0.837   1.993   0.839
  764TIP3   OH2 2297   1.168   4.497   3.169
  764TIP3    H1 2298   1.135   4.417   3.209
  764TIP3    H2 2299   1.250   4.515   3.216
  765TIP3   OH2 2300   0.275   1.484   3.808
  765TIP3    H1 2301   0.245   1.430   3.734
  765TIP3    H2 2302   0.273   1.424   3.883
  766TIP3   OH2 2303   2.074   0.559   2.836
  766TIP3    H1 2304   2.137   0.499   2.796
  766TIP3    H2 2305   1.989   0.517   2.821
  767TIP3   OH2 2306   5.587   1.030   3.282
  767TIP3    H1 2307   5.665   0.986   3.248
  767TIP3    H2 2308   5.615   1.064   3.368
  768TIP3   OH2 2309   2.477   4.954   0.828
  768TIP3    H1 2310   2.422   5.032   0.837
  768TIP3    H2 2311   2.447   4.896   0.898
  769TIP3   OH2 2312   4.358   3.181   2.917
  769TIP3    H1 2313   4.293   3.133   2.968
  769TIP3    H2 2314   4.309   3.216   2.843
  770TIP3   OH2 2315   1.610   5.738   0.671
  770TIP3    H1 2316   1.631   5.829   0.649
  770TIP3    H2 2317   1.516   5.739   0.689
  771TIP3   OH2 2318   0.147   5.679   4.703
  771TIP3    H1 2319   0.227   5.722   4.734
  771TIP3    H2 2320   0.160   5.670   4.608
  772TIP3   OH2 2321   2.246   1.698   3.568
  772TIP3    H1 2322   2.285   1.709   3.655
  772TIP3    H2 2323   2.280   1.773   3.518
  773TIP3   OH2 2324   0.348   2.514   1.924
  773TIP3    H1 2325   0.433   2.481   1.893
  773TIP3    H2 2326   0.313   2.442   1.975
  774TIP3   OH2 2327   0.712   4.041   0.928
  774TIP3    H1 2328   0.729   4.113   0.989
  774TIP3    H2 2329   0.638   3.994   0.966
  775TIP3   OH2 2330   4.610   5.496   2.437
  775TIP3    H1 2331   4.700   5.493   2.405
  775TIP3    H2 2332   4.610   5.565   2.503
  776TIP3   OH2 2333   4.149   0.348   2.402
  776TIP3    H1 2334   4.210   0.300   2.346
  776TIP3    H2 2335   4.113   0.417   2.346
  777TIP3   OH2 2336   1.641   1.414   1.373
  777TIP3    H1 2337   1.565   1.432   1.427
  777TIP3    H2 2338   1.624   1.460   1.291
  778TIP3   OH2 2339   5.831   2.540   2.587
  778TIP3    H1 2340   5.924   2.560   2.581
  778TIP3    H2 2341   5.799   2.549   2.497
  779TIP3   OH2 2342   5.117   2.771   0.615
  779TIP3    H1 2343   5.032   2.812   0.636
  779TIP3    H2 2344   5.137   2.803   0.527
  780TIP3   OH2 2345   5.926   4.762   1.402
  780TIP3    H1 2346   5.859   4.817   1.443
  780TIP3    H2 2347   5.985   4.738   1.474
  781TIP3   OH2 2348   2.656   0.838   2.441
  781TIP3    H1 2349   2.680   0.930   2.431
  781TIP3    H2 2350   2.674   0.819   2.533
  782TIP3   OH2 2351   0.161   5.280   5.165
  782TIP3    H1 2352   0.101   5.346   5.201
  782TIP3    H2 2353   0.236   5.330   5.135
  783TIP3   OH2 2354   2.532   2.576   4.282
  783TIP3    H1 2355   2.566   2.497   4.324
  783TIP3    H2 2356   2.610   2.631   4.270
  784TIP3   OH2 2357   3.761   1.877   1.839
  784TIP3    H1 2358   3.716   1.844   1.761
  784TIP3    H2 2359   3.841   1.918   1.805
  785TIP3   OH2 2360   0.549   1.699   1.535
  785TIP3    H1 2361   0.470   1.666   1.492
  785TIP3    H2 2362   0.539   1.794   1.533
  786TIP3   OH2 2363   0.155   3.233   0.606
  786TIP3    H1 2364   0.087   3.258   0.669
  786TIP3    H2 2365   0.236   3.237   0.656
  787TIP3   OH2 2366   0.730   1.680   1.313
  787TIP3    H1 2367   0.815   1.660   1.353
  787TIP3    H2 2368   0.675   1.705   1.387
  788TIP3   OH2 2369   1.960   1.507   1.712
  788TIP3    H1 2370   1.993   1.449   1.643
  788TIP3    H2 2371   2.038   1.531   1.762
  789TIP3   OH2 2372   2.268   1.047   4.034
  789TIP3    H1 2373   2.202   1.111   4.007
  789TIP3    H2 2374   2.230   1.004   4.111
  790TIP3   OH2 2375   0.934   2.631   0.686
  790TIP3    H1 2376   0.887   2.547   0.687
  790TIP3    H2 2377   0.877   2.690   0.638
  791TIP3   OH2 2378   5.245   4.440   4.497
  791TIP3    H1 2379   5.335   4.446   4.528
  791TIP3    H2 2380   5.251   4.460   4.403
  792TIP3   OH2 2381   3.881   2.125   1.077
  792TIP3    H1 2382   3.902   2.032   1.078
  792TIP3    H2 2383   3.816   2.136   1.146
  793TIP3   OH2 2384   0.111   2.713   2.340
  793TIP3    H1 2385   0.105   2.673   2.253
  793TIP3    H2 2386   0.098   2.641   2.401
  794TIP3   OH2 2387   3.789   1.173   0.933
  794TIP3    H1 2388   3.827   1.208   1.014
  794TIP3    H2 2389   3.836   1.219   0.863
  795TIP3   OH2 2390   4.938   4.955   2.891
  795TIP3    H1 2391   4.922   4.950   2.985
  795TIP3    H2 2392   5.008   5.019   2.882
  796TIP3   OH2 2393   1.026   3.815   2.676
  796TIP3    H1 2394   1.024   3.881   2.746
  796TIP3    H2 2395   1.058   3.862   2.599
  797TIP3   OH2 2396   4.194   1.245   3.513
  797TIP3    H1 2397   4.149   1.217   3.433
  797TIP3    H2 2398   4.143   1.321   3.543
  798TIP3   OH2 2399   5.372   4.403   3.771
  798TIP3    H1 2400   5.281   4.409   3.797
  798TIP3    H2 2401   5.420   4.446   3.841
  799TIP3   OH2 2402   1.876   4.822   3.389
  799TIP3    H1 2403   1.799   4.843   3.336
  799TIP3    H2 2404   1.841   4.783   3.469
  800TIP3   OH2 2405   3.732   4.980   1.288
  800TIP3    H1 2406   3.777   4.936   1.360
  800TIP3    H2 2407   3.788   4.965   1.212
  801TIP3   OH2 2408   4.325   4.352   2.037
  801TIP3    H1 2409   4.304   4.287   1.971
  801TIP3    H2 2410   4.370   4.421   1.989
  802TIP3   OH2 2411   1.132   2.969   1.018
  802TIP3    H1 2412   1.213   2.936   1.057
  802TIP3    H2 2413   1.093   2.893   0.975
  803TIP3   OH2 2414   0.794   4.242   3.635
  803TIP3    H1 2415   0.807   4.183   3.709
  803TIP3    H2 2416   0.708   4.282   3.651
  804TIP3   OH2 2417   3.533   1.733   4.865
  804TIP3    H1 2418   3.558   1.699   4.780
  804TIP3    H2 2419   3.601   1.702   4.925
  805TIP3   OH2 2420   3.690   0.317   1.946
  805TIP3    H1 2421   3.685   0.236   1.998
  805TIP3    H2 2422   3.611   0.317   1.893
  806TIP3   OH2 2423   2.229   4.395   3.909
  806TIP3    H1 2424   2.311   4.428   3.872
  806TIP3    H2 2425   2.247   4.302   3.927
  807TIP3   OH2 2426   5.901   1.885   1.542
  807TIP3    H1 2427   5.875   1.977   1.540
  807TIP3    H2 2428   5.835   1.840   1.489
  808TIP3   OH2 2429   0.076   0.809   2.181
  808TIP3    H1 2430   0.118   0.895   2.180
  808TIP3    H2 2431   0.149   0.747   2.189
  809TIP3   OH2 2432   3.867   4.903   1.835
  809TIP3    H1 2433   3.789   4.932   1.883
  809TIP3    H2 2434   3.845   4.815   1.804
  810TIP3   OH2 2435   4.288   5.574   1.556
  810TIP3    H1 2436   4.232   5.581   1.478
  810TIP3    H2 2437   4.290   5.481   1.576
  811TIP3   OH2 2438   2.095   0.130   0.340
  811TIP3    H1 2439   2.069   0.141   0.432
  811TIP3    H2 2440   2.026   0.174   0.291
  812TIP3   OH2 2441   1.114   4.208   2.795
  812TIP3    H1 2442   1.144   4.288   2.838
  812TIP3    H2 2443   1.166   4.203   2.716
  813TIP3   OH2 2444   1.986   0.314   1.206
  813TIP3    H1 2445   1.953   0.295   1.118
  813TIP3    H2 2446   1.915   0.290   1.265
  814TIP3   OH2 2447   1.574   2.167   4.645
  814TIP3    H1 2448   1.668   2.155   4.628
  814TIP3    H2 2449   1.553   2.251   4.605
  815TIP3   OH2 2450   5.419   1.191   0.485
  815TIP3    H1 2451   5.394   1.150   0.567
  815TIP3    H2 2452   5.372   1.143   0.417
  816TIP3   OH2 2453   0.866   2.541   3.459
  816TIP3    H1 2454   0.879   2.606   3.390
  816TIP3    H2 2455   0.926   2.469   3.436
  817TIP3   OH2 2456   1.692   1.786   1.871
  817TIP3    H1 2457   1.662   1.829   1.791
  817TIP3    H2 2458   1.698   1.857   1.935
  818TIP3   OH2 2459   5.205   5.563   1.057
  818TIP3    H1 2460   5.247   5.581   1.141
  818TIP3    H2 2461   5.249   5.622   0.995
  819TIP3   OH2 2462   6.042   4.794   4.493
  819TIP3    H1 2463   6.135   4.801   4.471
  819TIP3    H2 2464   5.996   4.800   4.409
  820TIP3   OH2 2465   5.107   2.243   4.796
  820TIP3    H1 2466   5.147   2.186   4.730
  820TIP3    H2 2467   5.178   2.301   4.824
  821TIP3   OH2 2468   0.914   0.504   4.494
  821TIP3    H1 2469   0.949   0.458   4.570
  821TIP3    H2 2470   0.991   0.541   4.450
  822TIP3   OH2 2471   4.271   4.558   1.082
  822TIP3    H1 2472   4.266   4.463   1.073
  822TIP3    H2 2473   4.361   4.580   1.061
  823TIP3   OH2 2474   5.516   4.066   4.407
  823TIP3    H1 2475   5.603   4.027   4.401
  823TIP3    H2 2476   5.472   4.013   4.474
  824TIP3   OH2 2477   4.825   2.824   0.550
  824TIP3    H1 2478   4.850   2.754   0.490
  824TIP3    H2 2479   4.742   2.795   0.587
  825TIP3   OH2 2480   3.606   5.439   1.495
  825TIP3    H1 2481   3.525   5.446   1.546
  825TIP3    H2 2482   3.617   5.346   1.480
  826TIP3   OH2 2483   0.194   3.015   4.197
  826TIP3    H1 2484   0.197   2.965   4.116
  826TIP3    H2 2485   0.270   2.985   4.247
  827TIP3   OH2 2486   1.701   2.321   2.077
  827TIP3    H1 2487   1.756   2.314   2.156
  827TIP3    H2 2488   1.758   2.292   2.006
  828TIP3   OH2 2489   3.007   3.423   2.427
  828TIP3    H1 2490   2.979   3.445   2.338
  828TIP3    H2 2491   3.040   3.506   2.463
  829TIP3   OH2 2492   2.596   2.928   2.084
  829TIP3    H1 2493   2.518   2.977   2.110
  829TIP3    H2 2494   2.574   2.892   1.998
  830TIP3   OH2 2495   0.847   5.407   0.463
  830TIP3    H1 2496   0.838   5.462   0.385
  830TIP3    H2 2497   0.826   5.465   0.536
  831TIP3   OH2 2498   1.791   1.574   4.130
  831TIP3    H1 2499   1.735   1.522   4.187
  831TIP3    H2 2500   1.790   1.528   4.046
  832TIP3   OH2 2501   1.311   1.006   4.256
  832TIP3    H1 2502   1.251   0.937   4.228
  832TIP3    H2 2503   1.395   0.983   4.217
  833TIP3   OH2 2504   4.246   0.125   1.775
  833TIP3    H1 2505   4.163   0.083   1.754
  833TIP3    H2 2506   4.233   0.163   1.862
  834TIP3   OH2 2507   0.131   5.331   2.792
  834TIP3    H1 2508   0.101   5.368   2.875
  834TIP3    H2 2509   0.053   5.291   2.753
  835TIP3   OH2 2510   5.743   2.256   2.978
  835TIP3    H1 2511   5.751   2.336   2.926
  835TIP3    H2 2512   5.833   2.225   2.989
  836TIP3   OH2 2513   2.379   2.886   4.013
  836TIP3    H1 2514   2.351   2.805   3.970
  836TIP3    H2 2515   2.322   2.953   3.976
  837TIP3   OH2 2516   1.543   4.000   4.734
  837TIP3    H1 2517   1.617   4.039   4.688
  837TIP3    H2 2518   1.576   3.979   4.821
  838TIP3   OH2 2519   5.992   0.270   3.690
  838TIP3    H1 2520   5.983   0.293   3.783
  838TIP3    H2 2521   5.959   0.347   3.643
  839TIP3   OH2 2522   3.165   5.783   4.160
  839TIP3    H1 2523   3.074   5.789   4.131
  839TIP3    H2 2524   3.195   5.698   4.129
  840TIP3   OH2 2525   2.203   4.383   1.388
  840TIP3    H1 2526   2.218   4.400   1.481
  840TIP3    H2 2527   2.197   4.469   1.347
  841TIP3   OH2 2528   4.937   1.537   1.657
  841TIP3    H1 2529   4.946   1.532   1.753
  841TIP3    H2 2530   4.995   1.609   1.632
  842TIP3   OH2 2531   4.526   5.751   1.500
  842TIP3    H1 2532   4.453   5.699   1.532
  842TIP3    H2 2533   4.493   5.793   1.420
  843TIP3   OH2 2534   4.444   4.919   0.295
  843TIP3    H1 2535   4.495   4.847   0.259
  843TIP3    H2 2536   4.358   4.881   0.313
  844TIP3   OH2 2537   3.812   0.443   0.129
  844TIP3    H1 2538   3.774   0.492   0.056
  844TIP3    H2 2539   3.901   0.478   0.137
  845TIP3   OH2 2540   6.157   2.625   4.010
  845TIP3    H1 2541   6.077   2.597   3.965
  845TIP3    H2 2542   6.136   2.713   4.043
  846TIP3   OH2 2543   1.165   5.383   0.904
  846TIP3    H1 2544   1.186   5.292   0.925
  846TIP3    H2 2545   1.141   5.423   0.988
  847TIP3   OH2 2546   5.580   2.058   3.057
  847TIP3    H1 2547   5.613   2.052   3.147
  847TIP3    H2 2548   5.627   2.133   3.020
  848TIP3   OH2 2549   3.471   3.354   0.769
  848TIP3    H1 2550   3.444   3.424   0.829
  848TIP3    H2 2551   3.566   3.355   0.772
  849TIP3   OH2 2552   5.376   3.764   3.426
  849TIP3    H1 2553   5.285   3.773   3.454
  849TIP3    H2 2554   5.371   3.748   3.332
  850TIP3   OH2 2555   4.061   3.131   1.306
  850TIP3    H1 2556   4.155   3.135   1.327
  850TIP3    H2 2557   4.041   3.219   1.274
  851TIP3   OH2 2558   3.029   5.611   0.733
  851TIP3    H1 2559   3.073   5.578   0.655
  851TIP3    H2 2560   3.096   5.610   0.802
  852TIP3   OH2 2561   2.379   5.303   2.035
  852TIP3    H1 2562   2.391   5.215   2.069
  852TIP3    H2 2563   2.339   5.352   2.107
  853TIP3   OH2 2564   2.699   1.235   0.425
  853TIP3    H1 2565   2.698   1.228   0.330
  853TIP3    H2 2566   2.613   1.206   0.453
  854TIP3   OH2 2567   4.842   3.016   0.327
  854TIP3    H1 2568   4.831   3.020   0.422
  854TIP3    H2 2569   4.932   2.987   0.315
  855TIP3   OH2 2570   0.722   4.249   3.154
  855TIP3    H1 2571   0.789   4.276   3.091
  855TIP3    H2 2572   0.698   4.330   3.200
  856TIP3   OH2 2573   3.410   0.033   2.834
  856TIP3    H1 2574   3.477   0.088   2.875
  856TIP3    H2 2575   3.347   0.095   2.798
  857TIP3   OH2 2576   5.187   0.156   2.861
  857TIP3    H1 2577   5.269   0.197   2.887
  857TIP3    H2 2578   5.208   0.107   2.781
  858TIP3   OH2 2579   4.221   2.308   2.759
  858TIP3    H1 2580   4.278   2.316   2.835
  858TIP3    H2 2581   4.204   2.214   2.752
  859TIP3   OH2 2582   1.434  -0.058   2.234
  859TIP3    H1 2583   1.510  -0.092   2.281
  859TIP3    H2 2584   1.423   0.031   2.268
  860TIP3   OH2 2585   0.027   2.399   3.735
  860TIP3    H1 2586   0.107   2.397   3.683
  860TIP3    H2 2587   0.055   2.429   3.821
  861TIP3   OH2 2588   2.217   4.122   3.045
  861TIP3    H1 2589   2.236   4.193   2.985
  861TIP3    H2 2590   2.176   4.165   3.121
  862TIP3   OH2 2591   3.623   2.457   1.052
  862TIP3    H1 2592   3.543   2.409   1.032
  862TIP3    H2 2593   3.677   2.446   0.974
  863TIP3   OH2 2594   4.273   4.360   0.731
  863TIP3    H1 2595   4.337   4.298   0.767
  863TIP3    H2 2596   4.326   4.423   0.682
  864TIP3   OH2 2597   1.236   4.848   0.257
  864TIP3    H1 2598   1.298   4.842   0.184
  864TIP3    H2 2599   1.153   4.871   0.216
  865TIP3   OH2 2600   5.440   0.298   0.605
  865TIP3    H1 2601   5.362   0.288   0.550
  865TIP3    H2 2602   5.505   0.336   0.547
  866TIP3   OH2 2603   5.603   1.925   1.674
  866TIP3    H1 2604   5.612   1.831   1.689
  866TIP3    H2 2605   5.623   1.936   1.582
  867TIP3   OH2 2606   5.150   3.290   1.447
  867TIP3    H1 2607   5.106   3.344   1.381
  867TIP3    H2 2608   5.219   3.244   1.398
  868TIP3   OH2 2609   1.260   3.668   3.704
  868TIP3    H1 2610   1.294   3.756   3.684
  868TIP3    H2 2611   1.316   3.609   3.654
  869TIP3   OH2 2612   2.769   3.122   4.882
  869TIP3    H1 2613   2.757   3.071   4.801
  869TIP3    H2 2614   2.728   3.206   4.863
  870TIP3   OH2 2615   1.143   5.865   4.936
  870TIP3    H1 2616   1.130   5.958   4.918
  870TIP3    H2 2617   1.229   5.845   4.899
  871TIP3   OH2 2618   5.816   1.914   1.866
  871TIP3    H1 2619   5.832   2.007   1.874
  871TIP3    H2 2620   5.795   1.901   1.774
  872TIP3   OH2 2621   2.586   3.798   2.906
  872TIP3    H1 2622   2.619   3.710   2.886
  872TIP3    H2 2623   2.551   3.830   2.823
  873TIP3   OH2 2624   0.531   5.884   4.281
  873TIP3    H1 2625   0.618   5.853   4.308
  873TIP3    H2 2626   0.502   5.938   4.354
  874TIP3   OH2 2627   3.488   4.670   1.464
  874TIP3    H1 2628   3.510   4.701   1.552
  874TIP3    H2 2629   3.517   4.579   1.463
  875TIP3   OH2 2630   2.693   0.422   2.604
  875TIP3    H1 2631   2.739   0.496   2.565
  875TIP3    H2 2632   2.745   0.399   2.681
  876TIP3   OH2 2633   1.341   4.394   1.021
  876TIP3    H1 2634   1.371   4.403   1.112
  876TIP3    H2 2635   1.419   4.409   0.968
  877TIP3   OH2 2636   5.467   2.387   0.522
  877TIP3    H1 2637   5.520   2.456   0.563
  877TIP3    H2 2638   5.420   2.431   0.451
  878TIP3   OH2 2639   4.893   5.353   0.854
  878TIP3    H1 2640   4.824   5.303   0.897
  878TIP3    H2 2641   4.944   5.288   0.806
  879TIP3   OH2 2642   0.330   3.863   4.054
  879TIP3    H1 2643   0.288   3.781   4.026
  879TIP3    H2 2644   0.265   3.931   4.037
  880TIP3   OH2 2645   0.297   5.900   4.110
  880TIP3    H1 2646   0.304   5.897   4.014
  880TIP3    H2 2647   0.388   5.898   4.141
  881TIP3   OH2 2648   5.883   3.069   0.744
  881TIP3    H1 2649   5.917   2.986   0.777
  881TIP3    H2 2650   5.871   3.055   0.650
  882TIP3   OH2 2651   0.582  -0.074   4.211
  882TIP3    H1 2652   0.549   0.006   4.252
  882TIP3    H2 2653   0.639  -0.043   4.140
  883TIP3   OH2 2654   1.240   3.227   4.116
  883TIP3    H1 2655   1.149   3.201   4.099
  883TIP3    H2 2656   1.256   3.300   4.057
  884TIP3   OH2 2657   4.468   2.844   5.071
  884TIP3    H1 2658   4.519   2.925   5.065
  884TIP3    H2 2659   4.525   2.777   5.035
  885TIP3   OH2 2660   1.283   0.990   4.692
  885TIP3    H1 2661   1.326   0.929   4.751
  885TIP3    H2 2662   1.296   1.076   4.733
  886TIP3   OH2 2663   0.744   0.132   0.403
  886TIP3    H1 2664   0.820   0.074   0.391
  886TIP3    H2 2665   0.745   0.155   0.496
  887TIP3   OH2 2666   2.499   3.272   1.468
  887TIP3    H1 2667   2.423   3.231   1.509
  887TIP3    H2 2668   2.545   3.314   1.541
  888TIP3   OH2 2669   0.037   3.785   2.458
  888TIP3    H1 2670   0.109   3.831   2.501
  888TIP3    H2 2671  -0.005   3.735   2.528
  889TIP3   OH2 2672   1.935   5.516   4.594
  889TIP3    H1 2673   1.882   5.467   4.531
  889TIP3    H2 2674   2.008   5.550   4.542
  890TIP3   OH2 2675   3.035   3.393   0.478
  890TIP3    H1 2676   3.045   3.307   0.437
  890TIP3    H2 2677   3.098   3.392   0.550
  891TIP3   OH2 2678   2.782   4.739   3.989
  891TIP3    H1 2679   2.837   4.716   4.064
  891TIP3    H2 2680   2.733   4.659   3.969
  892TIP3   OH2 2681   0.311   0.201   4.173
  892TIP3    H1 2682   0.263   0.123   4.202
  892TIP3    H2 2683   0.335   0.246   4.254
  893TIP3   OH2 2684   3.690   1.917   0.855
  893TIP3    H1 2685   3.644   1.989   0.813
  893TIP3    H2 2686   3.738   1.958   0.927
  894TIP3   OH2 2687   1.551   4.973   2.655
  894TIP3    H1 2688   1.627   4.936   2.609
  894TIP3    H2 2689   1.501   4.897   2.684
  895TIP3   OH2 2690   5.202   3.573   1.342
  895TIP3    H1 2691   5.220   3.574   1.249
  895TIP3    H2 2692   5.288   3.576   1.384
  896TIP3   OH2 2693   5.414   2.934   0.541
  896TIP3    H1 2694   5.418   2.883   0.622
  896TIP3    H2 2695   5.502   2.971   0.531
  897TIP3   OH2 2696   2.482   3.548   0.405
  897TIP3    H1 2697   2.447   3.502   0.482
  897TIP3    H2 2698   2.487   3.640   0.432
  898TIP3   OH2 2699   4.146   3.016   4.110
  898TIP3    H1 2700   4.195   3.017   4.193
  898TIP3    H2 2701   4.058   2.991   4.135
  899TIP3   OH2 2702   1.345   5.955   1.667
  899TIP3    H1 2703   1.333   5.870   1.710
  899TIP3    H2 2704   1.277   5.957   1.600
  900TIP3   OH2 2705   4.130   5.469   2.568
  900TIP3    H1 2706   4.164   5.497   2.483
  900TIP3    H2 2707   4.036   5.489   2.564
  901TIP3   OH2 2708   5.547   4.922   4.376
  901TIP3    H1 2709   5.629   4.943   4.421
  901TIP3    H2 2710   5.522   5.002   4.331
  902TIP3   OH2 2711   5.006   1.149   1.934
  902TIP3    H1 2712   5.084   1.161   1.879
  902TIP3    H2 2713   4.936   1.127   1.873
  903TIP3   OH2 2714   3.217   1.702   0.903
  903TIP3    H1 2715   3.286   1.653   0.858
  903TIP3    H2 2716   3.262   1.746   0.975
  904TIP3   OH2 2717   1.618   1.083   0.561
  904TIP3    H1 2718   1.603   1.117   0.473
  904TIP3    H2 2719   1.535   1.098   0.607
  905TIP3   OH2 2720   0.358   5.327   4.855
  905TIP3    H1 2721   0.351   5.232   4.866
  905TIP3    H2 2722   0.436   5.340   4.802
  906TIP3   OH2 2723   1.345   1.293   3.694
  906TIP3    H1 2724   1.264   1.253   3.723
  906TIP3    H2 2725   1.414   1.243   3.738
  907TIP3   OH2 2726   3.994   2.549   1.181
  907TIP3    H1 2727   4.016   2.632   1.223
  907TIP3    H2 2728   3.921   2.515   1.233
  908TIP3   OH2 2729   6.328   0.792   4.353
  908TIP3    H1 2730   6.377   0.787   4.435
  908TIP3    H2 2731   6.245   0.749   4.372
  909TIP3   OH2 2732   3.827   0.816   2.216
  909TIP3    H1 2733   3.829   0.867   2.297
  909TIP3    H2 2734   3.744   0.769   2.219
  910TIP3   OH2 2735   4.250   0.063   3.566
  910TIP3    H1 2736   4.321   0.074   3.630
  910TIP3    H2 2737   4.170   0.076   3.617
  911TIP3   OH2 2738   1.943   2.656   4.057
  911TIP3    H1 2739   1.873   2.699   4.106
  911TIP3    H2 2740   1.933   2.563   4.077
  912TIP3   OH2 2741   6.109   5.655   2.638
  912TIP3    H1 2742   6.169   5.665   2.712
  912TIP3    H2 2743   6.112   5.739   2.592
  913TIP3   OH2 2744   5.380   0.387   0.913
  913TIP3    H1 2745   5.448   0.416   0.852
  913TIP3    H2 2746   5.370   0.459   0.975
  914TIP3   OH2 2747   4.738   0.432   0.045
  914TIP3    H1 2748   4.763   0.447  -0.046
  914TIP3    H2 2749   4.807   0.474   0.096
  915TIP3   OH2 2750   3.861   2.285   4.570
  915TIP3    H1 2751   3.872   2.238   4.653
  915TIP3    H2 2752   3.928   2.353   4.572
  916TIP3   OH2 2753   4.282   5.931   0.124
  916TIP3    H1 2754   4.261   5.952   0.033
  916TIP3    H2 2755   4.370   5.894   0.121
  917TIP3   OH2 2756   3.456   2.963   2.518
  917TIP3    H1 2757   3.477   2.926   2.433
  917TIP3    H2 2758   3.451   2.888   2.577
  918TIP3   OH2 2759   0.304   2.033   0.601
  918TIP3    H1 2760   0.388   1.990   0.615
  918TIP3    H2 2761   0.304   2.055   0.507
  919TIP3   OH2 2762   4.595   5.380   0.935
  919TIP3    H1 2763   4.510   5.342   0.917
  919TIP3    H2 2764   4.640   5.315   0.989
  920TIP3   OH2 2765   4.438   3.847   3.698
  920TIP3    H1 2766   4.490   3.820   3.622
  920TIP3    H2 2767   4.397   3.766   3.728
  921TIP3   OH2 2768   0.841   1.110   3.957
  921TIP3    H1 2769   0.797   1.083   3.876
  921TIP3    H2 2770   0.785   1.179   3.992
  922TIP3   OH2 2771   1.652   3.085   0.454
  922TIP3    H1 2772   1.591   3.120   0.390
  922TIP3    H2 2773   1.699   3.162   0.487
  923TIP3   OH2 2774   2.950   5.763   4.660
  923TIP3    H1 2775   2.968   5.687   4.716
  923TIP3    H2 2776   3.000   5.834   4.699
  924TIP3   OH2 2777   1.489   2.669   4.634
  924TIP3    H1 2778   1.404   2.700   4.666
  924TIP3    H2 2779   1.529   2.745   4.594
  925TIP3   OH2 2780   1.164   2.444   2.740
  925TIP3    H1 2781   1.185   2.401   2.823
  925TIP3    H2 2782   1.204   2.530   2.747
  926TIP3   OH2 2783   4.183   5.415   5.163
  926TIP3    H1 2784   4.268   5.379   5.188
  926TIP3    H2 2785   4.155   5.360   5.090
  927TIP3   OH2 2786   1.590   0.238   1.701
  927TIP3    H1 2787   1.550   0.231   1.787
  927TIP3    H2 2788   1.516   0.238   1.640
  928TIP3   OH2 2789   4.834   4.987   4.058
  928TIP3    H1 2790   4.863   5.072   4.090
  928TIP3    H2 2791   4.797   4.944   4.136
  929TIP3   OH2 2792   3.793   0.935   0.566
  929TIP3    H1 2793   3.815   0.978   0.484
  929TIP3    H2 2794   3.878   0.912   0.604
  930TIP3   OH2 2795   4.308   2.143   5.023
  930TIP3    H1 2796   4.367   2.207   5.062
  930TIP3    H2 2797   4.328   2.146   4.929
  931TIP3   OH2 2798   3.646   4.133   2.445
  931TIP3    H1 2799   3.603   4.200   2.497
  931TIP3    H2 2800   3.580   4.107   2.380
  932TIP3   OH2 2801   6.239   0.611   3.872
  932TIP3    H1 2802   6.222   0.593   3.780
  932TIP3    H2 2803   6.170   0.564   3.919
  933TIP3   OH2 2804   3.021   4.815   0.245
  933TIP3    H1 2805   2.975   4.731   0.241
  933TIP3    H2 2806   3.027   4.834   0.339
  934TIP3   OH2 2807   2.502   1.577   1.672
  934TIP3    H1 2808   2.575   1.522   1.701
  934TIP3    H2 2809   2.531   1.613   1.589
  935TIP3   OH2 2810   4.638   4.294   2.553
  935TIP3    H1 2811   4.638   4.367   2.492
  935TIP3    H2 2812   4.711   4.239   2.525
  936TIP3   OH2 2813   3.762   4.918   2.101
  936TIP3    H1 2814   3.687   4.976   2.113
  936TIP3    H2 2815   3.765   4.866   2.182
  937TIP3   OH2 2816   6.242   2.160   1.725
  937TIP3    H1 2817   6.203   2.209   1.652
  937TIP3    H2 2818   6.326   2.203   1.741
  938TIP3   OH2 2819   3.073   4.263   2.865
  938TIP3    H1 2820   3.049   4.311   2.785
  938TIP3    H2 2821   3.169   4.264   2.864
  939TIP3   OH2 2822   1.942   1.561   2.316
  939TIP3    H1 2823   1.898   1.517   2.389
  939TIP3    H2 2824   1.875   1.570   2.249
  940TIP3   OH2 2825   5.718   2.492   2.825
  940TIP3    H1 2826   5.761   2.506   2.741
  940TIP3    H2 2827   5.693   2.580   2.853
  941TIP3   OH2 2828   4.549   4.967   1.006
  941TIP3    H1 2829   4.470   4.986   0.956
  941TIP3    H2 2830   4.543   4.874   1.027
  942TIP3   OH2 2831   2.917   2.942   4.608
  942TIP3    H1 2832   3.004   2.944   4.648
  942TIP3    H2 2833   2.930   2.977   4.520
  943TIP3   OH2 2834   3.231   2.083   3.971
  943TIP3    H1 2835   3.290   2.010   3.956
  943TIP3    H2 2836   3.249   2.143   3.898
  944TIP3   OH2 2837   2.778   5.623   5.013
  944TIP3    H1 2838   2.864   5.603   4.977
  944TIP3    H2 2839   2.788   5.614   5.107
  945TIP3   OH2 2840   4.314   2.777   4.229
  945TIP3    H1 2841   4.269   2.854   4.263
  945TIP3    H2 2842   4.256   2.742   4.162
  946TIP3   OH2 2843   4.073   4.918   1.422
  946TIP3    H1 2844   4.067   4.945   1.513
  946TIP3    H2 2845   4.162   4.882   1.413
  947TIP3   OH2 2846   3.910   0.497   3.703
  947TIP3    H1 2847   3.829   0.449   3.719
  947TIP3    H2 2848   3.922   0.550   3.782
  948TIP3   OH2 2849   5.048   0.576   2.162
  948TIP3    H1 2850   5.121   0.514   2.158
  948TIP3    H2 2851   4.994   0.545   2.235
  949TIP3   OH2 2852   4.146   2.743   0.380
  949TIP3    H1 2853   4.213   2.770   0.443
  949TIP3    H2 2854   4.194   2.732   0.298
  950TIP3   OH2 2855   1.217   4.675   3.420
  950TIP3    H1 2856   1.175   4.650   3.502
  950TIP3    H2 2857   1.292   4.616   3.412
  951TIP3   OH2 2858   5.353   3.332   0.576
  951TIP3    H1 2859   5.437   3.285   0.577
  951TIP3    H2 2860   5.345   3.367   0.664
  952TIP3   OH2 2861   0.313   3.606   4.803
  952TIP3    H1 2862   0.367   3.676   4.839
  952TIP3    H2 2863   0.231   3.612   4.853
  953TIP3   OH2 2864   3.818   2.999   1.698
  953TIP3    H1 2865   3.908   3.031   1.695
  953TIP3    H2 2866   3.764   3.076   1.686
  954TIP3   OH2 2867   2.688   2.057   3.769
  954TIP3    H1 2868   2.636   2.119   3.819
  954TIP3    H2 2869   2.652   1.971   3.791
  955TIP3   OH2 2870   1.857   2.493   0.161
  955TIP3    H1 2871   1.924   2.462   0.100
  955TIP3    H2 2872   1.906   2.523   0.238
  956TIP3   OH2 2873   3.630   4.784   4.929
  956TIP3    H1 2874   3.628   4.867   4.880
  956TIP3    H2 2875   3.663   4.808   5.015
  957TIP3   OH2 2876   4.005   0.048   4.649
  957TIP3    H1 2877   3.973  -0.033   4.690
  957TIP3    H2 2878   3.951   0.117   4.687
  958TIP3   OH2 2879   0.939   1.642   0.574
  958TIP3    H1 2880   0.938   1.547   0.563
  958TIP3    H2 2881   0.982   1.655   0.659
  959TIP3   OH2 2882   0.264   4.991   0.664
  959TIP3    H1 2883   0.268   4.895   0.664
  959TIP3    H2 2884   0.191   5.012   0.606
  960TIP3   OH2 2885   0.050   2.153   3.269
  960TIP3    H1 2886   0.133   2.185   3.305
  960TIP3    H2 2887  -0.013   2.163   3.340
  961TIP3   OH2 2888   1.985   5.862   4.018
  961TIP3    H1 2889   2.004   5.839   4.108
  961TIP3    H2 2890   1.891   5.880   4.017
  962TIP3   OH2 2891   2.181   0.769   1.697
  962TIP3    H1 2892   2.270   0.776   1.661
  962TIP3    H2 2893   2.169   0.851   1.746
  963TIP3   OH2 2894   3.762   5.354   4.162
  963TIP3    H1 2895   3.749   5.445   4.135
  963TIP3    H2 2896   3.675   5.314   4.154
  964TIP3   OH2 2897   0.248   5.889   1.259
  964TIP3    H1 2898   0.162   5.926   1.239
  964TIP3    H2 2899   0.300   5.908   1.182
  965TIP3   OH2 2900   0.872   0.600   1.301
  965TIP3    H1 2901   0.810   0.664   1.337
  965TIP3    H2 2902   0.950   0.652   1.281
  966TIP3   OH2 2903   1.777   0.609   1.348
  966TIP3    H1 2904   1.689   0.572   1.342
  966TIP3    H2 2905   1.765   0.694   1.391
  967TIP3   OH2 2906   0.533   1.308   0.073
  967TIP3    H1 2907   0.532   1.247   0.148
  967TIP3    H2 2908   0.579   1.260   0.004
  968TIP3   OH2 2909   0.058   2.697   3.936
  968TIP3    H1 2910   0.095   2.624   3.986
  968TIP3    H2 2911  -0.036   2.678   3.931
  969TIP3   OH2 2912   5.925   1.311   4.312
  969TIP3    H1 2913   5.993   1.331   4.248
  969TIP3    H2 2914   5.957   1.348   4.395
  970TIP3   OH2 2915   1.312   3.877   4.855
  970TIP3    H1 2916   1.364   3.826   4.918
  970TIP3    H2 2917   1.366   3.954   4.837
  971TIP3   OH2 2918   0.228   5.541   3.813
  971TIP3    H1 2919   0.208   5.457   3.772
  971TIP3    H2 2920   0.199   5.531   3.904
  972TIP3   OH2 2921   2.428   4.356   0.764
  972TIP3    H1 2922   2.451   4.398   0.682
  972TIP3    H2 2923   2.512   4.334   0.805
  973TIP3   OH2 2924   0.211   3.912   2.196
  973TIP3    H1 2925   0.118   3.934   2.183
  973TIP3    H2 2926   0.212   3.860   2.276
  974TIP3   OH2 2927   0.731   5.061   3.443
  974TIP3    H1 2928   0.773   5.091   3.362
  974TIP3    H2 2929   0.734   4.965   3.437
  975TIP3   OH2 2930   0.249   5.131   3.754
  975TIP3    H1 2931   0.236   5.183   3.834
  975TIP3    H2 2932   0.172   5.150   3.700
  976TIP3   OH2 2933   3.547   2.076   1.940
  976TIP3    H1 2934   3.636   2.041   1.933
  976TIP3    H2 2935   3.502   2.015   1.998
  977TIP3   OH2 2936   4.157   3.951   0.378
  977TIP3    H1 2937   4.106   3.973   0.300
  977TIP3    H2 2938   4.247   3.947   0.348
  978TIP3   OH2 2939   4.327   5.199   1.443
  978TIP3    H1 2940   4.306   5.178   1.353
  978TIP3    H2 2941   4.417   5.168   1.455
  979TIP3   OH2 2942   0.255   1.857   3.661
  979TIP3    H1 2943   0.241   1.806   3.740
  979TIP3    H2 2944   0.350   1.857   3.648
  980TIP3   OH2 2945   1.527   2.315   2.512
  980TIP3    H1 2946   1.463   2.296   2.443
  980TIP3    H2 2947   1.479   2.303   2.594
  981TIP3   OH2 2948   3.134   3.113   0.600
  981TIP3    H1 2949   3.204   3.135   0.538
  981TIP3    H2 2950   3.099   3.030   0.567
  982TIP3   OH2 2951   0.442   4.929   0.931
  982TIP3    H1 2952   0.380   4.952   0.863
  982TIP3    H2 2953   0.508   4.875   0.887
  983TIP3   OH2 2954   2.372   0.814   4.637
  983TIP3    H1 2955   2.325   0.737   4.671
  983TIP3    H2 2956   2.429   0.779   4.569
  984TIP3   OH2 2957   0.810   1.958   3.162
  984TIP3    H1 2958   0.837   1.880   3.112
  984TIP3    H2 2959   0.746   1.925   3.225
  985TIP3   OH2 2960   0.644   2.527   0.652
  985TIP3    H1 2961   0.635   2.441   0.611
  985TIP3    H2 2962   0.673   2.585   0.581
  986TIP3   OH2 2963   0.157   0.445   0.140
  986TIP3    H1 2964   0.125   0.496   0.065
  986TIP3    H2 2965   0.182   0.361   0.102
  987TIP3   OH2 2966   1.058   5.754   3.665
  987TIP3    H1 2967   0.976   5.801   3.650
  987TIP3    H2 2968   1.111   5.816   3.717
  988TIP3   OH2 2969   0.799   3.832   3.292
  988TIP3    H1 2970   0.822   3.801   3.379
  988TIP3    H2 2971   0.789   3.753   3.239
  989TIP3   OH2 2972   4.069   0.758   0.587
  989TIP3    H1 2973   4.062   0.849   0.558
  989TIP3    H2 2974   4.162   0.737   0.579
  990TIP3   OH2 2975   4.783   0.057   1.370
  990TIP3    H1 2976   4.715  -0.006   1.350
  990TIP3    H2 2977   4.857   0.033   1.314
  991TIP3   OH2 2978   5.203   5.291   3.475
  991TIP3    H1 2979   5.263   5.328   3.409
  991TIP3    H2 2980   5.253   5.221   3.515
  992TIP3   OH2 2981   4.233   1.003   0.831
  992TIP3    H1 2982   4.142   0.978   0.813
  992TIP3    H2 2983   4.259   0.948   0.905
  993TIP3   OH2 2984   0.553   5.169   1.773
  993TIP3    H1 2985   0.507   5.226   1.712
  993TIP3    H2 2986   0.502   5.088   1.774
  994TIP3   OH2 2987   1.992   0.438   0.931
  994TIP3    H1 2988   2.046   0.424   1.008
  994TIP3    H2 2989   2.036   0.508   0.883
  995TIP3   OH2 2990   6.191   5.731   1.533
  995TIP3    H1 2991   6.115   5.766   1.580
  995TIP3    H2 2992   6.231   5.808   1.492
  996TIP3   OH2 2993   2.153   2.691   0.872
  996TIP3    H1 2994   2.099   2.704   0.794
  996TIP3    H2 2995   2.228   2.749   0.860
  997TIP3   OH2 2996   0.134   5.815   1.657
  997TIP3    H1 2997   0.040   5.812   1.672
  997TIP3    H2 2998   0.148   5.761   1.580
  998TIP3   OH2 2999   5.991   1.969   1.118
  998TIP3    H1 3000   5.971   2.018   1.198
  998TIP3    H2 3001   6.027   1.886   1.149
  999TIP3   OH2 3002   0.269   5.956   3.435
  999TIP3    H1 3003   0.301   5.984   3.349
  999TIP3    H2 3004   0.318   5.877   3.454
 1000TIP3   OH2 3005   0.803   2.654   2.489
 1000TIP3    H1 3006   0.874   2.592   2.470
 1000TIP3    H2 3007   0.781   2.637   2.581
 1001TIP3   OH2 3008   3.321   4.295   2.915
 1001TIP3    H1 3009   3.356   4.374   2.873
 1001TIP3    H2 3010   3.370   4.223   2.875
 1002TIP3   OH2 3011   4.491   4.686   4.972
 1002TIP3    H1 3012   4.552   4.758   4.955
 1002TIP3    H2 3013   4.469   4.653   4.885
 1003TIP3   OH2 3014   0.093   5.471   1.305
 1003TIP3    H1 3015   0.139   5.394   1.271
 1003TIP3    H2 3016   0.158   5.517   1.358
 1004TIP3   OH2 3017   1.699   4.380   0.239
 1004TIP3    H1 3018   1.690   4.320   0.165
 1004TIP3    H2 3019   1.793   4.381   0.257
 1005TIP3   OH2 3020   3.202   4.651   2.732
 1005TIP3    H1 3021   3.290   4.615   2.746
 1005TIP3    H2 3022   3.168   4.601   2.658
 1006TIP3   OH2 3023   2.514   2.277   1.481
 1006TIP3    H1 3024   2.553   2.361   1.461
 1006TIP3    H2 3025   2.587   2.215   1.477
 1007TIP3   OH2 3026   3.765   2.275   3.711
 1007TIP3    H1 3027   3.744   2.368   3.720
 1007TIP3    H2 3028   3.857   2.269   3.739
 1008TIP3   OH2 3029   2.094   3.688   1.173
 1008TIP3    H1 3030   2.077   3.637   1.252
 1008TIP3    H2 3031   2.007   3.712   1.141
 1009TIP3   OH2 3032  -0.009   0.781   1.384
 1009TIP3    H1 3033   0.014   0.836   1.459
 1009TIP3    H2 3034   0.074   0.765   1.339
 1010TIP3   OH2 3035   5.159   0.892   1.438
 1010TIP3    H1 3036   5.100   0.840   1.384
 1010TIP3    H2 3037   5.205   0.828   1.493
 1011TIP3   OH2 3038   1.177   3.003   0.717
 1011TIP3    H1 3039   1.214   2.924   0.676
 1011TIP3    H2 3040   1.161   2.977   0.808
 1012TIP3   OH2 3041   2.062   3.579   3.825
 1012TIP3    H1 3042   2.153   3.552   3.824
 1012TIP3    H2 3043   2.063   3.669   3.791
 1013TIP3   OH2 3044   3.662   2.041   4.811
 1013TIP3    H1 3045   3.661   1.984   4.734
 1013TIP3    H2 3046   3.692   1.985   4.883
 1014TIP3   OH2 3047   3.982   3.205   3.337
 1014TIP3    H1 3048   3.904   3.150   3.334
 1014TIP3    H2 3049   3.950   3.295   3.333
 1015TIP3   OH2 3050   4.832   5.881   3.459
 1015TIP3    H1 3051   4.781   5.800   3.460
 1015TIP3    H2 3052   4.858   5.894   3.550
 1016TIP3   OH2 3053   2.358   2.139   4.928
 1016TIP3    H1 3054   2.275   2.118   4.969
 1016TIP3    H2 3055   2.392   2.055   4.895
 1017TIP3   OH2 3056   0.486   1.550   1.915
 1017TIP3    H1 3057   0.562   1.503   1.948
 1017TIP3    H2 3058   0.416   1.528   1.976
 1018TIP3   OH2 3059   5.757   4.256   2.376
 1018TIP3    H1 3060   5.803   4.256   2.292
 1018TIP3    H2 3061   5.681   4.314   2.361
 1019TIP3   OH2 3062   5.854   5.519   1.326
 1019TIP3    H1 3063   5.857   5.554   1.415
 1019TIP3    H2 3064   5.859   5.424   1.337
 1020TIP3   OH2 3065   1.030   5.800   2.934
 1020TIP3    H1 3066   0.978   5.720   2.921
 1020TIP3    H2 3067   0.964   5.869   2.942
 1021TIP3   OH2 3068   4.815   1.518   0.963
 1021TIP3    H1 3069   4.807   1.517   0.868
 1021TIP3    H2 3070   4.727   1.498   0.994
 1022TIP3   OH2 3071   4.411   5.307   2.720
 1022TIP3    H1 3072   4.426   5.214   2.702
 1022TIP3    H2 3073   4.498   5.347   2.714
 1023TIP3   OH2 3074   1.771   1.519   3.604
 1023TIP3    H1 3075   1.721   1.589   3.563
 1023TIP3    H2 3076   1.785   1.455   3.535
 1024TIP3   OH2 3077   1.865   2.097   4.901
 1024TIP3    H1 3078   1.860   2.072   4.809
 1024TIP3    H2 3079   1.834   2.020   4.948
 1025TIP3   OH2 3080   2.530   0.362   4.394
 1025TIP3    H1 3081   2.467   0.311   4.342
 1025TIP3    H2 3082   2.532   0.448   4.351
 1026TIP3   OH2 3083   3.595   3.775   3.941
 1026TIP3    H1 3084   3.585   3.722   4.020
 1026TIP3    H2 3085   3.507   3.781   3.904
 1027TIP3   OH2 3086   3.974   2.425   2.702
 1027TIP3    H1 3087   3.999   2.516   2.688
 1027TIP3    H2 3088   4.057   2.377   2.705
 1028TIP3   OH2 3089   4.537   3.881   0.499
 1028TIP3    H1 3090   4.607   3.818   0.479
 1028TIP3    H2 3091   4.571   3.965   0.466
 1029TIP3   OH2 3092   0.142   4.607   2.674
 1029TIP3    H1 3093   0.225   4.612   2.720
 1029TIP3    H2 3094   0.153   4.663   2.597
 1030TIP3   OH2 3095   4.215   1.973   3.085
 1030TIP3    H1 3096   4.139   1.934   3.129
 1030TIP3    H2 3097   4.218   1.930   3.000
 1031TIP3   OH2 3098   6.221   5.267   4.820
 1031TIP3    H1 3099   6.295   5.328   4.815
 1031TIP3    H2 3100   6.175   5.293   4.900
 1032TIP3   OH2 3101   0.162   4.503   4.943
 1032TIP3    H1 3102   0.148   4.592   4.975
 1032TIP3    H2 3103   0.245   4.476   4.981
 1033TIP3   OH2 3104   0.862   0.999   5.169
 1033TIP3    H1 3105   0.911   1.075   5.203
 1033TIP3    H2 3106   0.778   1.003   5.215
 1034TIP3   OH2 3107   3.579   3.958   5.064
 1034TIP3    H1 3108   3.673   3.943   5.060
 1034TIP3    H2 3109   3.563   4.025   4.998
 1035TIP3   OH2 3110   2.676   5.683   2.910
 1035TIP3    H1 3111   2.747   5.741   2.937
 1035TIP3    H2 3112   2.717   5.596   2.904
 1036TIP3   OH2 3113   0.860   4.167   2.567
 1036TIP3    H1 3114   0.875   4.252   2.525
 1036TIP3    H2 3115   0.827   4.189   2.654
 1037TIP3   OH2 3116   3.623   1.694   2.823
 1037TIP3    H1 3117   3.540   1.742   2.823
 1037TIP3    H2 3118   3.679   1.743   2.763
 1038TIP3   OH2 3119   1.124   4.806   2.212
 1038TIP3    H1 3120   1.118   4.865   2.137
 1038TIP3    H2 3121   1.178   4.853   2.276
 1039TIP3   OH2 3122   2.864   3.746   4.348
 1039TIP3    H1 3123   2.921   3.818   4.376
 1039TIP3    H2 3124   2.847   3.764   4.255
 1040TIP3   OH2 3125   3.936   5.177   1.982
 1040TIP3    H1 3126   4.023   5.146   2.010
 1040TIP3    H2 3127   3.955   5.253   1.927
 1041TIP3   OH2 3128   2.591   2.051   0.117
 1041TIP3    H1 3129   2.537   2.079   0.191
 1041TIP3    H2 3130   2.608   1.958   0.134
 1042TIP3   OH2 3131   3.822   1.392   2.076
 1042TIP3    H1 3132   3.832   1.459   2.009
 1042TIP3    H2 3133   3.880   1.321   2.047
 1043TIP3   OH2 3134   3.140   3.910   1.483
 1043TIP3    H1 3135   3.183   3.891   1.566
 1043TIP3    H2 3136   3.145   4.005   1.474
 1044TIP3   OH2 3137   5.263   4.558   4.856
 1044TIP3    H1 3138   5.352   4.573   4.824
 1044TIP3    H2 3139   5.271   4.554   4.951
 1045TIP3   OH2 3140   2.223   4.027   0.043
 1045TIP3    H1 3141   2.140   4.069   0.019
 1045TIP3    H2 3142   2.288   4.069  -0.013
 1046TIP3   OH2 3143   5.169  -0.009   5.151
 1046TIP3    H1 3144   5.141   0.075   5.188
 1046TIP3    H2 3145   5.235   0.014   5.086
 1047TIP3   OH2 3146   3.475   0.956   2.786
 1047TIP3    H1 3147   3.557   0.938   2.739
 1047TIP3    H2 3148   3.458   1.049   2.769
 1048TIP3   OH2 3149   1.401   1.097   0.716
 1048TIP3    H1 3150   1.441   1.076   0.801
 1048TIP3    H2 3151   1.371   1.187   0.725
 1049TIP3   OH2 3152   4.789   5.229   4.666
 1049TIP3    H1 3153   4.774   5.202   4.757
 1049TIP3    H2 3154   4.841   5.158   4.628
 1050TIP3   OH2 3155   4.449   3.726   0.136
 1050TIP3    H1 3156   4.529   3.747   0.089
 1050TIP3    H2 3157   4.479   3.683   0.216
 1051TIP3   OH2 3158   4.826   0.261   1.546
 1051TIP3    H1 3159   4.810   0.192   1.482
 1051TIP3    H2 3160   4.917   0.285   1.534
 1052TIP3   OH2 3161   1.394   0.457   3.135
 1052TIP3    H1 3162   1.451   0.431   3.207
 1052TIP3    H2 3163   1.412   0.551   3.123
 1053TIP3   OH2 3164   4.898   4.346   3.710
 1053TIP3    H1 3165   4.837   4.414   3.678
 1053TIP3    H2 3166   4.849   4.264   3.701
 1054TIP3   OH2 3167   1.103   0.140   4.043
 1054TIP3    H1 3168   1.159   0.063   4.040
 1054TIP3    H2 3169   1.156   0.209   4.003
 1055TIP3   OH2 3170   0.133   0.887   1.592
 1055TIP3    H1 3171   0.121   0.958   1.656
 1055TIP3    H2 3172   0.227   0.885   1.575
 1056TIP3   OH2 3173   0.292   1.155   0.741
 1056TIP3    H1 3174   0.314   1.172   0.649
 1056TIP3    H2 3175   0.231   1.081   0.737
 1057TIP3   OH2 3176   1.858   3.154   2.246
 1057TIP3    H1 3177   1.928   3.104   2.204
 1057TIP3    H2 3178   1.891   3.171   2.335
 1058TIP3   OH2 3179   2.448   3.463   2.326
 1058TIP3    H1 3180   2.439   3.400   2.255
 1058TIP3    H2 3181   2.410   3.420   2.402
 1059TIP3   OH2 3182   4.351   1.625   2.302
 1059TIP3    H1 3183   4.404   1.668   2.234
 1059TIP3    H2 3184   4.290   1.570   2.254
 1060TIP3   OH2 3185   5.548   1.648   1.629
 1060TIP3    H1 3186   5.458   1.678   1.625
 1060TIP3    H2 3187   5.572   1.631   1.538
 1061TIP3   OH2 3188   5.012   2.837   3.876
 1061TIP3    H1 3189   4.982   2.784   3.802
 1061TIP3    H2 3190   4.935   2.845   3.932
 1062TIP3   OH2 3191   4.990   5.265   4.375
 1062TIP3    H1 3192   4.985   5.350   4.418
 1062TIP3    H2 3193   4.980   5.201   4.445
 1063TIP3   OH2 3194   3.211   1.260   2.113
 1063TIP3    H1 3195   3.273   1.276   2.184
 1063TIP3    H2 3196   3.248   1.306   2.038
 1064TIP3   OH2 3197   4.462   0.228   4.604
 1064TIP3    H1 3198   4.397   0.265   4.664
 1064TIP3    H2 3199   4.413   0.161   4.555
 1065TIP3   OH2 3200   2.999   3.706   3.048
 1065TIP3    H1 3201   3.021   3.774   3.112
 1065TIP3    H2 3202   2.904   3.713   3.038
 1066TIP3   OH2 3203   5.302   2.836   3.744
 1066TIP3    H1 3204   5.300   2.912   3.685
 1066TIP3    H2 3205   5.216   2.836   3.786
 1067TIP3   OH2 3206   4.092   0.486   2.049
 1067TIP3    H1 3207   4.186   0.507   2.048
 1067TIP3    H2 3208   4.062   0.519   2.134
 1068TIP3   OH2 3209   1.745   1.887   5.060
 1068TIP3    H1 3210   1.686   1.838   5.118
 1068TIP3    H2 3211   1.793   1.945   5.119
 1069TIP3   OH2 3212   2.586   4.449   0.558
 1069TIP3    H1 3213   2.602   4.388   0.485
 1069TIP3    H2 3214   2.673   4.481   0.582
 1070TIP3   OH2 3215   5.327   0.922   2.738
 1070TIP3    H1 3216   5.414   0.942   2.705
 1070TIP3    H2 3217   5.327   0.828   2.755
 1071TIP3   OH2 3218   1.195   0.065   3.701
 1071TIP3    H1 3219   1.287   0.049   3.719
 1071TIP3    H2 3220   1.177   0.151   3.738
 1072TIP3   OH2 3221   2.874   5.482   2.863
 1072TIP3    H1 3222   2.942   5.468   2.798
 1072TIP3    H2 3223   2.910   5.446   2.944
 1073TIP3   OH2 3224   6.107   5.192   2.955
 1073TIP3    H1 3225   6.087   5.179   3.048
 1073TIP3    H2 3226   6.071   5.279   2.935
 1074TIP3   OH2 3227   0.582   4.414   4.502
 1074TIP3    H1 3228   0.509   4.441   4.446
 1074TIP3    H2 3229   0.541   4.362   4.571
 1075TIP3   OH2 3230   2.591   0.879   3.385
 1075TIP3    H1 3231   2.589   0.784   3.394
 1075TIP3    H2 3232   2.513   0.899   3.332
 1076TIP3   OH2 3233   3.785   4.319   2.138
 1076TIP3    H1 3234   3.843   4.391   2.113
 1076TIP3    H2 3235   3.715   4.360   2.188
 1077TIP3   OH2 3236   0.968   1.230   4.956
 1077TIP3    H1 3237   0.980   1.155   4.898
 1077TIP3    H2 3238   0.977   1.194   5.044
 1078TIP3   OH2 3239   3.051   1.033   4.572
 1078TIP3    H1 3240   2.978   1.094   4.560
 1078TIP3    H2 3241   3.129   1.083   4.546
 1079TIP3   OH2 3242   2.864   5.101   1.643
 1079TIP3    H1 3243   2.927   5.109   1.571
 1079TIP3    H2 3244   2.857   5.190   1.679
 1080TIP3   OH2 3245   0.899   0.991   0.511
 1080TIP3    H1 3246   0.975   1.010   0.565
 1080TIP3    H2 3247   0.935   0.964   0.427
 1081TIP3   OH2 3248   5.734   2.430   1.359
 1081TIP3    H1 3249   5.682   2.478   1.423
 1081TIP3    H2 3250   5.675   2.363   1.326
 1082TIP3   OH2 3251   4.906   2.852   2.462
 1082TIP3    H1 3252   4.828   2.888   2.506
 1082TIP3    H2 3253   4.977   2.865   2.525
 1083TIP3   OH2 3254   4.460   0.782   5.167
 1083TIP3    H1 3255   4.437   0.867   5.204
 1083TIP3    H2 3256   4.408   0.776   5.086
 1084TIP3   OH2 3257   5.911   1.644   4.091
 1084TIP3    H1 3258   5.853   1.699   4.039
 1084TIP3    H2 3259   5.993   1.693   4.097
 1085TIP3   OH2 3260   2.449   5.945   3.352
 1085TIP3    H1 3261   2.494   6.000   3.287
 1085TIP3    H2 3262   2.449   5.998   3.432
 1086TIP3   OH2 3263   3.863   3.159   0.224
 1086TIP3    H1 3264   3.890   3.250   0.211
 1086TIP3    H2 3265   3.945   3.109   0.223
 1087TIP3   OH2 3266   5.362   2.656   4.200
 1087TIP3    H1 3267   5.455   2.655   4.177
 1087TIP3    H2 3268   5.328   2.736   4.161
 1088TIP3   OH2 3269   4.609   1.400   4.951
 1088TIP3    H1 3270   4.660   1.320   4.962
 1088TIP3    H2 3271   4.583   1.425   5.040
 1089TIP3   OH2 3272   3.225   5.674   3.075
 1089TIP3    H1 3273   3.224   5.579   3.071
 1089TIP3    H2 3274   3.280   5.695   3.150
 1090TIP3   OH2 3275   3.595   4.965   0.314
 1090TIP3    H1 3276   3.567   5.012   0.392
 1090TIP3    H2 3277   3.542   5.003   0.243
 1091TIP3   OH2 3278   5.585   2.346   3.568
 1091TIP3    H1 3279   5.558   2.303   3.487
 1091TIP3    H2 3280   5.672   2.309   3.586
 1092TIP3   OH2 3281   5.460   1.931   3.854
 1092TIP3    H1 3282   5.548   1.894   3.855
 1092TIP3    H2 3283   5.465   2.003   3.791
 1093TIP3   OH2 3284   3.656   1.849   3.394
 1093TIP3    H1 3285   3.600   1.834   3.470
 1093TIP3    H2 3286   3.610   1.808   3.321
 1094TIP3   OH2 3287   2.862   2.265   4.003
 1094TIP3    H1 3288   2.930   2.204   3.973
 1094TIP3    H2 3289   2.848   2.323   3.929
 1095TIP3   OH2 3290   2.681   1.479   2.948
 1095TIP3    H1 3291   2.644   1.441   3.028
 1095TIP3    H2 3292   2.605   1.512   2.900
 1096TIP3   OH2 3293   6.171   1.030   2.927
 1096TIP3    H1 3294   6.134   1.092   2.865
 1096TIP3    H2 3295   6.096   0.998   2.977
 1097TIP3   OH2 3296   1.027   0.197   4.296
 1097TIP3    H1 3297   1.026   0.188   4.200
 1097TIP3    H2 3298   1.103   0.253   4.314
 1098TIP3   OH2 3299   5.623   5.371   3.123
 1098TIP3    H1 3300   5.695   5.414   3.170
 1098TIP3    H2 3301   5.635   5.278   3.140
 1099TIP3   OH2 3302   4.833   4.699   4.856
 1099TIP3    H1 3303   4.753   4.749   4.842
 1099TIP3    H2 3304   4.898   4.764   4.880
 1100TIP3   OH2 3305   1.166   2.784   1.342
 1100TIP3    H1 3306   1.232   2.777   1.273
 1100TIP3    H2 3307   1.216   2.798   1.422
 1101TIP3   OH2 3308   3.333   3.993   2.788
 1101TIP3    H1 3309   3.419   4.011   2.750
 1101TIP3    H2 3310   3.271   4.026   2.723
 1102TIP3   OH2 3311   2.833   4.407   1.728
 1102TIP3    H1 3312   2.789   4.444   1.804
 1102TIP3    H2 3313   2.926   4.411   1.750
 1103TIP3   OH2 3314   0.932   3.944   0.300
 1103TIP3    H1 3315   0.905   3.985   0.382
 1103TIP3    H2 3316   0.896   3.856   0.303
 1104TIP3   OH2 3317   0.597   2.342   3.273
 1104TIP3    H1 3318   0.623   2.432   3.291
 1104TIP3    H2 3319   0.511   2.349   3.232
 1105TIP3   OH2 3320   0.191   0.059   4.669
 1105TIP3    H1 3321   0.109   0.099   4.698
 1105TIP3    H2 3322   0.166   0.009   4.591
 1106TIP3   OH2 3323   5.000   5.822   0.774
 1106TIP3    H1 3324   5.053   5.896   0.801
 1106TIP3    H2 3325   5.033   5.800   0.687
 1107TIP3   OH2 3326   4.414   4.799   1.947
 1107TIP3    H1 3327   4.506   4.792   1.922
 1107TIP3    H2 3328   4.371   4.833   1.869
 1108TIP3   OH2 3329   2.034   4.189   1.822
 1108TIP3    H1 3330   2.051   4.276   1.858
 1108TIP3    H2 3331   2.106   4.173   1.760
 1109TIP3   OH2 3332   4.439   5.601   4.159
 1109TIP3    H1 3333   4.450   5.695   4.146
 1109TIP3    H2 3334   4.347   5.590   4.182
 1110TIP3   OH2 3335   3.385   2.452   4.317
 1110TIP3    H1 3336   3.314   2.418   4.370
 1110TIP3    H2 3337   3.342   2.486   4.238
 1111TIP3   OH2 3338   3.557   4.076   0.790
 1111TIP3    H1 3339   3.649   4.098   0.805
 1111TIP3    H2 3340   3.536   4.119   0.707
 1112TIP3   OH2 3341   4.080   5.056   2.353
 1112TIP3    H1 3342   4.066   5.139   2.306
 1112TIP3    H2 3343   4.091   4.991   2.284
 1113TIP3   OH2 3344   1.582   5.486   0.499
 1113TIP3    H1 3345   1.555   5.453   0.414
 1113TIP3    H2 3346   1.573   5.581   0.492
 1114TIP3   OH2 3347   0.684   4.163   2.806
 1114TIP3    H1 3348   0.604   4.205   2.775
 1114TIP3    H2 3349   0.681   4.074   2.771
 1115TIP3   OH2 3350   0.761   5.271   1.942
 1115TIP3    H1 3351   0.690   5.224   1.898
 1115TIP3    H2 3352   0.738   5.364   1.930
 1116TIP3   OH2 3353   1.212   2.185   1.668
 1116TIP3    H1 3354   1.271   2.211   1.597
 1116TIP3    H2 3355   1.207   2.090   1.662
 1117TIP3   OH2 3356   1.980   5.409   4.911
 1117TIP3    H1 3357   2.024   5.376   4.833
 1117TIP3    H2 3358   1.887   5.411   4.887
 1118TIP3   OH2 3359   4.555   0.949   1.737
 1118TIP3    H1 3360   4.582   0.876   1.792
 1118TIP3    H2 3361   4.526   0.908   1.655
 1119TIP3   OH2 3362   2.167   2.159   3.259
 1119TIP3    H1 3363   2.222   2.188   3.332
 1119TIP3    H2 3364   2.127   2.077   3.290
 1120TIP3   OH2 3365   1.084   1.933   4.163
 1120TIP3    H1 3366   1.066   2.016   4.208
 1120TIP3    H2 3367   1.074   1.954   4.070
 1121TIP3   OH2 3368   1.149   0.975   0.603
 1121TIP3    H1 3369   1.232   1.019   0.620
 1121TIP3    H2 3370   1.173   0.884   0.584
 1122TIP3   OH2 3371   3.304   4.518   1.310
 1122TIP3    H1 3372   3.387   4.471   1.317
 1122TIP3    H2 3373   3.305   4.581   1.381
 1123TIP3   OH2 3374   2.034   1.029   4.207
 1123TIP3    H1 3375   2.050   1.025   4.301
 1123TIP3    H2 3376   1.979   0.953   4.188
 1124TIP3   OH2 3377   4.318   3.572   2.006
 1124TIP3    H1 3378   4.283   3.495   1.960
 1124TIP3    H2 3379   4.411   3.554   2.013
 1125TIP3   OH2 3380   5.087   0.967   3.257
 1125TIP3    H1 3381   5.088   0.904   3.328
 1125TIP3    H2 3382   5.097   0.914   3.178
 1126TIP3   OH2 3383   2.195   3.169   1.890
 1126TIP3    H1 3384   2.179   3.172   1.796
 1126TIP3    H2 3385   2.220   3.259   1.912
 1127TIP3   OH2 3386   3.619   2.944   2.174
 1127TIP3    H1 3387   3.616   2.991   2.091
 1127TIP3    H2 3388   3.671   3.000   2.232
 1128TIP3   OH2 3389   5.813   0.047   4.239
 1128TIP3    H1 3390   5.782   0.136   4.256
 1128TIP3    H2 3391   5.803   0.002   4.322
 1129TIP3   OH2 3392   2.289   5.506   2.234
 1129TIP3    H1 3393   2.284   5.588   2.283
 1129TIP3    H2 3394   2.276   5.531   2.143
 1130TIP3   OH2 3395   2.999   0.770   3.942
 1130TIP3    H1 3396   3.077   0.775   3.888
 1130TIP3    H2 3397   2.949   0.848   3.920
 1131TIP3   OH2 3398   3.361   2.670   0.266
 1131TIP3    H1 3399   3.369   2.706   0.178
 1131TIP3    H2 3400   3.452   2.657   0.294
 1132TIP3   OH2 3401   4.944   5.604   2.690
 1132TIP3    H1 3402   4.980   5.520   2.661
 1132TIP3    H2 3403   4.909   5.587   2.777
 1133TIP3   OH2 3404  -0.064   5.827   2.444
 1133TIP3    H1 3405   0.004   5.762   2.428
 1133TIP3    H2 3406  -0.125   5.818   2.371
 1134TIP3   OH2 3407   0.324   0.313   4.955
 1134TIP3    H1 3408   0.283   0.399   4.939
 1134TIP3    H2 3409   0.338   0.310   5.049
 1135TIP3   OH2 3410   3.815   4.770   1.493
 1135TIP3    H1 3411   3.829   4.676   1.505
 1135TIP3    H2 3412   3.903   4.808   1.490
 1136TIP3   OH2 3413   0.851   0.565   3.356
 1136TIP3    H1 3414   0.793   0.642   3.361
 1136TIP3    H2 3415   0.793   0.491   3.376
 1137TIP3   OH2 3416   0.338   1.996   3.980
 1137TIP3    H1 3417   0.386   1.913   3.978
 1137TIP3    H2 3418   0.353   2.031   4.067
 1138TIP3   OH2 3419   2.316   5.073   2.627
 1138TIP3    H1 3420   2.285   5.133   2.559
 1138TIP3    H2 3421   2.343   5.131   2.698
 1139TIP3   OH2 3422   3.627   0.871   3.247
 1139TIP3    H1 3423   3.619   0.777   3.232
 1139TIP3    H2 3424   3.553   0.909   3.200
 1140TIP3   OH2 3425   0.657   4.714   0.878
 1140TIP3    H1 3426   0.638   4.738   0.787
 1140TIP3    H2 3427   0.639   4.620   0.882
 1141TIP3   OH2 3428   1.866   5.094   0.684
 1141TIP3    H1 3429   1.853   5.162   0.617
 1141TIP3    H2 3430   1.822   5.017   0.648
 1142TIP3   OH2 3431   2.867   5.171   2.299
 1142TIP3    H1 3432   2.880   5.257   2.258
 1142TIP3    H2 3433   2.772   5.160   2.301
 1143TIP3   OH2 3434   0.958   0.447   1.797
 1143TIP3    H1 3435   0.917   0.403   1.723
 1143TIP3    H2 3436   0.892   0.507   1.831
 1144TIP3   OH2 3437   0.125   1.344   1.564
 1144TIP3    H1 3438   0.206   1.336   1.514
 1144TIP3    H2 3439   0.055   1.326   1.501
 1145TIP3   OH2 3440   5.018   0.229   5.094
 1145TIP3    H1 3441   4.924   0.241   5.106
 1145TIP3    H2 3442   5.059   0.284   5.161
 1146TIP3   OH2 3443   2.188   5.293   2.451
 1146TIP3    H1 3444   2.222   5.377   2.482
 1146TIP3    H2 3445   2.107   5.281   2.500
 1147TIP3   OH2 3446   0.299  -0.058   1.846
 1147TIP3    H1 3447   0.291   0.011   1.912
 1147TIP3    H2 3448   0.331  -0.012   1.768
 1148TIP3   OH2 3449   1.689   3.292   3.972
 1148TIP3    H1 3450   1.735   3.336   3.900
 1148TIP3    H2 3451   1.613   3.251   3.931
 1149TIP3   OH2 3452   1.998   1.790   3.740
 1149TIP3    H1 3453   2.049   1.842   3.801
 1149TIP3    H2 3454   2.032   1.813   3.654
 1150TIP3   OH2 3455   0.819   5.227   3.621
 1150TIP3    H1 3456   0.909   5.202   3.601
 1150TIP3    H2 3457   0.765   5.167   3.568
 1151TIP3   OH2 3458   3.522   3.309   2.286
 1151TIP3    H1 3459   3.573   3.390   2.285
 1151TIP3    H2 3460   3.433   3.336   2.310
 1152TIP3   OH2 3461   3.961   0.651   4.833
 1152TIP3    H1 3462   3.979   0.567   4.875
 1152TIP3    H2 3463   3.992   0.640   4.743
 1153TIP3   OH2 3464   2.426   0.660   2.713
 1153TIP3    H1 3465   2.382   0.714   2.780
 1153TIP3    H2 3466   2.512   0.700   2.703
 1154TIP3   OH2 3467   0.579   2.592   3.346
 1154TIP3    H1 3468   0.486   2.610   3.361
 1154TIP3    H2 3469   0.613   2.673   3.307
 1155TIP3   OH2 3470   2.119   0.029   1.223
 1155TIP3    H1 3471   2.111   0.119   1.192
 1155TIP3    H2 3472   2.090   0.033   1.315
 1156TIP3   OH2 3473   5.074   2.872   4.690
 1156TIP3    H1 3474   5.116   2.952   4.721
 1156TIP3    H2 3475   5.116   2.854   4.606
 1157TIP3   OH2 3476   5.625   2.643   4.129
 1157TIP3    H1 3477   5.700   2.674   4.077
 1157TIP3    H2 3478   5.620   2.550   4.110
 1158TIP3   OH2 3479   4.909   3.391   4.874
 1158TIP3    H1 3480   4.984   3.447   4.853
 1158TIP3    H2 3481   4.835   3.433   4.832
 1159TIP3   OH2 3482   2.508   3.308   0.062
 1159TIP3    H1 3483   2.601   3.329   0.059
 1159TIP3    H2 3484   2.466   3.388   0.095
 1160TIP3   OH2 3485   5.484   2.995   2.357
 1160TIP3    H1 3486   5.465   3.018   2.448
 1160TIP3    H2 3487   5.579   2.986   2.355
 1161TIP3   OH2 3488   0.618   5.310   0.369
 1161TIP3    H1 3489   0.702   5.312   0.415
 1161TIP3    H2 3490   0.634   5.357   0.287
 1162TIP3   OH2 3491   1.198   5.761   1.160
 1162TIP3    H1 3492   1.175   5.797   1.075
 1162TIP3    H2 3493   1.186   5.666   1.151
 1163TIP3   OH2 3494   5.496   0.823   4.179
 1163TIP3    H1 3495   5.411   0.802   4.139
 1163TIP3    H2 3496   5.483   0.910   4.217
 1164TIP3   OH2 3497   2.007   0.957   2.862
 1164TIP3    H1 3498   2.021   0.957   2.957
 1164TIP3    H2 3499   1.918   0.990   2.851
 1165TIP3   OH2 3500   1.455   2.725   1.750
 1165TIP3    H1 3501   1.472   2.701   1.659
 1165TIP3    H2 3502   1.361   2.738   1.754
 1166TIP3   OH2 3503   5.959   1.974   2.303
 1166TIP3    H1 3504   5.921   1.915   2.237
 1166TIP3    H2 3505   5.945   1.929   2.386
 1167TIP3   OH2 3506   3.196   0.531   4.456
 1167TIP3    H1 3507   3.123   0.578   4.416
 1167TIP3    H2 3508   3.230   0.590   4.523
 1168TIP3   OH2 3509   2.135   5.819   4.876
 1168TIP3    H1 3510   2.053   5.837   4.832
 1168TIP3    H2 3511   2.151   5.896   4.931
 1169TIP3   OH2 3512   1.071   1.496   1.640
 1169TIP3    H1 3513   1.088   1.493   1.734
 1169TIP3    H2 3514   1.047   1.407   1.617
 1170TIP3   OH2 3515   5.302   3.869   1.541
 1170TIP3    H1 3516   5.354   3.948   1.544
 1170TIP3    H2 3517   5.269   3.865   1.451
 1171TIP3   OH2 3518   2.821   3.606   0.515
 1171TIP3    H1 3519   2.903   3.557   0.521
 1171TIP3    H2 3520   2.753   3.538   0.515
 1172TIP3   OH2 3521   4.923   0.797   1.292
 1172TIP3    H1 3522   4.871   0.802   1.372
 1172TIP3    H2 3523   4.858   0.792   1.222
 1173TIP3   OH2 3524   2.037   3.547   4.809
 1173TIP3    H1 3525   2.083   3.629   4.794
 1173TIP3    H2 3526   2.032   3.506   4.722
 1174TIP3   OH2 3527   0.189   4.089   1.054
 1174TIP3    H1 3528   0.267   4.144   1.064
 1174TIP3    H2 3529   0.121   4.150   1.025
 1175TIP3   OH2 3530   3.448   3.897   1.988
 1175TIP3    H1 3531   3.382   3.951   2.031
 1175TIP3    H2 3532   3.444   3.813   2.035
 1176TIP3   OH2 3533   1.900   0.214   3.281
 1176TIP3    H1 3534   1.946   0.137   3.314
 1176TIP3    H2 3535   1.857   0.183   3.201
 1177TIP3   OH2 3536   4.676   1.015   2.262
 1177TIP3    H1 3537   4.758   1.059   2.240
 1177TIP3    H2 3538   4.696   0.922   2.256
 1178TIP3   OH2 3539   0.627   3.117   3.306
 1178TIP3    H1 3540   0.616   3.158   3.220
 1178TIP3    H2 3541   0.657   3.028   3.287
 1179TIP3   OH2 3542   2.172   4.094   5.000
 1179TIP3    H1 3543   2.226   4.143   5.061
 1179TIP3    H2 3544   2.083   4.101   5.035
 1180TIP3   OH2 3545   4.109   5.461   2.986
 1180TIP3    H1 3546   4.073   5.550   2.984
 1180TIP3    H2 3547   4.199   5.471   2.958
 1181TIP3   OH2 3548   5.785   2.498   0.464
 1181TIP3    H1 3549   5.730   2.550   0.522
 1181TIP3    H2 3550   5.826   2.433   0.521
 1182TIP3   OH2 3551   4.544   0.307   2.603
 1182TIP3    H1 3552   4.510   0.376   2.660
 1182TIP3    H2 3553   4.598   0.253   2.660
 1183TIP3   OH2 3554   1.566   5.535   3.945
 1183TIP3    H1 3555   1.586   5.495   3.860
 1183TIP3    H2 3556   1.491   5.592   3.928
 1184TIP3   OH2 3557   4.391   1.842   3.626
 1184TIP3    H1 3558   4.365   1.864   3.716
 1184TIP3    H2 3559   4.483   1.867   3.622
 1185TIP3   OH2 3560   4.326   4.969   0.850
 1185TIP3    H1 3561   4.372   4.916   0.785
 1185TIP3    H2 3562   4.234   4.947   0.837
 1186TIP3   OH2 3563   1.649   5.064   4.123
 1186TIP3    H1 3564   1.612   5.014   4.050
 1186TIP3    H2 3565   1.597   5.039   4.199
 1187TIP3   OH2 3566   4.571   3.764   1.345
 1187TIP3    H1 3567   4.584   3.708   1.422
 1187TIP3    H2 3568   4.523   3.840   1.379
 1188TIP3   OH2 3569   5.436   2.732   3.113
 1188TIP3    H1 3570   5.472   2.792   3.178
 1188TIP3    H2 3571   5.341   2.737   3.125
 1189TIP3   OH2 3572   2.347   1.171   3.614
 1189TIP3    H1 3573   2.434   1.132   3.616
 1189TIP3    H2 3574   2.311   1.153   3.701
 1190TIP3   OH2 3575   2.671   2.705   1.251
 1190TIP3    H1 3576   2.700   2.777   1.195
 1190TIP3    H2 3577   2.642   2.748   1.332
 1191TIP3   OH2 3578   4.174   3.761   2.980
 1191TIP3    H1 3579   4.190   3.742   2.888
 1191TIP3    H2 3580   4.078   3.769   2.987
 1192TIP3   OH2 3581   2.937   2.415   1.242
 1192TIP3    H1 3582   2.952   2.382   1.154
 1192TIP3    H2 3583   2.989   2.357   1.298
 1193TIP3   OH2 3584   3.495   4.253   2.161
 1193TIP3    H1 3585   3.416   4.252   2.108
 1193TIP3    H2 3586   3.566   4.231   2.100
 1194TIP3   OH2 3587   3.262   1.606   2.142
 1194TIP3    H1 3588   3.234   1.660   2.216
 1194TIP3    H2 3589   3.185   1.554   2.119
 1195TIP3   OH2 3590   6.286   3.249   1.749
 1195TIP3    H1 3591   6.255   3.190   1.817
 1195TIP3    H2 3592   6.321   3.325   1.796
 1196TIP3   OH2 3593   0.290   4.914   2.199
 1196TIP3    H1 3594   0.263   4.959   2.119
 1196TIP3    H2 3595   0.209   4.898   2.248
 1197TIP3   OH2 3596   4.310   0.241   0.007
 1197TIP3    H1 3597   4.278   0.189   0.081
 1197TIP3    H2 3598   4.231   0.260  -0.044
 1198TIP3   OH2 3599   1.436   0.473   3.959
 1198TIP3    H1 3600   1.471   0.392   3.923
 1198TIP3    H2 3601   1.343   0.455   3.973
 1199TIP3   OH2 3602   5.997   0.754   1.613
 1199TIP3    H1 3603   6.014   0.780   1.522
 1199TIP3    H2 3604   6.081   0.720   1.644
 1200TIP3   OH2 3605   4.035   5.790   2.623
 1200TIP3    H1 3606   3.986   5.722   2.669
 1200TIP3    H2 3607   4.058   5.750   2.539
 1201TIP3   OH2 3608   0.703   0.202   4.264
 1201TIP3    H1 3609   0.760   0.280   4.257
 1201TIP3    H2 3610   0.701   0.182   4.357
 1202TIP3   OH2 3611   6.253   0.052   2.413
 1202TIP3    H1 3612   6.307   0.011   2.480
 1202TIP3    H2 3613   6.231  -0.020   2.353
 1203TIP3   OH2 3614   0.053   2.576   2.080
 1203TIP3    H1 3615   0.114   2.508   2.052
 1203TIP3    H2 3616  -0.026   2.528   2.106
 1204TIP3   OH2 3617   5.868   4.372   0.039
 1204TIP3    H1 3618   5.952   4.399   0.076
 1204TIP3    H2 3619   5.834   4.452  -0.002
 1205TIP3   OH2 3620   5.833   5.213   3.632
 1205TIP3    H1 3621   5.856   5.246   3.719
 1205TIP3    H2 3622   5.842   5.118   3.638
 1206TIP3   OH2 3623   5.853   1.822   2.527
 1206TIP3    H1 3624   5.819   1.857   2.609
 1206TIP3    H2 3625   5.810   1.737   2.517
 1207TIP3   OH2 3626   3.003   5.247   2.984
 1207TIP3    H1 3627   3.030   5.185   2.917
 1207TIP3    H2 3628   2.950   5.196   3.045
 1208TIP3   OH2 3629   0.179   2.439   4.005
 1208TIP3    H1 3630   0.224   2.475   4.082
 1208TIP3    H2 3631   0.246   2.386   3.961
 1209TIP3   OH2 3632   0.657   0.239   0.147
 1209TIP3    H1 3633   0.743   0.281   0.138
 1209TIP3    H2 3634   0.672   0.163   0.203
 1210TIP3   OH2 3635   0.058   5.652   2.802
 1210TIP3    H1 3636   0.061   5.581   2.866
 1210TIP3    H2 3637   0.039   5.609   2.719
 1211TIP3   OH2 3638   3.038   4.855   1.746
 1211TIP3    H1 3639   3.031   4.868   1.651
 1211TIP3    H2 3640   3.029   4.943   1.783
 1212TIP3   OH2 3641   3.651   0.968   4.897
 1212TIP3    H1 3642   3.582   0.901   4.901
 1212TIP3    H2 3643   3.647   1.011   4.982
 1213TIP3   OH2 3644   5.288   3.252   4.087
 1213TIP3    H1 3645   5.290   3.339   4.047
 1213TIP3    H2 3646   5.374   3.215   4.067
 1214TIP3   OH2 3647   3.492   4.227   4.049
 1214TIP3    H1 3648   3.531   4.215   4.136
 1214TIP3    H2 3649   3.558   4.277   4.001
 1215TIP3   OH2 3650   1.891   1.893   4.340
 1215TIP3    H1 3651   1.976   1.850   4.346
 1215TIP3    H2 3652   1.828   1.821   4.346
 1216TIP3   OH2 3653   5.901   0.290   1.255
 1216TIP3    H1 3654   5.892   0.380   1.225
 1216TIP3    H2 3655   5.888   0.237   1.177
 1217TIP3   OH2 3656   5.214   2.926   3.428
 1217TIP3    H1 3657   5.184   2.837   3.448
 1217TIP3    H2 3658   5.135   2.971   3.397
 1218TIP3   OH2 3659   5.830   3.680   2.385
 1218TIP3    H1 3660   5.850   3.717   2.299
 1218TIP3    H2 3661   5.832   3.585   2.370
 1219TIP3   OH2 3662   3.508   2.976   0.947
 1219TIP3    H1 3663   3.543   2.938   0.866
 1219TIP3    H2 3664   3.508   2.904   1.010
 1220TIP3   OH2 3665   6.164   0.577   4.479
 1220TIP3    H1 3666   6.209   0.493   4.478
 1220TIP3    H2 3667   6.075   0.557   4.508
 1221TIP3   OH2 3668   4.872   0.497   2.669
 1221TIP3    H1 3669   4.896   0.571   2.613
 1221TIP3    H2 3670   4.823   0.537   2.741
 1222TIP3   OH2 3671   3.031   1.187   0.769
 1222TIP3    H1 3672   3.118   1.207   0.802
 1222TIP3    H2 3673   3.030   1.222   0.680
 1223TIP3   OH2 3674   2.676   1.513   4.667
 1223TIP3    H1 3675   2.627   1.559   4.599
 1223TIP3    H2 3676   2.610   1.461   4.714
 1224TIP3   OH2 3677   3.518   0.072   0.161
 1224TIP3    H1 3678   3.552   0.019   0.089
 1224TIP3    H2 3679   3.430   0.098   0.133
 1225TIP3   OH2 3680   0.509   0.132   2.720
 1225TIP3    H1 3681   0.583   0.147   2.661
 1225TIP3    H2 3682   0.457   0.065   2.677
 1226TIP3   OH2 3683   4.275   3.956   3.482
 1226TIP3    H1 3684   4.352   3.985   3.531
 1226TIP3    H2 3685   4.309   3.936   3.395
 1227TIP3   OH2 3686   4.293   4.770   1.370
 1227TIP3    H1 3687   4.287   4.736   1.281
 1227TIP3    H2 3688   4.383   4.753   1.397
 1228TIP3   OH2 3689   2.875   1.706   3.693
 1228TIP3    H1 3690   2.886   1.751   3.609
 1228TIP3    H2 3691   2.914   1.765   3.757
 1229TIP3   OH2 3692   5.180   4.635   3.642
 1229TIP3    H1 3693   5.103   4.597   3.599
 1229TIP3    H2 3694   5.198   4.577   3.716
 1230TIP3   OH2 3695   5.736   3.585   0.746
 1230TIP3    H1 3696   5.679   3.530   0.693
 1230TIP3    H2 3697   5.802   3.525   0.780
 1231TIP3   OH2 3698   1.894   0.746   4.353
 1231TIP3    H1 3699   1.979   0.703   4.341
 1231TIP3    H2 3700   1.917   0.835   4.378
 1232TIP3   OH2 3701   0.153   3.514   0.966
 1232TIP3    H1 3702   0.120   3.553   0.885
 1232TIP3    H2 3703   0.155   3.586   1.029
 1233TIP3   OH2 3704   0.098   3.213   3.142
 1233TIP3    H1 3705   0.033   3.275   3.175
 1233TIP3    H2 3706   0.081   3.132   3.190
 1234TIP3   OH2 3707   4.274   1.350   2.715
 1234TIP3    H1 3708   4.332   1.354   2.639
 1234TIP3    H2 3709   4.188   1.377   2.682
 1235TIP3   OH2 3710   0.100   4.433   3.486
 1235TIP3    H1 3711   0.059   4.471   3.409
 1235TIP3    H2 3712   0.183   4.480   3.494
 1236TIP3   OH2 3713   4.535   3.642   0.895
 1236TIP3    H1 3714   4.525   3.718   0.953
 1236TIP3    H2 3715   4.471   3.657   0.825
 1237TIP3   OH2 3716   2.094   1.633   2.005
 1237TIP3    H1 3717   2.129   1.720   1.984
 1237TIP3    H2 3718   2.168   1.585   2.041
 1238TIP3   OH2 3719   5.991   3.726   4.111
 1238TIP3    H1 3720   5.923   3.712   4.177
 1238TIP3    H2 3721   6.046   3.647   4.116
 1239TIP3   OH2 3722   3.229   0.985   3.546
 1239TIP3    H1 3723   3.257   1.044   3.476
 1239TIP3    H2 3724   3.157   0.934   3.508
 1240TIP3   OH2 3725   3.131   0.846   3.019
 1240TIP3    H1 3726   3.114   0.939   3.034
 1240TIP3    H2 3727   3.197   0.845   2.950
 1241TIP3   OH2 3728   3.007   0.681   3.203
 1241TIP3    H1 3729   2.921   0.651   3.174
 1241TIP3    H2 3730   3.040   0.733   3.130
 1242TIP3   OH2 3731   1.424   3.603   3.227
 1242TIP3    H1 3732   1.432   3.696   3.210
 1242TIP3    H2 3733   1.333   3.592   3.257
 1243TIP3   OH2 3734   1.453   3.874   1.522
 1243TIP3    H1 3735   1.444   3.849   1.430
 1243TIP3    H2 3736   1.374   3.925   1.541
 1244TIP3   OH2 3737   0.085   5.076   0.478
 1244TIP3    H1 3738  -0.007   5.056   0.461
 1244TIP3    H2 3739   0.105   5.152   0.423
 1245TIP3   OH2 3740   5.286   4.363   0.747
 1245TIP3    H1 3741   5.193   4.378   0.729
 1245TIP3    H2 3742   5.304   4.418   0.823
 1246TIP3   OH2 3743   0.341   0.617   3.559
 1246TIP3    H1 3744   0.294   0.552   3.611
 1246TIP3    H2 3745   0.276   0.651   3.497
 1247TIP3   OH2 3746   6.348   1.473   4.805
 1247TIP3    H1 3747   6.254   1.492   4.802
 1247TIP3    H2 3748   6.389   1.550   4.764
 1248TIP3   OH2 3749   1.526   2.326   4.053
 1248TIP3    H1 3750   1.578   2.246   4.049
 1248TIP3    H2 3751   1.493   2.338   3.964
 1249TIP3   OH2 3752   4.758   0.999   3.590
 1249TIP3    H1 3753   4.725   1.085   3.615
 1249TIP3    H2 3754   4.784   1.008   3.499
 1250TIP3   OH2 3755   0.075   3.354   4.484
 1250TIP3    H1 3756   0.111   3.340   4.397
 1250TIP3    H2 3757  -0.009   3.309   4.483
 1251TIP3   OH2 3758   0.129   0.156   1.109
 1251TIP3    H1 3759   0.054   0.164   1.050
 1251TIP3    H2 3760   0.189   0.097   1.063
 1252TIP3   OH2 3761   1.835   1.006   1.377
 1252TIP3    H1 3762   1.868   1.082   1.426
 1252TIP3    H2 3763   1.798   0.949   1.445
 1253TIP3   OH2 3764   5.385   5.316   0.925
 1253TIP3    H1 3765   5.325   5.244   0.944
 1253TIP3    H2 3766   5.428   5.333   1.009
 1254TIP3   OH2 3767   4.959   2.189   4.564
 1254TIP3    H1 3768   5.016   2.234   4.626
 1254TIP3    H2 3769   4.989   2.098   4.566
 1255TIP3   OH2 3770   4.556   5.926   3.577
 1255TIP3    H1 3771   4.567   5.917   3.672
 1255TIP3    H2 3772   4.520   5.842   3.549
 1256TIP3   OH2 3773   6.155   1.206   4.609
 1256TIP3    H1 3774   6.106   1.277   4.567
 1256TIP3    H2 3775   6.087   1.145   4.639
 1257TIP3   OH2 3776   3.482   0.427   4.442
 1257TIP3    H1 3777   3.527   0.481   4.377
 1257TIP3    H2 3778   3.441   0.490   4.502
 1258TIP3   OH2 3779   3.896   4.056   2.621
 1258TIP3    H1 3780   3.912   4.135   2.673
 1258TIP3    H2 3781   3.904   4.085   2.530
 1259TIP3   OH2 3782   3.476   2.989   0.522
 1259TIP3    H1 3783   3.408   2.967   0.458
 1259TIP3    H2 3784   3.474   3.085   0.527
 1260TIP3   OH2 3785   2.592   5.175   0.460
 1260TIP3    H1 3786   2.529   5.103   0.463
 1260TIP3    H2 3787   2.673   5.137   0.494
 1261TIP3   OH2 3788   1.834   3.097   3.092
 1261TIP3    H1 3789   1.847   3.015   3.043
 1261TIP3    H2 3790   1.798   3.157   3.027
 1262TIP3   OH2 3791   5.580   1.714   2.480
 1262TIP3    H1 3792   5.597   1.694   2.388
 1262TIP3    H2 3793   5.556   1.807   2.480
 1263TIP3   OH2 3794   2.964   3.975   4.460
 1263TIP3    H1 3795   2.918   4.059   4.459
 1263TIP3    H2 3796   2.945   3.938   4.546
 1264TIP3   OH2 3797   3.522   2.119   5.040
 1264TIP3    H1 3798   3.563   2.107   4.954
 1264TIP3    H2 3799   3.432   2.088   5.028
 1265TIP3   OH2 3800   2.256   5.504   2.652
 1265TIP3    H1 3801   2.314   5.525   2.726
 1265TIP3    H2 3802   2.171   5.488   2.693
 1266TIP3   OH2 3803   4.828   0.971   0.560
 1266TIP3    H1 3804   4.817   0.940   0.470
 1266TIP3    H2 3805   4.817   0.892   0.614
 1267TIP3   OH2 3806   5.979   4.786   3.177
 1267TIP3    H1 3807   5.911   4.844   3.142
 1267TIP3    H2 3808   5.931   4.707   3.203
 1268TIP3   OH2 3809   5.119   1.497   3.524
 1268TIP3    H1 3810   5.064   1.454   3.589
 1268TIP3    H2 3811   5.082   1.470   3.440
 1269TIP3   OH2 3812   2.630   3.475   4.240
 1269TIP3    H1 3813   2.614   3.560   4.280
 1269TIP3    H2 3814   2.544   3.433   4.236
 1270TIP3   OH2 3815   4.478   0.965   0.594
 1270TIP3    H1 3816   4.436   1.035   0.644
 1270TIP3    H2 3817   4.554   1.007   0.552
 1271TIP3   OH2 3818   2.854   0.864   2.032
 1271TIP3    H1 3819   2.907   0.833   2.105
 1271TIP3    H2 3820   2.847   0.787   1.974
 1272TIP3   OH2 3821   4.261   3.720   3.233
 1272TIP3    H1 3822   4.335   3.660   3.221
 1272TIP3    H2 3823   4.234   3.742   3.144
 1273TIP3   OH2 3824   6.323   4.271   1.030
 1273TIP3    H1 3825   6.377   4.330   1.083
 1273TIP3    H2 3826   6.262   4.233   1.093
 1274TIP3   OH2 3827   2.364   3.041   1.161
 1274TIP3    H1 3828   2.360   2.972   1.095
 1274TIP3    H2 3829   2.452   3.078   1.152
 1275TIP3   OH2 3830   2.599   2.398   3.049
 1275TIP3    H1 3831   2.639   2.451   2.979
 1275TIP3    H2 3832   2.571   2.318   3.005
 1276TIP3   OH2 3833   5.984   4.425   5.207
 1276TIP3    H1 3834   5.941   4.425   5.122
 1276TIP3    H2 3835   5.925   4.375   5.264
 1277TIP3   OH2 3836   2.781   0.735   0.560
 1277TIP3    H1 3837   2.791   0.812   0.504
 1277TIP3    H2 3838   2.852   0.676   0.532
 1278TIP3   OH2 3839   4.167   5.320   4.900
 1278TIP3    H1 3840   4.233   5.381   4.868
 1278TIP3    H2 3841   4.096   5.325   4.836
 1279TIP3   OH2 3842   4.061   0.849   2.446
 1279TIP3    H1 3843   4.001   0.912   2.406
 1279TIP3    H2 3844   4.047   0.858   2.540
 1280TIP3   OH2 3845   1.524   1.108   0.974
 1280TIP3    H1 3846   1.534   1.013   0.963
 1280TIP3    H2 3847   1.593   1.132   1.036
 1281TIP3   OH2 3848   2.122   5.791   1.511
 1281TIP3    H1 3849   2.073   5.866   1.477
 1281TIP3    H2 3850   2.138   5.736   1.435
 1282TIP3   OH2 3851   2.951   1.253   4.444
 1282TIP3    H1 3852   3.020   1.296   4.392
 1282TIP3    H2 3853   2.950   1.301   4.527
 1283TIP3   OH2 3854   5.327   5.096   3.197
 1283TIP3    H1 3855   5.416   5.106   3.161
 1283TIP3    H2 3856   5.332   5.018   3.252
 1284TIP3   OH2 3857   4.011   2.374   3.013
 1284TIP3    H1 3858   3.985   2.368   3.105
 1284TIP3    H2 3859   4.104   2.352   3.013
 1285TIP3   OH2 3860   1.655   0.618   4.486
 1285TIP3    H1 3861   1.747   0.623   4.461
 1285TIP3    H2 3862   1.621   0.707   4.471
 1286TIP3   OH2 3863   1.460   2.953   3.303
 1286TIP3    H1 3864   1.468   2.867   3.342
 1286TIP3    H2 3865   1.462   2.938   3.209
 1287TIP3   OH2 3866   3.412   2.247   4.711
 1287TIP3    H1 3867   3.466   2.170   4.723
 1287TIP3    H2 3868   3.337   2.232   4.769
 1288TIP3   OH2 3869   4.165   2.894   2.282
 1288TIP3    H1 3870   4.087   2.846   2.254
 1288TIP3    H2 3871   4.183   2.862   2.370
 1289TIP3   OH2 3872   0.946   0.094   2.183
 1289TIP3    H1 3873   0.917   0.080   2.093
 1289TIP3    H2 3874   1.029   0.048   2.189
 1290TIP3   OH2 3875   3.372   4.426   4.885
 1290TIP3    H1 3876   3.325   4.487   4.942
 1290TIP3    H2 3877   3.304   4.366   4.852
 1291TIP3   OH2 3878   4.429   1.273   2.190
 1291TIP3    H1 3879   4.339   1.248   2.169
 1291TIP3    H2 3880   4.480   1.194   2.173
 1292TIP3   OH2 3881   3.769   1.050   4.251
 1292TIP3    H1 3882   3.699   1.111   4.274
 1292TIP3    H2 3883   3.830   1.055   4.324
 1293TIP3   OH2 3884   0.886   1.940   2.847
 1293TIP3    H1 3885   0.937   1.891   2.911
 1293TIP3    H2 3886   0.830   1.874   2.805
 1294TIP3   OH2 3887   4.694   5.286   3.625
 1294TIP3    H1 3888   4.689   5.259   3.534
 1294TIP3    H2 3889   4.660   5.211   3.674
 1295TIP3   OH2 3890   6.108   2.739   1.441
 1295TIP3    H1 3891   6.091   2.793   1.519
 1295TIP3    H2 3892   6.198   2.708   1.453
 1296TIP3   OH2 3893   6.138   2.076   0.649
 1296TIP3    H1 3894   6.119   2.057   0.741
 1296TIP3    H2 3895   6.231   2.101   0.649
 1297TIP3   OH2 3896   4.081   5.407   4.662
 1297TIP3    H1 3897   4.009   5.406   4.599
 1297TIP3    H2 3898   4.097   5.500   4.678
 1298TIP3   OH2 3899   4.476   0.455   0.403
 1298TIP3    H1 3900   4.545   0.521   0.414
 1298TIP3    H2 3901   4.457   0.457   0.309
 1299TIP3   OH2 3902   1.340   0.201   1.113
 1299TIP3    H1 3903   1.323   0.137   1.182
 1299TIP3    H2 3904   1.290   0.168   1.038
 1300TIP3   OH2 3905   3.595   1.172   3.464
 1300TIP3    H1 3906   3.675   1.154   3.414
 1300TIP3    H2 3907   3.618   1.246   3.520
 1301TIP3   OH2 3908   0.791   1.368   1.501
 1301TIP3    H1 3909   0.842   1.300   1.546
 1301TIP3    H2 3910   0.729   1.399   1.567
 1302TIP3   OH2 3911   2.609   1.663   4.380
 1302TIP3    H1 3912   2.671   1.595   4.353
 1302TIP3    H2 3913   2.525   1.633   4.347
 1303TIP3   OH2 3914   2.074   5.167   5.039
 1303TIP3    H1 3915   2.045   5.248   4.996
 1303TIP3    H2 3916   2.098   5.194   5.128
 1304TIP3   OH2 3917   2.856   5.200   3.944
 1304TIP3    H1 3918   2.830   5.239   3.861
 1304TIP3    H2 3919   2.782   5.214   4.003
 1305TIP3   OH2 3920   0.504   1.624   2.547
 1305TIP3    H1 3921   0.412   1.630   2.573
 1305TIP3    H2 3922   0.534   1.541   2.583
 1306TIP3   OH2 3923   5.038   1.143   1.402
 1306TIP3    H1 3924   5.025   1.192   1.484
 1306TIP3    H2 3925   5.041   1.052   1.430
 1307TIP3   OH2 3926   3.185   0.171   4.002
 1307TIP3    H1 3927   3.137   0.253   3.988
 1307TIP3    H2 3928   3.148   0.134   4.082
 1308TIP3   OH2 3929   5.949   1.488   0.167
 1308TIP3    H1 3930   5.958   1.509   0.260
 1308TIP3    H2 3931   5.966   1.571   0.122
 1309TIP3   OH2 3932   1.398   2.358   5.126
 1309TIP3    H1 3933   1.430   2.434   5.078
 1309TIP3    H2 3934   1.307   2.378   5.146
 1310TIP3   OH2 3935   3.482   5.425   2.245
 1310TIP3    H1 3936   3.575   5.425   2.269
 1310TIP3    H2 3937   3.439   5.381   2.318
 1311TIP3   OH2 3938   0.522   4.442   2.375
 1311TIP3    H1 3939   0.568   4.508   2.427
 1311TIP3    H2 3940   0.458   4.405   2.435
 1312TIP3   OH2 3941   2.988   1.195   0.084
 1312TIP3    H1 3942   3.053   1.220   0.018
 1312TIP3    H2 3943   3.019   1.110   0.116
 1313TIP3   OH2 3944   1.045   5.154   4.492
 1313TIP3    H1 3945   0.998   5.075   4.519
 1313TIP3    H2 3946   1.118   5.162   4.554
 1314TIP3   OH2 3947   1.443   0.618   0.329
 1314TIP3    H1 3948   1.482   0.604   0.416
 1314TIP3    H2 3949   1.495   0.688   0.291
 1315TIP3   OH2 3950   4.942   5.675   3.340
 1315TIP3    H1 3951   4.927   5.757   3.386
 1315TIP3    H2 3952   5.035   5.656   3.355
 1316TIP3   OH2 3953   5.094   2.798   1.689
 1316TIP3    H1 3954   5.169   2.739   1.676
 1316TIP3    H2 3955   5.088   2.846   1.607
 1317TIP3   OH2 3956   1.150   5.051   0.436
 1317TIP3    H1 3957   1.203   4.974   0.419
 1317TIP3    H2 3958   1.062   5.017   0.452
 1318TIP3   OH2 3959   0.680   0.350   3.154
 1318TIP3    H1 3960   0.744   0.284   3.179
 1318TIP3    H2 3961   0.598   0.301   3.144
 1319TIP3   OH2 3962   4.553   0.687   0.730
 1319TIP3    H1 3963   4.646   0.708   0.724
 1319TIP3    H2 3964   4.510   0.752   0.674
 1320TIP3   OH2 3965   1.504   2.314   0.210
 1320TIP3    H1 3966   1.416   2.318   0.247
 1320TIP3    H2 3967   1.529   2.406   0.198
 1321TIP3   OH2 3968   1.846   4.646   0.849
 1321TIP3    H1 3969   1.797   4.691   0.780
 1321TIP3    H2 3970   1.918   4.603   0.804
 1322TIP3   OH2 3971   6.188   3.848   0.420
 1322TIP3    H1 3972   6.237   3.779   0.464
 1322TIP3    H2 3973   6.254   3.895   0.368
 1323TIP3   OH2 3974   5.638   2.131   5.121
 1323TIP3    H1 3975   5.564   2.070   5.124
 1323TIP3    H2 3976   5.653   2.155   5.213
 1324TIP3   OH2 3977   4.052   0.380   0.980
 1324TIP3    H1 3978   4.139   0.371   1.019
 1324TIP3    H2 3979   4.067   0.372   0.886
 1325TIP3   OH2 3980   3.377   0.661   1.466
 1325TIP3    H1 3981   3.387   0.730   1.401
 1325TIP3    H2 3982   3.449   0.673   1.527
 1326TIP3   OH2 3983   0.193   1.724   3.898
 1326TIP3    H1 3984   0.239   1.645   3.870
 1326TIP3    H2 3985   0.246   1.757   3.971
 1327TIP3   OH2 3986   2.687   2.209   0.912
 1327TIP3    H1 3987   2.622   2.178   0.848
 1327TIP3    H2 3988   2.678   2.304   0.911
 1328TIP3   OH2 3989   3.872   4.956   4.341
 1328TIP3    H1 3990   3.959   4.931   4.309
 1328TIP3    H2 3991   3.881   5.048   4.365
 1329TIP3   OH2 3992   5.343   3.231   3.332
 1329TIP3    H1 3993   5.407   3.175   3.374
 1329TIP3    H2 3994   5.355   3.215   3.238
 1330TIP3   OH2 3995   3.567   0.692   5.064
 1330TIP3    H1 3996   3.529   0.709   5.151
 1330TIP3    H2 3997   3.493   0.662   5.011
 1331TIP3   OH2 3998   1.690   1.324   4.600
 1331TIP3    H1 3999   1.640   1.281   4.531
 1331TIP3    H2 4000   1.753   1.258   4.629
 1332TIP3   OH2 4001   5.688   0.091   4.754
 1332TIP3    H1 4002   5.780   0.102   4.779
 1332TIP3    H2 4003   5.671  -0.002   4.765
 1333TIP3   OH2 4004   3.850   5.322   4.855
 1333TIP3    H1 4005   3.895   5.401   4.886
 1333TIP3    H2 4006   3.797   5.294   4.929
 1334TIP3   OH2 4007   5.549   5.450   0.507
 1334TIP3    H1 4008   5.502   5.469   0.588
 1334TIP3    H2 4009   5.546   5.355   0.498
 1335TIP3   OH2 4010   6.380   4.996   4.236
 1335TIP3    H1 4011   6.296   5.025   4.272
 1335TIP3    H2 4012   6.418   4.942   4.305
 1336TIP3   OH2 4013   4.657   3.597   5.130
 1336TIP3    H1 4014   4.624   3.597   5.040
 1336TIP3    H2 4015   4.589   3.554   5.181
 1337TIP3   OH2 4016   4.114   1.096   1.556
 1337TIP3    H1 4017   4.105   1.022   1.497
 1337TIP3    H2 4018   4.204   1.091   1.589
 1338TIP3   OH2 4019   5.972   2.876   2.601
 1338TIP3    H1 4020   5.994   2.823   2.524
 1338TIP3    H2 4021   5.877   2.886   2.597
 1339TIP3   OH2 4022   1.033   0.993   4.822
 1339TIP3    H1 4023   0.984   0.923   4.778
 1339TIP3    H2 4024   1.121   0.987   4.787
 1340TIP3   OH2 4025   3.535   5.291   3.343
 1340TIP3    H1 4026   3.592   5.367   3.328
 1340TIP3    H2 4027   3.448   5.320   3.313
 1341TIP3   OH2 4028   1.702   0.855   3.640
 1341TIP3    H1 4029   1.636   0.829   3.704
 1341TIP3    H2 4030   1.672   0.940   3.607
 1342TIP3   OH2 4031   0.655   4.264   2.199
 1342TIP3    H1 4032   0.620   4.315   2.272
 1342TIP3    H2 4033   0.709   4.197   2.241
 1343TIP3   OH2 4034   3.527   0.940   2.089
 1343TIP3    H1 4035   3.438   0.972   2.104
 1343TIP3    H2 4036   3.528   0.915   1.996
 1344TIP3   OH2 4037   2.193   1.199   1.076
 1344TIP3    H1 4038   2.131   1.197   1.003
 1344TIP3    H2 4039   2.271   1.154   1.042
 1345TIP3   OH2 4040   5.992   1.327   3.530
 1345TIP3    H1 4041   5.923   1.304   3.469
 1345TIP3    H2 4042   6.021   1.243   3.567
 1346TIP3   OH2 4043   6.107   5.030   0.096
 1346TIP3    H1 4044   6.103   4.950   0.045
 1346TIP3    H2 4045   6.016   5.053   0.114
 1347TIP3   OH2 4046   2.927   1.599   3.028
 1347TIP3    H1 4047   2.842   1.557   3.012
 1347TIP3    H2 4048   2.959   1.622   2.941
 1348TIP3   OH2 4049   0.857   3.241   1.198
 1348TIP3    H1 4050   0.898   3.167   1.243
 1348TIP3    H2 4051   0.931   3.296   1.172
 1349TIP3   OH2 4052   2.598   1.015   1.995
 1349TIP3    H1 4053   2.600   1.064   1.913
 1349TIP3    H2 4054   2.688   0.982   2.006
 1350TIP3   OH2 4055   2.362   4.632   2.470
 1350TIP3    H1 4056   2.324   4.625   2.557
 1350TIP3    H2 4057   2.291   4.609   2.410
 1351TIP3   OH2 4058   1.550   3.104   2.534
 1351TIP3    H1 4059   1.610   3.031   2.519
 1351TIP3    H2 4060   1.586   3.176   2.481
 1352TIP3   OH2 4061   5.089   4.552   0.374
 1352TIP3    H1 4062   5.100   4.497   0.296
 1352TIP3    H2 4063   5.040   4.628   0.343
 1353TIP3   OH2 4064   4.561   2.993   0.255
 1353TIP3    H1 4065   4.656   2.983   0.260
 1353TIP3    H2 4066   4.527   2.909   0.283
 1354TIP3   OH2 4067   1.726   1.332   0.709
 1354TIP3    H1 4068   1.759   1.384   0.636
 1354TIP3    H2 4069   1.706   1.247   0.670
 1355TIP3   OH2 4070   6.346   5.899   3.017
 1355TIP3    H1 4071   6.342   5.994   3.026
 1355TIP3    H2 4072   6.294   5.866   3.090
 1356TIP3   OH2 4073   1.040   2.947   2.419
 1356TIP3    H1 4074   1.006   2.965   2.507
 1356TIP3    H2 4075   1.133   2.968   2.425
 1357TIP3   OH2 4076   6.237   4.256   5.030
 1357TIP3    H1 4077   6.246   4.295   4.943
 1357TIP3    H2 4078   6.281   4.318   5.089
 1358TIP3   OH2 4079   5.956   2.984   3.479
 1358TIP3    H1 4080   5.934   2.893   3.498
 1358TIP3    H2 4081   5.882   3.035   3.512
 1359TIP3   OH2 4082   0.668   1.517   3.849
 1359TIP3    H1 4083   0.621   1.535   3.768
 1359TIP3    H2 4084   0.758   1.544   3.833
 1360TIP3   OH2 4085   4.817   1.770   0.530
 1360TIP3    H1 4086   4.825   1.859   0.563
 1360TIP3    H2 4087   4.815   1.779   0.435
 1361TIP3   OH2 4088   4.766   5.128   0.973
 1361TIP3    H1 4089   4.815   5.115   0.892
 1361TIP3    H2 4090   4.698   5.060   0.971
 1362TIP3   OH2 4091   3.409   1.423   5.137
 1362TIP3    H1 4092   3.404   1.508   5.181
 1362TIP3    H2 4093   3.479   1.433   5.073
 1363TIP3   OH2 4094   0.301   1.948   1.168
 1363TIP3    H1 4095   0.272   1.905   1.088
 1363TIP3    H2 4096   0.275   1.889   1.239
 1364TIP3   OH2 4097   3.473   3.305   4.530
 1364TIP3    H1 4098   3.432   3.300   4.617
 1364TIP3    H2 4099   3.480   3.399   4.512
 1365TIP3   OH2 4100   1.712   4.907   5.097
 1365TIP3    H1 4101   1.805   4.925   5.083
 1365TIP3    H2 4102   1.684   4.862   5.018
 1366TIP3   OH2 4103   3.902   3.041   0.838
 1366TIP3    H1 4104   3.915   3.135   0.851
 1366TIP3    H2 4105   3.954   3.020   0.761
 1367TIP3   OH2 4106   4.429   1.060   1.140
 1367TIP3    H1 4107   4.393   1.140   1.104
 1367TIP3    H2 4108   4.416   0.994   1.072
 1368TIP3   OH2 4109   5.635   2.829   4.867
 1368TIP3    H1 4110   5.728   2.810   4.882
 1368TIP3    H2 4111   5.603   2.753   4.818
 1369TIP3   OH2 4112   1.397   3.392   2.482
 1369TIP3    H1 4113   1.321   3.353   2.437
 1369TIP3    H2 4114   1.466   3.392   2.416
 1370TIP3   OH2 4115   6.289   4.126   2.014
 1370TIP3    H1 4116   6.299   4.099   2.105
 1370TIP3    H2 4117   6.362   4.085   1.968
 1371TIP3   OH2 4118   2.194   0.358   3.555
 1371TIP3    H1 4119   2.130   0.360   3.484
 1371TIP3    H2 4120   2.195   0.267   3.584
 1372TIP3   OH2 4121   0.260   5.672   1.426
 1372TIP3    H1 4122   0.250   5.733   1.353
 1372TIP3    H2 4123   0.355   5.665   1.438
 1373TIP3   OH2 4124   0.545   5.003   2.617
 1373TIP3    H1 4125   0.507   5.034   2.535
 1373TIP3    H2 4126   0.605   5.073   2.644
 1374TIP3   OH2 4127   3.921   2.852   4.445
 1374TIP3    H1 4128   3.851   2.860   4.509
 1374TIP3    H2 4129   3.994   2.901   4.483
 1375TIP3   OH2 4130   1.397   4.736   2.700
 1375TIP3    H1 4131   1.356   4.657   2.666
 1375TIP3    H2 4132   1.349   4.755   2.781
 1376TIP3   OH2 4133   4.741   5.941   1.502
 1376TIP3    H1 4134   4.653   5.906   1.508
 1376TIP3    H2 4135   4.775   5.909   1.418
 1377TIP3   OH2 4136   5.480   3.811   3.039
 1377TIP3    H1 4137   5.446   3.732   3.081
 1377TIP3    H2 4138   5.403   3.865   3.024
 1378TIP3   OH2 4139   4.191   3.528   4.276
 1378TIP3    H1 4140   4.222   3.599   4.219
 1378TIP3    H2 4141   4.098   3.546   4.286
 1379TIP3   OH2 4142   5.202   1.959   2.096
 1379TIP3    H1 4143   5.241   1.882   2.054
 1379TIP3    H2 4144   5.208   1.940   2.190
 1380TIP3   OH2 4145   2.555   5.410   0.340
 1380TIP3    H1 4146   2.579   5.337   0.396
 1380TIP3    H2 4147   2.471   5.385   0.302
 1381TIP3   OH2 4148   0.479   4.228   0.496
 1381TIP3    H1 4149   0.410   4.262   0.439
 1381TIP3    H2 4150   0.435   4.214   0.580
 1382TIP3   OH2 4151   1.494   4.091   3.859
 1382TIP3    H1 4152   1.542   4.021   3.814
 1382TIP3    H2 4153   1.403   4.062   3.859
 1383TIP3   OH2 4154   4.742   0.562   4.729
 1383TIP3    H1 4155   4.799   0.556   4.806
 1383TIP3    H2 4156   4.741   0.472   4.695
 1384TIP3   OH2 4157   2.804   0.604   2.385
 1384TIP3    H1 4158   2.856   0.667   2.336
 1384TIP3    H2 4159   2.715   0.640   2.386
 1385TIP3   OH2 4160   4.002   3.653   1.599
 1385TIP3    H1 4161   4.056   3.641   1.521
 1385TIP3    H2 4162   3.915   3.622   1.572
 1386TIP3   OH2 4163   1.137   5.846   2.086
 1386TIP3    H1 4164   1.060   5.889   2.123
 1386TIP3    H2 4165   1.107   5.759   2.061
 1387TIP3   OH2 4166   1.842   2.816   0.076
 1387TIP3    H1 4167   1.902   2.802   0.149
 1387TIP3    H2 4168   1.766   2.760   0.096
 1388TIP3   OH2 4169   5.389   4.899   3.829
 1388TIP3    H1 4170   5.383   4.950   3.909
 1388TIP3    H2 4171   5.303   4.858   3.819
 1389TIP3   OH2 4172   5.089   2.705   0.145
 1389TIP3    H1 4173   5.079   2.716   0.051
 1389TIP3    H2 4174   5.178   2.734   0.164
 1390TIP3   OH2 4175   3.775   5.696   0.774
 1390TIP3    H1 4176   3.688   5.693   0.815
 1390TIP3    H2 4177   3.811   5.781   0.800
 1391TIP3   OH2 4178   3.257   2.993   2.207
 1391TIP3    H1 4179   3.270   3.066   2.148
 1391TIP3    H2 4180   3.220   2.924   2.152
 1392TIP3   OH2 4181   4.484   1.413   0.557
 1392TIP3    H1 4182   4.551   1.379   0.616
 1392TIP3    H2 4183   4.496   1.508   0.559
 1393TIP3   OH2 4184   2.203   1.981   1.565
 1393TIP3    H1 4185   2.170   1.981   1.476
 1393TIP3    H2 4186   2.222   2.073   1.584
 1394TIP3   OH2 4187   3.015   4.442   3.752
 1394TIP3    H1 4188   3.014   4.538   3.747
 1394TIP3    H2 4189   3.090   4.422   3.807
 1395TIP3   OH2 4190   4.232   3.846   4.585
 1395TIP3    H1 4191   4.302   3.906   4.560
 1395TIP3    H2 4192   4.258   3.762   4.546
 1396TIP3   OH2 4193   4.077   1.045   3.288
 1396TIP3    H1 4194   4.095   0.952   3.296
 1396TIP3    H2 4195   3.985   1.054   3.314
 1397TIP3   OH2 4196   1.015   4.214   4.002
 1397TIP3    H1 4197   0.958   4.250   4.069
 1397TIP3    H2 4198   0.979   4.127   3.983
 1398TIP3   OH2 4199   4.554   3.188   1.005
 1398TIP3    H1 4200   4.498   3.265   1.014
 1398TIP3    H2 4201   4.567   3.179   0.911
 1399TIP3   OH2 4202   5.490   2.344   2.717
 1399TIP3    H1 4203   5.457   2.402   2.648
 1399TIP3    H2 4204   5.566   2.389   2.753
 1400TIP3   OH2 4205   5.829   4.299   3.455
 1400TIP3    H1 4206   5.910   4.343   3.431
 1400TIP3    H2 4207   5.856   4.211   3.481
 1401TIP3   OH2 4208   5.812   5.508   1.869
 1401TIP3    H1 4209   5.798   5.413   1.859
 1401TIP3    H2 4210   5.884   5.514   1.932
 1402TIP3   OH2 4211   0.257   4.770   2.455
 1402TIP3    H1 4212   0.227   4.711   2.386
 1402TIP3    H2 4213   0.352   4.774   2.442
 1403TIP3   OH2 4214   1.065   5.607   2.565
 1403TIP3    H1 4215   1.138   5.561   2.605
 1403TIP3    H2 4216   1.105   5.676   2.513
 1404TIP3   OH2 4217   3.058   5.491   2.655
 1404TIP3    H1 4218   3.078   5.470   2.563
 1404TIP3    H2 4219   3.141   5.476   2.701
 1405TIP3   OH2 4220   2.164   1.821   2.979
 1405TIP3    H1 4221   2.085   1.779   3.013
 1405TIP3    H2 4222   2.228   1.814   3.050
 1406TIP3   OH2 4223   2.125   2.910   1.693
 1406TIP3    H1 4224   2.071   2.891   1.617
 1406TIP3    H2 4225   2.084   2.862   1.765
 1407TIP3   OH2 4226   3.182   5.734   2.288
 1407TIP3    H1 4227   3.228   5.798   2.344
 1407TIP3    H2 4228   3.188   5.652   2.337
 1408TIP3   OH2 4229   5.926   1.258   0.039
 1408TIP3    H1 4230   5.936   1.342   0.083
 1408TIP3    H2 4231   5.953   1.193   0.105
 1409TIP3   OH2 4232   5.007   5.706   2.111
 1409TIP3    H1 4233   4.952   5.629   2.101
 1409TIP3    H2 4234   5.012   5.743   2.023
 1410TIP3   OH2 4235   6.053   3.936   4.506
 1410TIP3    H1 4236   6.145   3.910   4.511
 1410TIP3    H2 4237   6.048   4.019   4.554
 1411TIP3   OH2 4238   2.230   3.951   0.891
 1411TIP3    H1 4239   2.310   3.991   0.855
 1411TIP3    H2 4240   2.182   4.025   0.928
 1412TIP3   OH2 4241   3.380   2.680   4.963
 1412TIP3    H1 4242   3.335   2.606   5.004
 1412TIP3    H2 4243   3.395   2.653   4.873
 1413TIP3   OH2 4244   0.833   2.235   3.197
 1413TIP3    H1 4245   0.740   2.256   3.209
 1413TIP3    H2 4246   0.835   2.139   3.190
 1414TIP3   OH2 4247   1.961   3.589   0.725
 1414TIP3    H1 4248   2.021   3.596   0.650
 1414TIP3    H2 4249   1.978   3.502   0.761
 1415TIP3   OH2 4250   4.341   0.080   3.187
 1415TIP3    H1 4251   4.398   0.020   3.235
 1415TIP3    H2 4252   4.397   0.154   3.163
 1416TIP3   OH2 4253   3.777   5.834   3.065
 1416TIP3    H1 4254   3.744   5.750   3.034
 1416TIP3    H2 4255   3.748   5.839   3.156
 1417TIP3   OH2 4256   0.469   0.379   0.508
 1417TIP3    H1 4257   0.482   0.456   0.453
 1417TIP3    H2 4258   0.557   0.350   0.531
 1418TIP3   OH2 4259   0.957   4.913   3.073
 1418TIP3    H1 4260   0.933   4.900   2.982
 1418TIP3    H2 4261   0.937   4.829   3.115
 1419TIP3   OH2 4262   4.702   2.948   2.629
 1419TIP3    H1 4263   4.711   3.025   2.574
 1419TIP3    H2 4264   4.689   2.982   2.717
 1420TIP3   OH2 4265   3.991   4.725   5.024
 1420TIP3    H1 4266   3.982   4.672   4.945
 1420TIP3    H2 4267   4.076   4.767   5.015
 1421TIP3   OH2 4268   0.170   1.879   2.145
 1421TIP3    H1 4269   0.082   1.902   2.114
 1421TIP3    H2 4270   0.185   1.791   2.113
 1422TIP3   OH2 4271   1.147   1.482   2.895
 1422TIP3    H1 4272   1.112   1.536   2.824
 1422TIP3    H2 4273   1.106   1.518   2.974
 1423TIP3   OH2 4274   6.174   1.344   1.975
 1423TIP3    H1 4275   6.209   1.433   1.968
 1423TIP3    H2 4276   6.251   1.289   1.988
 1424TIP3   OH2 4277   4.930   3.191   2.219
 1424TIP3    H1 4278   4.926   3.192   2.123
 1424TIP3    H2 4279   4.996   3.257   2.241
 1425TIP3   OH2 4280   1.070   3.698   1.356
 1425TIP3    H1 4281   1.125   3.673   1.430
 1425TIP3    H2 4282   1.119   3.673   1.279
 1426TIP3   OH2 4283   3.370   1.344   1.858
 1426TIP3    H1 4284   3.414   1.263   1.831
 1426TIP3    H2 4285   3.434   1.390   1.911
 1427TIP3   OH2 4286   2.410   2.817   0.444
 1427TIP3    H1 4287   2.398   2.814   0.349
 1427TIP3    H2 4288   2.494   2.860   0.456
 1428TIP3   OH2 4289   5.809   0.876   4.423
 1428TIP3    H1 4290   5.869   0.911   4.357
 1428TIP3    H2 4291   5.740   0.941   4.429
 1429TIP3   OH2 4292   1.479   4.112   3.304
 1429TIP3    H1 4293   1.392   4.119   3.345
 1429TIP3    H2 4294   1.493   4.198   3.264
 1430TIP3   OH2 4295   4.095   1.767   3.298
 1430TIP3    H1 4296   4.127   1.728   3.379
 1430TIP3    H2 4297   4.067   1.855   3.324
 1431TIP3   OH2 4298   2.505   1.228   2.149
 1431TIP3    H1 4299   2.409   1.225   2.148
 1431TIP3    H2 4300   2.531   1.158   2.090
 1432TIP3   OH2 4301   0.435   4.882   2.842
 1432TIP3    H1 4302   0.357   4.935   2.862
 1432TIP3    H2 4303   0.466   4.917   2.758
 1433TIP3   OH2 4304   1.250   4.550   1.568
 1433TIP3    H1 4305   1.345   4.553   1.575
 1433TIP3    H2 4306   1.228   4.626   1.512
 1434TIP3   OH2 4307   1.134   0.548   4.325
 1434TIP3    H1 4308   1.132   0.616   4.258
 1434TIP3    H2 4309   1.216   0.501   4.311
 1435TIP3   OH2 4310   3.981   2.574   4.475
 1435TIP3    H1 4311   3.971   2.669   4.467
 1435TIP3    H2 4312   4.072   2.563   4.505
 1436TIP3   OH2 4313   1.464   4.906   0.830
 1436TIP3    H1 4314   1.551   4.918   0.793
 1436TIP3    H2 4315   1.474   4.833   0.892
 1437TIP3   OH2 4316   3.050   2.650   4.663
 1437TIP3    H1 4317   3.038   2.656   4.758
 1437TIP3    H2 4318   2.963   2.670   4.628
 1438TIP3   OH2 4319   2.911   1.102   2.653
 1438TIP3    H1 4320   2.916   1.197   2.658
 1438TIP3    H2 4321   2.823   1.081   2.684
 1439TIP3   OH2 4322   3.209   3.675   2.259
 1439TIP3    H1 4323   3.203   3.729   2.337
 1439TIP3    H2 4324   3.301   3.649   2.254
 1440TIP3   OH2 4325   5.298   4.192   3.635
 1440TIP3    H1 4326   5.374   4.143   3.604
 1440TIP3    H2 4327   5.335   4.265   3.685
 1441TIP3   OH2 4328   1.918   3.924   3.389
 1441TIP3    H1 4329   1.889   3.962   3.306
 1441TIP3    H2 4330   1.872   3.841   3.395
 1442TIP3   OH2 4331   4.943   0.777   3.921
 1442TIP3    H1 4332   4.981   0.840   3.981
 1442TIP3    H2 4333   4.962   0.691   3.959
 1443TIP3   OH2 4334   3.352   4.184   1.249
 1443TIP3    H1 4335   3.264   4.196   1.285
 1443TIP3    H2 4336   3.344   4.110   1.189
 1444TIP3   OH2 4337   0.583   3.275   2.896
 1444TIP3    H1 4338   0.605   3.352   2.844
 1444TIP3    H2 4339   0.515   3.305   2.956
 1445TIP3   OH2 4340   1.460   1.919   4.632
 1445TIP3    H1 4341   1.486   1.869   4.709
 1445TIP3    H2 4342   1.509   2.000   4.638
 1446TIP3   OH2 4343   0.535   5.889   3.153
 1446TIP3    H1 4344   0.452   5.938   3.146
 1446TIP3    H2 4345   0.588   5.941   3.212
 1447TIP3   OH2 4346   2.423   1.120   0.431
 1447TIP3    H1 4347   2.379   1.093   0.511
 1447TIP3    H2 4348   2.365   1.187   0.393
 1448TIP3   OH2 4349   5.786   5.400   2.439
 1448TIP3    H1 4350   5.804   5.316   2.397
 1448TIP3    H2 4351   5.734   5.449   2.375
 1449TIP3   OH2 4352   5.348   3.049   2.885
 1449TIP3    H1 4353   5.378   3.094   2.964
 1449TIP3    H2 4354   5.261   3.017   2.907
 1450TIP3   OH2 4355   6.230   0.446   2.868
 1450TIP3    H1 4356   6.195   0.363   2.900
 1450TIP3    H2 4357   6.153   0.500   2.849
 1451TIP3   OH2 4358   0.428   0.808   1.468
 1451TIP3    H1 4359   0.436   0.899   1.496
 1451TIP3    H2 4360   0.516   0.784   1.439
 1452TIP3   OH2 4361   2.739   1.817   4.799
 1452TIP3    H1 4362   2.741   1.825   4.704
 1452TIP3    H2 4363   2.680   1.743   4.816
 1453TIP3   OH2 4364   2.002   1.973   0.390
 1453TIP3    H1 4365   1.976   2.061   0.362
 1453TIP3    H2 4366   2.072   1.949   0.329
 1454TIP3   OH2 4367   1.227   0.545   2.823
 1454TIP3    H1 4368   1.176   0.589   2.754
 1454TIP3    H2 4369   1.169   0.477   2.856
 1455TIP3   OH2 4370   2.268   2.276   3.907
 1455TIP3    H1 4371   2.322   2.348   3.941
 1455TIP3    H2 4372   2.178   2.305   3.922
 1456TIP3   OH2 4373   5.885   1.475   1.839
 1456TIP3    H1 4374   5.935   1.397   1.860
 1456TIP3    H2 4375   5.887   1.481   1.743
 1457TIP3   OH2 4376   1.671   5.229   2.690
 1457TIP3    H1 4377   1.600   5.291   2.675
 1457TIP3    H2 4378   1.633   5.144   2.670
 1458TIP3   OH2 4379   1.712   5.449   4.791
 1458TIP3    H1 4380   1.782   5.452   4.725
 1458TIP3    H2 4381   1.658   5.526   4.772
 1459TIP3   OH2 4382   1.162   3.275   1.367
 1459TIP3    H1 4383   1.103   3.201   1.351
 1459TIP3    H2 4384   1.241   3.235   1.403
 1460TIP3   OH2 4385   2.029   0.889   0.408
 1460TIP3    H1 4386   1.938   0.908   0.430
 1460TIP3    H2 4387   2.030   0.796   0.385
 1461TIP3   OH2 4388   2.371   1.872   4.782
 1461TIP3    H1 4389   2.389   1.808   4.713
 1461TIP3    H2 4390   2.315   1.824   4.844
 1462TIP3   OH2 4391   2.218   4.201   0.364
 1462TIP3    H1 4392   2.203   4.287   0.403
 1462TIP3    H2 4393   2.139   4.185   0.311
 1463TIP3   OH2 4394   5.225   3.790   2.250
 1463TIP3    H1 4395   5.196   3.769   2.162
 1463TIP3    H2 4396   5.195   3.717   2.304
 1464TIP3   OH2 4397   4.796   5.452   0.278
 1464TIP3    H1 4398   4.727   5.472   0.341
 1464TIP3    H2 4399   4.855   5.394   0.325
 1465TIP3   OH2 4400   3.598   3.548   4.544
 1465TIP3    H1 4401   3.572   3.527   4.634
 1465TIP3    H2 4402   3.692   3.564   4.549
 1466TIP3   OH2 4403   2.574   3.414   4.581
 1466TIP3    H1 4404   2.490   3.367   4.586
 1466TIP3    H2 4405   2.550   3.506   4.585
 1467TIP3   OH2 4406   4.981   0.153   3.916
 1467TIP3    H1 4407   4.892   0.181   3.892
 1467TIP3    H2 4408   5.038   0.203   3.858
 1468TIP3   OH2 4409   1.538   3.273   2.764
 1468TIP3    H1 4410   1.537   3.238   2.675
 1468TIP3    H2 4411   1.458   3.325   2.770
 1469TIP3   OH2 4412   4.326   2.434   3.298
 1469TIP3    H1 4413   4.402   2.382   3.322
 1469TIP3    H2 4414   4.261   2.371   3.268
 1470TIP3   OH2 4415   4.081   0.691   0.925
 1470TIP3    H1 4416   4.024   0.691   0.849
 1470TIP3    H2 4417   4.093   0.599   0.947
 1471TIP3   OH2 4418   5.378   0.541   3.759
 1471TIP3    H1 4419   5.440   0.612   3.774
 1471TIP3    H2 4420   5.402   0.507   3.672
 1472TIP3   OH2 4421   2.951   4.327   2.621
 1472TIP3    H1 4422   2.950   4.284   2.536
 1472TIP3    H2 4423   2.867   4.373   2.626
 1473TIP3   OH2 4424   5.642   0.199   2.172
 1473TIP3    H1 4425   5.711   0.138   2.194
 1473TIP3    H2 4426   5.577   0.146   2.126
 1474TIP3   OH2 4427   0.817   2.999   0.872
 1474TIP3    H1 4428   0.841   3.065   0.937
 1474TIP3    H2 4429   0.791   2.923   0.925
 1475TIP3   OH2 4430   1.541   5.779   4.372
 1475TIP3    H1 4431   1.507   5.804   4.458
 1475TIP3    H2 4432   1.634   5.800   4.375
 1476TIP3   OH2 4433   0.438   4.187   2.014
 1476TIP3    H1 4434   0.533   4.182   2.026
 1476TIP3    H2 4435   0.424   4.273   1.975
 1477TIP3   OH2 4436   1.259   2.771   4.730
 1477TIP3    H1 4437   1.233   2.698   4.786
 1477TIP3    H2 4438   1.226   2.849   4.775
 1478TIP3   OH2 4439   2.758   3.279   4.089
 1478TIP3    H1 4440   2.714   3.333   4.155
 1478TIP3    H2 4441   2.726   3.313   4.006
 1479TIP3   OH2 4442   3.011   1.125   5.017
 1479TIP3    H1 4443   3.064   1.204   5.025
 1479TIP3    H2 4444   3.065   1.056   5.056
 1480TIP3   OH2 4445   1.604   4.300   3.544
 1480TIP3    H1 4446   1.662   4.231   3.514
 1480TIP3    H2 4447   1.663   4.369   3.576
 1481TIP3   OH2 4448   4.099   1.641   3.959
 1481TIP3    H1 4449   4.180   1.607   3.997
 1481TIP3    H2 4450   4.051   1.676   4.034
 1482TIP3   OH2 4451   0.455   3.102   4.248
 1482TIP3    H1 4452   0.413   3.149   4.176
 1482TIP3    H2 4453   0.455   3.165   4.320
 1483TIP3   OH2 4454   5.420   4.376   1.646
 1483TIP3    H1 4455   5.332   4.365   1.612
 1483TIP3    H2 4456   5.426   4.470   1.667
 1484TIP3   OH2 4457   3.855   1.667   3.393
 1484TIP3    H1 4458   3.931   1.686   3.337
 1484TIP3    H2 4459   3.797   1.742   3.381
 1485TIP3   OH2 4460   1.133   0.898   1.005
 1485TIP3    H1 4461   1.196   0.826   0.999
 1485TIP3    H2 4462   1.081   0.892   0.925
 1486TIP3   OH2 4463   2.579   3.317   3.853
 1486TIP3    H1 4464   2.578   3.226   3.823
 1486TIP3    H2 4465   2.491   3.331   3.888
 1487TIP3   OH2 4466   3.381   1.919   1.055
 1487TIP3    H1 4467   3.409   1.970   0.979
 1487TIP3    H2 4468   3.394   1.978   1.129
 1488TIP3   OH2 4469   4.592   4.740   4.514
 1488TIP3    H1 4470   4.683   4.719   4.536
 1488TIP3    H2 4471   4.543   4.720   4.594
 1489TIP3   OH2 4472   3.154   0.981   2.611
 1489TIP3    H1 4473   3.222   1.046   2.628
 1489TIP3    H2 4474   3.073   1.022   2.643
 1490TIP3   OH2 4475   3.682   2.754   1.906
 1490TIP3    H1 4476   3.641   2.669   1.887
 1490TIP3    H2 4477   3.608   2.812   1.922
 1491TIP3   OH2 4478   5.302   1.441   1.898
 1491TIP3    H1 4479   5.315   1.531   1.927
 1491TIP3    H2 4480   5.208   1.425   1.912
 1492TIP3   OH2 4481   3.570   2.469   2.587
 1492TIP3    H1 4482   3.636   2.526   2.626
 1492TIP3    H2 4483   3.569   2.493   2.494
 1493TIP3   OH2 4484   2.415   4.349   1.641
 1493TIP3    H1 4485   2.345   4.283   1.639
 1493TIP3    H2 4486   2.445   4.348   1.732
 1494TIP3   OH2 4487   5.074   0.665   1.652
 1494TIP3    H1 4488   5.157   0.646   1.609
 1494TIP3    H2 4489   5.042   0.580   1.682
 1495TIP3   OH2 4490   5.261   5.322   1.446
 1495TIP3    H1 4491   5.256   5.281   1.359
 1495TIP3    H2 4492   5.170   5.329   1.474
 1496TIP3   OH2 4493   2.958   1.989   1.188
 1496TIP3    H1 4494   2.968   2.042   1.266
 1496TIP3    H2 4495   3.013   2.031   1.122
 1497TIP3   OH2 4496   4.981   3.000   3.354
 1497TIP3    H1 4497   4.963   3.072   3.293
 1497TIP3    H2 4498   4.931   2.926   3.319
 1498TIP3   OH2 4499   6.123   1.109   4.229
 1498TIP3    H1 4500   6.202   1.148   4.193
 1498TIP3    H2 4501   6.145   1.090   4.320
 1499TIP3   OH2 4502   1.408   5.352   1.423
 1499TIP3    H1 4503   1.340   5.303   1.377
 1499TIP3    H2 4504   1.446   5.409   1.355
 1500TIP3   OH2 4505   0.902   0.325   1.277
 1500TIP3    H1 4506   0.874   0.406   1.320
 1500TIP3    H2 4507   0.960   0.354   1.206
 1501TIP3   OH2 4508   1.660   4.783   4.845
 1501TIP3    H1 4509   1.648   4.751   4.755
 1501TIP3    H2 4510   1.583   4.751   4.891
 1502TIP3   OH2 4511   2.008   2.250   0.312
 1502TIP3    H1 4512   2.084   2.305   0.295
 1502TIP3    H2 4513   1.959   2.297   0.380
 1503TIP3   OH2 4514   0.206   4.410   1.153
 1503TIP3    H1 4515   0.281   4.396   1.211
 1503TIP3    H2 4516   0.244   4.442   1.071
 1504TIP3   OH2 4517   3.256   0.823   3.752
 1504TIP3    H1 4518   3.289   0.876   3.824
 1504TIP3    H2 4519   3.264   0.879   3.674
 1505TIP3   OH2 4520   0.637   4.907   4.510
 1505TIP3    H1 4521   0.652   4.813   4.505
 1505TIP3    H2 4522   0.554   4.920   4.464
 1506TIP3   OH2 4523   4.047   4.114   3.412
 1506TIP3    H1 4524   4.106   4.048   3.447
 1506TIP3    H2 4525   3.962   4.092   3.449
 1507TIP3   OH2 4526   5.853   4.164   1.554
 1507TIP3    H1 4527   5.868   4.248   1.598
 1507TIP3    H2 4528   5.779   4.181   1.496
 1508TIP3   OH2 4529   0.931   3.802   3.546
 1508TIP3    H1 4530   1.009   3.749   3.566
 1508TIP3    H2 4531   0.866   3.775   3.611
 1509TIP3   OH2 4532   4.784   2.735   4.350
 1509TIP3    H1 4533   4.775   2.662   4.289
 1509TIP3    H2 4534   4.735   2.806   4.309
 1510TIP3   OH2 4535   6.018   2.190   0.924
 1510TIP3    H1 4536   6.051   2.129   0.990
 1510TIP3    H2 4537   5.930   2.214   0.955
 1511TIP3   OH2 4538   2.910   2.605   3.159
 1511TIP3    H1 4539   2.819   2.631   3.174
 1511TIP3    H2 4540   2.961   2.661   3.217
 1512TIP3   OH2 4541   6.130   2.485   0.088
 1512TIP3    H1 4542   6.071   2.421   0.047
 1512TIP3    H2 4543   6.072   2.540   0.141
 1513TIP3   OH2 4544   0.618   0.697   0.902
 1513TIP3    H1 4545   0.598   0.605   0.886
 1513TIP3    H2 4546   0.597   0.710   0.995
 1514TIP3   OH2 4547   3.539   0.241   4.657
 1514TIP3    H1 4548   3.588   0.323   4.658
 1514TIP3    H2 4549   3.454   0.264   4.620
 1515TIP3   OH2 4550   0.705   1.997   1.782
 1515TIP3    H1 4551   0.648   1.935   1.829
 1515TIP3    H2 4552   0.648   2.033   1.714
 1516TIP3   OH2 4553   5.397   4.684   3.014
 1516TIP3    H1 4554   5.378   4.778   3.009
 1516TIP3    H2 4555   5.326   4.648   3.068
 1517TIP3   OH2 4556   0.918   5.162   2.908
 1517TIP3    H1 4557   0.958   5.102   2.971
 1517TIP3    H2 4558   0.992   5.204   2.864
 1518TIP3   OH2 4559   2.091   4.479   1.921
 1518TIP3    H1 4560   2.131   4.475   2.007
 1518TIP3    H2 4561   2.102   4.570   1.893
 1519TIP3   OH2 4562   4.680   4.088   4.195
 1519TIP3    H1 4563   4.585   4.100   4.192
 1519TIP3    H2 4564   4.715   4.160   4.142
 1520TIP3   OH2 4565   1.281   1.453   5.139
 1520TIP3    H1 4566   1.311   1.427   5.227
 1520TIP3    H2 4567   1.190   1.479   5.152
 1521TIP3   OH2 4568   4.877   2.764   1.384
 1521TIP3    H1 4569   4.939   2.701   1.419
 1521TIP3    H2 4570   4.930   2.839   1.357
 1522TIP3   OH2 4571   0.623   4.759   0.043
 1522TIP3    H1 4572   0.542   4.723   0.078
 1522TIP3    H2 4573   0.613   4.854   0.052
 1523TIP3   OH2 4574   4.219   3.740   2.228
 1523TIP3    H1 4575   4.125   3.726   2.230
 1523TIP3    H2 4576   4.254   3.666   2.178
 1524TIP3   OH2 4577   2.760   1.228   4.906
 1524TIP3    H1 4578   2.683   1.286   4.904
 1524TIP3    H2 4579   2.817   1.266   4.973
 1525TIP3   OH2 4580   1.244   2.534   4.881
 1525TIP3    H1 4581   1.279   2.453   4.844
 1525TIP3    H2 4582   1.155   2.511   4.907
 1526TIP3   OH2 4583   2.800   4.035   1.201
 1526TIP3    H1 4584   2.851   3.987   1.135
 1526TIP3    H2 4585   2.833   4.002   1.285
 1527TIP3   OH2 4586   0.669   3.140   0.282
 1527TIP3    H1 4587   0.678   3.136   0.377
 1527TIP3    H2 4588   0.618   3.220   0.266
 1528TIP3   OH2 4589   4.050   5.350   0.949
 1528TIP3    H1 4590   4.061   5.344   0.854
 1528TIP3    H2 4591   4.001   5.431   0.962
 1529TIP3   OH2 4592   0.210   2.131   3.699
 1529TIP3    H1 4593   0.144   2.115   3.767
 1529TIP3    H2 4594   0.241   2.044   3.674
 1530TIP3   OH2 4595   1.604   3.030   0.042
 1530TIP3    H1 4596   1.693   3.033   0.078
 1530TIP3    H2 4597   1.590   3.117   0.004
 1531TIP3   OH2 4598   6.056   2.876   4.136
 1531TIP3    H1 4599   6.042   2.875   4.231
 1531TIP3    H2 4600   6.066   2.969   4.114
 1532TIP3   OH2 4601   3.242   3.149   2.557
 1532TIP3    H1 4602   3.249   3.205   2.480
 1532TIP3    H2 4603   3.301   3.076   2.539
 1533TIP3   OH2 4604   3.011   4.982   3.968
 1533TIP3    H1 4605   2.984   4.940   4.050
 1533TIP3    H2 4606   2.945   5.051   3.954
 1534TIP3   OH2 4607   4.180   5.038   1.997
 1534TIP3    H1 4608   4.156   4.960   2.047
 1534TIP3    H2 4609   4.154   5.018   1.907
 1535TIP3   OH2 4610   2.187   1.809   4.990
 1535TIP3    H1 4611   2.185   1.901   5.017
 1535TIP3    H2 4612   2.159   1.762   5.069
 1536TIP3   OH2 4613   3.082   3.170   0.326
 1536TIP3    H1 4614   3.029   3.093   0.347
 1536TIP3    H2 4615   3.172   3.136   0.322
 1537TIP3   OH2 4616   2.680   1.852   3.978
 1537TIP3    H1 4617   2.656   1.857   4.070
 1537TIP3    H2 4618   2.775   1.861   3.977
 1538TIP3   OH2 4619   5.384   3.159   4.934
 1538TIP3    H1 4620   5.320   3.089   4.953
 1538TIP3    H2 4621   5.340   3.239   4.960
 1539TIP3   OH2 4622   4.010   4.865   2.965
 1539TIP3    H1 4623   3.968   4.883   3.049
 1539TIP3    H2 4624   4.091   4.819   2.989
 1540TIP3   OH2 4625   2.679   5.319   1.943
 1540TIP3    H1 4626   2.629   5.244   1.912
 1540TIP3    H2 4627   2.617   5.391   1.942
 1541TIP3   OH2 4628   3.855   3.970   4.931
 1541TIP3    H1 4629   3.912   3.952   4.856
 1541TIP3    H2 4630   3.876   4.060   4.955
 1542TIP3   OH2 4631   2.141   5.953   2.222
 1542TIP3    H1 4632   2.069   5.891   2.206
 1542TIP3    H2 4633   2.198   5.907   2.283
 1543TIP3   OH2 4634   6.142   3.937   1.087
 1543TIP3    H1 4635   6.154   4.004   1.154
 1543TIP3    H2 4636   6.051   3.949   1.058
 1544TIP3   OH2 4637   4.652   3.237   3.493
 1544TIP3    H1 4638   4.593   3.311   3.507
 1544TIP3    H2 4639   4.665   3.199   3.580
 1545TIP3   OH2 4640   2.357   4.411   4.876
 1545TIP3    H1 4641   2.338   4.441   4.964
 1545TIP3    H2 4642   2.272   4.404   4.833
 1546TIP3   OH2 4643   2.860   4.630   1.078
 1546TIP3    H1 4644   2.771   4.597   1.089
 1546TIP3    H2 4645   2.915   4.569   1.127
 1547TIP3   OH2 4646   1.216   1.908   1.598
 1547TIP3    H1 4647   1.143   1.868   1.552
 1547TIP3    H2 4648   1.280   1.837   1.608
 1548TIP3   OH2 4649   1.654   3.584   2.095
 1548TIP3    H1 4650   1.621   3.603   2.007
 1548TIP3    H2 4651   1.744   3.554   2.081
 1549TIP3   OH2 4652   5.581  -0.003   3.150
 1549TIP3    H1 4653   5.579  -0.090   3.110
 1549TIP3    H2 4654   5.612   0.055   3.081
 1550TIP3   OH2 4655   0.641   5.672   5.056
 1550TIP3    H1 4656   0.689   5.590   5.047
 1550TIP3    H2 4657   0.594   5.664   5.139
 1551TIP3   OH2 4658   5.630   2.399   4.988
 1551TIP3    H1 4659   5.721   2.372   4.976
 1551TIP3    H2 4660   5.588   2.322   5.028
 1552TIP3   OH2 4661   5.285   4.930   2.963
 1552TIP3    H1 4662   5.226   4.892   3.028
 1552TIP3    H2 4663   5.285   4.868   2.891
 1553TIP3   OH2 4664   0.478   0.134   3.000
 1553TIP3    H1 4665   0.494   0.145   2.906
 1553TIP3    H2 4666   0.535   0.062   3.027
 1554TIP3   OH2 4667   4.875   3.520   2.207
 1554TIP3    H1 4668   4.905   3.587   2.268
 1554TIP3    H2 4669   4.814   3.467   2.258
 1555TIP3   OH2 4670   1.339   2.302   4.763
 1555TIP3    H1 4671   1.423   2.259   4.745
 1555TIP3    H2 4672   1.296   2.307   4.678
 1556TIP3   OH2 4673   6.218   2.439   1.749
 1556TIP3    H1 4674   6.220   2.400   1.836
 1556TIP3    H2 4675   6.304   2.481   1.740
 1557TIP3   OH2 4676   1.835   4.521   1.125
 1557TIP3    H1 4677   1.821   4.545   1.033
 1557TIP3    H2 4678   1.787   4.587   1.175
 1558TIP3   OH2 4679   2.352   1.273   4.333
 1558TIP3    H1 4680   2.425   1.218   4.361
 1558TIP3    H2 4681   2.283   1.254   4.395
 1559TIP3   OH2 4682   6.236   5.551   3.198
 1559TIP3    H1 4683   6.164   5.491   3.216
 1559TIP3    H2 4684   6.206   5.636   3.230
 1560TIP3   OH2 4685   5.568   3.029   3.762
 1560TIP3    H1 4686   5.542   3.019   3.854
 1560TIP3    H2 4687   5.490   3.067   3.720
 1561TIP3   OH2 4688   0.932   3.829   0.668
 1561TIP3    H1 4689   0.892   3.909   0.633
 1561TIP3    H2 4690   0.864   3.790   0.722
 1562TIP3   OH2 4691   0.919   5.773   5.059
 1562TIP3    H1 4692   0.878   5.856   5.084
 1562TIP3    H2 4693   1.003   5.797   5.021
 1563TIP3   OH2 4694   0.757   0.061   1.947
 1563TIP3    H1 4695   0.709   0.143   1.960
 1563TIP3    H2 4696   0.691  -0.008   1.961
 1564TIP3   OH2 4697   4.433   4.987   2.651
 1564TIP3    H1 4698   4.518   4.998   2.695
 1564TIP3    H2 4699   4.369   4.987   2.723
 1565TIP3   OH2 4700   1.316   4.235   2.558
 1565TIP3    H1 4701   1.362   4.291   2.620
 1565TIP3    H2 4702   1.371   4.238   2.479
 1566TIP3   OH2 4703   2.772   1.066   3.098
 1566TIP3    H1 4704   2.805   1.155   3.099
 1566TIP3    H2 4705   2.760   1.043   3.191
 1567TIP3   OH2 4706   4.344   3.809   4.292
 1567TIP3    H1 4707   4.256   3.847   4.288
 1567TIP3    H2 4708   4.386   3.852   4.366
 1568TIP3   OH2 4709   2.240   3.691   2.820
 1568TIP3    H1 4710   2.189   3.623   2.777
 1568TIP3    H2 4711   2.320   3.698   2.767
 1569TIP3   OH2 4712   2.257   0.299   4.769
 1569TIP3    H1 4713   2.218   0.235   4.709
 1569TIP3    H2 4714   2.344   0.315   4.733
 1570TIP3   OH2 4715  -0.002   1.966   1.098
 1570TIP3    H1 4716   0.055   1.892   1.078
 1570TIP3    H2 4717  -0.020   1.958   1.192
 1571TIP3   OH2 4718   5.264   5.432   4.929
 1571TIP3    H1 4719   5.250   5.512   4.978
 1571TIP3    H2 4720   5.298   5.370   4.993
 1572TIP3   OH2 4721   4.041   4.852   2.152
 1572TIP3    H1 4722   4.029   4.770   2.104
 1572TIP3    H2 4723   3.955   4.893   2.153
 1573TIP3   OH2 4724   4.340   5.827   2.440
 1573TIP3    H1 4725   4.401   5.759   2.413
 1573TIP3    H2 4726   4.262   5.812   2.387
 1574TIP3   OH2 4727   0.757   2.738   0.503
 1574TIP3    H1 4728   0.684   2.784   0.463
 1574TIP3    H2 4729   0.835   2.786   0.475
 1575TIP3   OH2 4730   5.950   2.474   2.023
 1575TIP3    H1 4731   5.951   2.560   1.981
 1575TIP3    H2 4732   6.036   2.436   2.001
 1576TIP3   OH2 4733   4.590   5.943   0.102
 1576TIP3    H1 4734   4.609   5.990   0.183
 1576TIP3    H2 4735   4.597   5.850   0.126
 1577TIP3   OH2 4736   1.291   3.745   2.028
 1577TIP3    H1 4737   1.249   3.826   2.055
 1577TIP3    H2 4738   1.361   3.772   1.969
 1578TIP3   OH2 4739   5.693   4.591   4.261
 1578TIP3    H1 4740   5.605   4.626   4.270
 1578TIP3    H2 4741   5.680   4.501   4.232
 1579TIP3   OH2 4742   3.728   3.823   1.825
 1579TIP3    H1 4743   3.738   3.762   1.899
 1579TIP3    H2 4744   3.647   3.870   1.844
 1580TIP3   OH2 4745   3.345  -0.011   3.825
 1580TIP3    H1 4746   3.368   0.065   3.772
 1580TIP3    H2 4747   3.270   0.018   3.877
 1581TIP3   OH2 4748   6.277   0.786   3.014
 1581TIP3    H1 4749   6.243   0.863   2.969
 1581TIP3    H2 4750   6.364   0.772   2.977
 1582TIP3   OH2 4751   1.665   1.409   2.157
 1582TIP3    H1 4752   1.701   1.343   2.217
 1582TIP3    H2 4753   1.741   1.460   2.129
 1583TIP3   OH2 4754   3.932   2.266   0.251
 1583TIP3    H1 4755   3.862   2.330   0.237
 1583TIP3    H2 4756   4.010   2.318   0.270
 1584TIP3   OH2 4757   3.037   4.710   3.834
 1584TIP3    H1 4758   3.043   4.801   3.806
 1584TIP3    H2 4759   2.964   4.708   3.896
 1585TIP3   OH2 4760   6.191   2.486   3.415
 1585TIP3    H1 4761   6.164   2.556   3.356
 1585TIP3    H2 4762   6.109   2.443   3.440
 1586TIP3   OH2 4763   3.024   2.348   0.002
 1586TIP3    H1 4764   2.967   2.272  -0.011
 1586TIP3    H2 4765   2.974   2.422  -0.032
 1587TIP3   OH2 4766   0.565   3.859   4.187
 1587TIP3    H1 4767   0.470   3.847   4.174
 1587TIP3    H2 4768   0.578   3.840   4.280
 1588TIP3   OH2 4769   5.544   5.478   2.584
 1588TIP3    H1 4770   5.565   5.499   2.675
 1588TIP3    H2 4771   5.627   5.446   2.548
 1589TIP3   OH2 4772   1.155   2.854   4.469
 1589TIP3    H1 4773   1.079   2.886   4.518
 1589TIP3    H2 4774   1.217   2.827   4.537
 1590TIP3   OH2 4775   6.298   3.154   4.229
 1590TIP3    H1 4776   6.230   3.133   4.164
 1590TIP3    H2 4777   6.376   3.110   4.196
 1591TIP3   OH2 4778   1.025   1.210   1.595
 1591TIP3    H1 4779   1.011   1.145   1.526
 1591TIP3    H2 4780   1.106   1.182   1.638
 1592TIP3   OH2 4781   3.246   2.122   2.434
 1592TIP3    H1 4782   3.186   2.195   2.423
 1592TIP3    H2 4783   3.318   2.158   2.486
 1593TIP3   OH2 4784   0.283   2.666   3.381
 1593TIP3    H1 4785   0.260   2.759   3.394
 1593TIP3    H2 4786   0.203   2.627   3.345
 1594TIP3   OH2 4787   3.948   2.207   2.249
 1594TIP3    H1 4788   3.931   2.241   2.337
 1594TIP3    H2 4789   3.861   2.193   2.212
 1595TIP3   OH2 4790   4.145   0.423   4.431
 1595TIP3    H1 4791   4.062   0.377   4.447
 1595TIP3    H2 4792   4.182   0.379   4.355
 1596TIP3   OH2 4793   1.584   0.500   2.658
 1596TIP3    H1 4794   1.522   0.486   2.586
 1596TIP3    H2 4795   1.545   0.454   2.732
 1597TIP3   OH2 4796   2.393   2.619   0.129
 1597TIP3    H1 4797   2.457   2.553   0.101
 1597TIP3    H2 4798   2.446   2.695   0.152
 1598TIP3   OH2 4799   2.421   3.232   0.867
 1598TIP3    H1 4800   2.346   3.182   0.835
 1598TIP3    H2 4801   2.393   3.265   0.953
 1599TIP3   OH2 4802   4.043   2.955   4.876
 1599TIP3    H1 4803   4.024   2.866   4.904
 1599TIP3    H2 4804   4.034   3.008   4.956
 1600TIP3   OH2 4805   1.330   3.944   3.613
 1600TIP3    H1 4806   1.306   3.989   3.694
 1600TIP3    H2 4807   1.424   3.956   3.605
 1601TIP3   OH2 4808   5.758   4.307   2.939
 1601TIP3    H1 4809   5.777   4.266   3.024
 1601TIP3    H2 4810   5.750   4.234   2.879
 1602TIP3   OH2 4811   1.672   5.823   0.356
 1602TIP3    H1 4812   1.742   5.822   0.422
 1602TIP3    H2 4813   1.609   5.887   0.388
 1603TIP3   OH2 4814   2.399   2.931   4.715
 1603TIP3    H1 4815   2.488   2.947   4.683
 1603TIP3    H2 4816   2.353   2.894   4.640
 1604TIP3   OH2 4817   4.734   0.505   3.337
 1604TIP3    H1 4818   4.783   0.572   3.289
 1604TIP3    H2 4819   4.656   0.550   3.368
 1605TIP3   OH2 4820   1.634   5.706   2.752
 1605TIP3    H1 4821   1.728   5.687   2.751
 1605TIP3    H2 4822   1.627   5.786   2.804
 1606TIP3   OH2 4823   4.356   1.024   5.039
 1606TIP3    H1 4824   4.284   1.087   5.029
 1606TIP3    H2 4825   4.411   1.037   4.962
 1607TIP3   OH2 4826   3.868   3.819   5.164
 1607TIP3    H1 4827   3.874   3.864   5.080
 1607TIP3    H2 4828   3.889   3.728   5.145
 1608TIP3   OH2 4829   3.939   3.510   3.301
 1608TIP3    H1 4830   3.866   3.506   3.363
 1608TIP3    H2 4831   3.914   3.579   3.239
 1609TIP3   OH2 4832   2.061   1.630   0.164
 1609TIP3    H1 4833   2.136   1.660   0.216
 1609TIP3    H2 4834   1.998   1.701   0.170
 1610TIP3   OH2 4835   6.289   3.016   2.001
 1610TIP3    H1 4836   6.270   2.965   2.080
 1610TIP3    H2 4837   6.346   3.087   2.031
 1611TIP3   OH2 4838   0.425   1.748   0.049
 1611TIP3    H1 4839   0.427   1.771  -0.044
 1611TIP3    H2 4840   0.499   1.687   0.060
 1612TIP3   OH2 4841   5.661   1.633   2.224
 1612TIP3    H1 4842   5.739   1.676   2.188
 1612TIP3    H2 4843   5.592   1.651   2.160
 1613TIP3   OH2 4844   5.250   0.588   1.420
 1613TIP3    H1 4845   5.343   0.571   1.404
 1613TIP3    H2 4846   5.219   0.508   1.463
 1614TIP3   OH2 4847   2.358   1.646   1.416
 1614TIP3    H1 4848   2.264   1.660   1.404
 1614TIP3    H2 4849   2.373   1.558   1.381
 1615TIP3   OH2 4850   6.134   0.794   0.353
 1615TIP3    H1 4851   6.201   0.857   0.328
 1615TIP3    H2 4852   6.155   0.716   0.303
 1616TIP3   OH2 4853   2.021   2.789   3.239
 1616TIP3    H1 4854   1.932   2.792   3.273
 1616TIP3    H2 4855   2.014   2.741   3.157
 1617TIP3   OH2 4856   0.222   2.358   2.379
 1617TIP3    H1 4857   0.164   2.283   2.393
 1617TIP3    H2 4858   0.202   2.417   2.451
 1618TIP3   OH2 4859   3.290   2.222   3.492
 1618TIP3    H1 4860   3.382   2.210   3.468
 1618TIP3    H2 4861   3.292   2.254   3.582
 1619TIP3   OH2 4862   5.001   5.183   2.473
 1619TIP3    H1 4863   4.942   5.221   2.408
 1619TIP3    H2 4864   5.009   5.250   2.541
 1620TIP3   OH2 4865   4.475   4.611   0.250
 1620TIP3    H1 4866   4.537   4.652   0.310
 1620TIP3    H2 4867   4.523   4.602   0.167
 1621TIP3   OH2 4868   4.063   3.039   5.145
 1621TIP3    H1 4869   4.129   2.998   5.201
 1621TIP3    H2 4870   3.982   2.994   5.168
 1622TIP3   OH2 4871   5.429   0.674   3.151
 1622TIP3    H1 4872   5.396   0.656   3.239
 1622TIP3    H2 4873   5.412   0.593   3.102
 1623TIP3   OH2 4874   6.054   4.662   1.178
 1623TIP3    H1 4875   6.020   4.736   1.228
 1623TIP3    H2 4876   6.050   4.588   1.238
 1624TIP3   OH2 4877   3.089   0.400   3.861
 1624TIP3    H1 4878   3.141   0.480   3.853
 1624TIP3    H2 4879   3.013   0.415   3.804
 1625TIP3   OH2 4880   0.950   2.389   4.445
 1625TIP3    H1 4881   0.890   2.388   4.371
 1625TIP3    H2 4882   0.929   2.310   4.494
 1626TIP3   OH2 4883   2.758   0.002   0.047
 1626TIP3    H1 4884   2.824  -0.066   0.054
 1626TIP3    H2 4885   2.792   0.062  -0.020
 1627TIP3   OH2 4886   0.253   4.498   4.146
 1627TIP3    H1 4887   0.270   4.437   4.218
 1627TIP3    H2 4888   0.235   4.582   4.189
 1628TIP3   OH2 4889   5.489   0.375   3.539
 1628TIP3    H1 4890   5.506   0.322   3.617
 1628TIP3    H2 4891   5.510   0.317   3.465
 1629TIP3   OH2 4892   5.292   4.858   3.476
 1629TIP3    H1 4893   5.268   4.797   3.546
 1629TIP3    H2 4894   5.244   4.827   3.400
 1630TIP3   OH2 4895   0.720   3.458   2.738
 1630TIP3    H1 4896   0.779   3.383   2.745
 1630TIP3    H2 4897   0.773   3.533   2.765
 1631TIP3   OH2 4898   5.341   2.646   4.467
 1631TIP3    H1 4899   5.335   2.638   4.372
 1631TIP3    H2 4900   5.286   2.722   4.488
 1632TIP3   OH2 4901   6.167   5.970   3.454
 1632TIP3    H1 4902   6.081   5.930   3.469
 1632TIP3    H2 4903   6.185   6.020   3.533
 1633TIP3   OH2 4904   4.542   1.216   0.393
 1633TIP3    H1 4905   4.604   1.250   0.328
 1633TIP3    H2 4906   4.489   1.292   0.417
 1634TIP3   OH2 4907   5.896   2.188   1.923
 1634TIP3    H1 4908   5.830   2.218   1.985
 1634TIP3    H2 4909   5.911   2.264   1.865
 1635TIP3   OH2 4910   1.443   3.499   3.500
 1635TIP3    H1 4911   1.411   3.409   3.499
 1635TIP3    H2 4912   1.464   3.518   3.408
 1636TIP3   OH2 4913   1.521   1.302   1.770
 1636TIP3    H1 4914   1.567   1.219   1.755
 1636TIP3    H2 4915   1.591   1.364   1.792
 1637TIP3   OH2 4916   3.750   2.287   2.785
 1637TIP3    H1 4917   3.717   2.316   2.700
 1637TIP3    H2 4918   3.842   2.312   2.785
 1638TIP3   OH2 4919   0.258   2.028   2.936
 1638TIP3    H1 4920   0.177   1.997   2.976
 1638TIP3    H2 4921   0.306   2.069   3.008
 1639TIP3   OH2 4922   1.819   0.641   3.980
 1639TIP3    H1 4923   1.755   0.671   3.915
 1639TIP3    H2 4924   1.766   0.611   4.054
 1640TIP3   OH2 4925   3.576   0.061   4.979
 1640TIP3    H1 4926   3.569   0.134   5.040
 1640TIP3    H2 4927   3.564   0.100   4.892
 1641TIP3   OH2 4928   4.639   4.600   3.205
 1641TIP3    H1 4929   4.722   4.623   3.247
 1641TIP3    H2 4930   4.612   4.518   3.247
 1642TIP3   OH2 4931   2.552   1.565   3.989
 1642TIP3    H1 4932   2.586   1.611   4.066
 1642TIP3    H2 4933   2.529   1.478   4.021
 1643TIP3   OH2 4934   5.614   3.340   5.081
 1643TIP3    H1 4935   5.571   3.366   5.161
 1643TIP3    H2 4936   5.543   3.326   5.018
 1644TIP3   OH2 4937   5.442   1.288   3.543
 1644TIP3    H1 4938   5.513   1.320   3.598
 1644TIP3    H2 4939   5.467   1.314   3.454
 1645TIP3   OH2 4940   3.501   4.074   1.660
 1645TIP3    H1 4941   3.509   4.006   1.594
 1645TIP3    H2 4942   3.420   4.120   1.638
 1646TIP3   OH2 4943   6.043   1.727   0.085
 1646TIP3    H1 4944   6.115   1.695   0.031
 1646TIP3    H2 4945   6.023   1.813   0.050
 1647TIP3   OH2 4946   1.792   4.160   1.556
 1647TIP3    H1 4947   1.874   4.132   1.516
 1647TIP3    H2 4948   1.762   4.084   1.605
 1648TIP3   OH2 4949   4.168   5.933   1.238
 1648TIP3    H1 4950   4.218   5.917   1.318
 1648TIP3    H2 4951   4.208   6.012   1.200
 1649TIP3   OH2 4952   3.313   1.748   5.023
 1649TIP3    H1 4953   3.371   1.755   5.099
 1649TIP3    H2 4954   3.372   1.759   4.948
 1650TIP3   OH2 4955   0.191   2.722   4.367
 1650TIP3    H1 4956   0.255   2.727   4.296
 1650TIP3    H2 4957   0.123   2.784   4.341
 1651TIP3   OH2 4958   2.392   4.114   3.328
 1651TIP3    H1 4959   2.310   4.095   3.373
 1651TIP3    H2 4960   2.388   4.061   3.248
 1652TIP3   OH2 4961   5.119   5.762   4.999
 1652TIP3    H1 4962   5.140   5.825   5.068
 1652TIP3    H2 4963   5.122   5.814   4.919
 1653TIP3   OH2 4964   2.273   2.182   0.538
 1653TIP3    H1 4965   2.236   2.270   0.546
 1653TIP3    H2 4966   2.213   2.127   0.588
 1654TIP3   OH2 4967   1.220   5.387   3.813
 1654TIP3    H1 4968   1.260   5.469   3.784
 1654TIP3    H2 4969   1.266   5.320   3.762
 1655TIP3   OH2 4970   3.615   1.562   4.640
 1655TIP3    H1 4971   3.710   1.550   4.634
 1655TIP3    H2 4972   3.578   1.477   4.614
 1656TIP3   OH2 4973   2.939   3.922   2.012
 1656TIP3    H1 4974   2.953   3.969   2.094
 1656TIP3    H2 4975   2.912   3.989   1.950
 1657TIP3   OH2 4976   2.052   4.985   4.599
 1657TIP3    H1 4977   1.962   5.001   4.627
 1657TIP3    H2 4978   2.047   4.909   4.541
 1658TIP3   OH2 4979   2.999   5.243   3.599
 1658TIP3    H1 4980   3.019   5.336   3.609
 1658TIP3    H2 4981   2.908   5.235   3.626
 1659TIP3   OH2 4982   2.977   0.374   0.188
 1659TIP3    H1 4983   3.031   0.399   0.113
 1659TIP3    H2 4984   2.888   0.401   0.164
 1660TIP3   OH2 4985   3.777   0.337   0.841
 1660TIP3    H1 4986   3.721   0.323   0.765
 1660TIP3    H2 4987   3.850   0.389   0.809
 1661TIP3   OH2 4988   3.804   0.618   0.528
 1661TIP3    H1 4989   3.756   0.561   0.468
 1661TIP3    H2 4990   3.798   0.705   0.487
 1662TIP3   OH2 4991   1.062   2.393   4.041
 1662TIP3    H1 4992   1.080   2.484   4.064
 1662TIP3    H2 4993   0.987   2.397   3.982
 1663TIP3   OH2 4994   2.358   5.311   1.079
 1663TIP3    H1 4995   2.348   5.326   0.985
 1663TIP3    H2 4996   2.276   5.267   1.105
 1664TIP3   OH2 4997   1.971   1.439   1.400
 1664TIP3    H1 4998   1.922   1.380   1.458
 1664TIP3    H2 4999   1.911   1.455   1.327
 1665TIP3   OH2 5000   2.230   4.513   4.512
 1665TIP3    H1 5001   2.204   4.467   4.432
 1665TIP3    H2 5002   2.213   4.450   4.582
 1666TIP3   OH2 5003   4.683   3.904   4.535
 1666TIP3    H1 5004   4.747   3.911   4.464
 1666TIP3    H2 5005   4.657   3.812   4.535
 1667TIP3   OH2 5006   2.644   4.872   3.137
 1667TIP3    H1 5007   2.653   4.788   3.092
 1667TIP3    H2 5008   2.618   4.849   3.226
 1668TIP3   OH2 5009   1.062   0.593   3.537
 1668TIP3    H1 5010   0.993   0.631   3.483
 1668TIP3    H2 5011   1.075   0.655   3.608
 1669TIP3   OH2 5012   2.429   1.764   2.193
 1669TIP3    H1 5013   2.504   1.739   2.246
 1669TIP3    H2 5014   2.464   1.780   2.106
 1670TIP3   OH2 5015   2.085   1.697   0.540
 1670TIP3    H1 5016   2.036   1.767   0.495
 1670TIP3    H2 5017   2.023   1.625   0.547
 1671TIP3   OH2 5018   1.139   5.899   1.462
 1671TIP3    H1 5019   1.067   5.910   1.399
 1671TIP3    H2 5020   1.184   5.983   1.462
 1672TIP3   OH2 5021   1.760   3.515   1.476
 1672TIP3    H1 5022   1.755   3.548   1.565
 1672TIP3    H2 5023   1.721   3.584   1.422
 1673TIP3   OH2 5024   0.098   4.489   1.738
 1673TIP3    H1 5025   0.107   4.421   1.805
 1673TIP3    H2 5026   0.106   4.442   1.655
 1674TIP3   OH2 5027   2.356   5.914   4.444
 1674TIP3    H1 5028   2.405   5.993   4.420
 1674TIP3    H2 5029   2.268   5.946   4.464
 1675TIP3   OH2 5030   5.430   1.981   0.649
 1675TIP3    H1 5031   5.450   1.891   0.622
 1675TIP3    H2 5032   5.498   2.034   0.607
 1676TIP3   OH2 5033   4.915   4.874   0.468
 1676TIP3    H1 5034   5.003   4.855   0.435
 1676TIP3    H2 5035   4.929   4.926   0.547
 1677TIP3   OH2 5036   0.599   2.255   0.665
 1677TIP3    H1 5037   0.651   2.200   0.606
 1677TIP3    H2 5038   0.510   2.221   0.658
 1678TIP3   OH2 5039   2.140   1.836   2.365
 1678TIP3    H1 5040   2.119   1.790   2.446
 1678TIP3    H2 5041   2.193   1.911   2.394
 1679TIP3   OH2 5042   0.255   0.236   0.013
 1679TIP3    H1 5043   0.267   0.158   0.067
 1679TIP3    H2 5044   0.230   0.202  -0.073
 1680TIP3   OH2 5045   5.928   3.334   1.395
 1680TIP3    H1 5046   6.015   3.360   1.364
 1680TIP3    H2 5047   5.903   3.404   1.455
 1681TIP3   OH2 5048   0.399   4.886   1.267
 1681TIP3    H1 5049   0.429   4.871   1.356
 1681TIP3    H2 5050   0.339   4.960   1.274
 1682TIP3   OH2 5051   1.456   1.081   3.897
 1682TIP3    H1 5052   1.550   1.074   3.911
 1682TIP3    H2 5053   1.442   1.042   3.810
 1683TIP3   OH2 5054   4.867   2.549   4.575
 1683TIP3    H1 5055   4.952   2.505   4.584
 1683TIP3    H2 5056   4.881   2.617   4.509
 1684TIP3   OH2 5057   2.247   1.103   2.406
 1684TIP3    H1 5058   2.157   1.073   2.419
 1684TIP3    H2 5059   2.254   1.117   2.311
 1685TIP3   OH2 5060   2.626   3.571   4.999
 1685TIP3    H1 5061   2.635   3.547   5.091
 1685TIP3    H2 5062   2.692   3.640   4.986
 1686TIP3   OH2 5063   2.047   4.728   1.673
 1686TIP3    H1 5064   2.131   4.683   1.669
 1686TIP3    H2 5065   1.985   4.661   1.702
 1687TIP3   OH2 5066   4.101   4.559   4.095
 1687TIP3    H1 5067   4.052   4.599   4.022
 1687TIP3    H2 5068   4.064   4.471   4.103
 1688TIP3   OH2 5069   2.328   3.074   1.627
 1688TIP3    H1 5070   2.378   3.026   1.561
 1688TIP3    H2 5071   2.272   3.007   1.667
 1689TIP3   OH2 5072   0.256   5.218   0.215
 1689TIP3    H1 5073   0.262   5.309   0.186
 1689TIP3    H2 5074   0.305   5.216   0.298
 1690TIP3   OH2 5075   1.545   0.584   0.598
 1690TIP3    H1 5076   1.610   0.576   0.668
 1690TIP3    H2 5077   1.532   0.678   0.588
 1691TIP3   OH2 5078   1.318   5.847   3.090
 1691TIP3    H1 5079   1.405   5.811   3.108
 1691TIP3    H2 5080   1.274   5.846   3.175
 1692TIP3   OH2 5081   1.695   1.626   0.937
 1692TIP3    H1 5082   1.735   1.621   0.850
 1692TIP3    H2 5083   1.724   1.711   0.971
 1693TIP3   OH2 5084   0.471   0.950   4.995
 1693TIP3    H1 5085   0.522   0.972   5.072
 1693TIP3    H2 5086   0.528   0.893   4.944
 1694TIP3   OH2 5087   6.244   3.987   2.802
 1694TIP3    H1 5088   6.189   3.915   2.770
 1694TIP3    H2 5089   6.186   4.041   2.855
 1695TIP3   OH2 5090   3.438   4.733   0.939
 1695TIP3    H1 5091   3.464   4.773   1.022
 1695TIP3    H2 5092   3.434   4.639   0.958
 1696TIP3   OH2 5093   5.970   5.359   2.690
 1696TIP3    H1 5094   5.907   5.411   2.640
 1696TIP3    H2 5095   6.002   5.293   2.629
 1697TIP3   OH2 5096   6.185   1.162   0.473
 1697TIP3    H1 5097   6.201   1.256   0.465
 1697TIP3    H2 5098   6.108   1.146   0.417
 1698TIP3   OH2 5099   3.056   0.344   0.732
 1698TIP3    H1 5100   2.966   0.362   0.760
 1698TIP3    H2 5101   3.110   0.401   0.786
 1699TIP3   OH2 5102   5.466   5.307   5.078
 1699TIP3    H1 5103   5.515   5.245   5.024
 1699TIP3    H2 5104   5.484   5.280   5.168
 1700TIP3   OH2 5105   5.826   3.365   0.449
 1700TIP3    H1 5106   5.898   3.307   0.426
 1700TIP3    H2 5107   5.837   3.442   0.393
 1701TIP3   OH2 5108   1.632   1.156   3.171
 1701TIP3    H1 5109   1.574   1.080   3.181
 1701TIP3    H2 5110   1.673   1.144   3.086
 1702TIP3   OH2 5111   3.497   5.072   0.542
 1702TIP3    H1 5112   3.553   5.130   0.595
 1702TIP3    H2 5113   3.472   5.002   0.601
 1703TIP3   OH2 5114   3.870   2.826   5.118
 1703TIP3    H1 5115   3.872   2.742   5.164
 1703TIP3    H2 5116   3.796   2.820   5.058
 1704TIP3   OH2 5117   1.658   4.145   1.887
 1704TIP3    H1 5118   1.674   4.098   1.805
 1704TIP3    H2 5119   1.745   4.156   1.925
 1705TIP3   OH2 5120   3.432   1.415   4.330
 1705TIP3    H1 5121   3.375   1.395   4.404
 1705TIP3    H2 5122   3.456   1.507   4.342
 1706TIP3   OH2 5123   0.258   1.671   4.991
 1706TIP3    H1 5124   0.337   1.723   4.975
 1706TIP3    H2 5125   0.186   1.728   4.967
 1707TIP3   OH2 5126   1.505   4.867   0.484
 1707TIP3    H1 5127   1.563   4.847   0.411
 1707TIP3    H2 5128   1.431   4.807   0.473
 1708TIP3   OH2 5129   0.422   0.580   3.264
 1708TIP3    H1 5130   0.487   0.594   3.333
 1708TIP3    H2 5131   0.357   0.649   3.280
 1709TIP3   OH2 5132   4.141   2.319   2.090
 1709TIP3    H1 5133   4.150   2.411   2.117
 1709TIP3    H2 5134   4.077   2.282   2.151
 1710TIP3   OH2 5135   1.787   2.279   1.628
 1710TIP3    H1 5136   1.823   2.295   1.715
 1710TIP3    H2 5137   1.844   2.328   1.569
 1711TIP3   OH2 5138   0.720   4.998   0.550
 1711TIP3    H1 5139   0.717   5.046   0.468
 1711TIP3    H2 5140   0.677   5.056   0.613
 1712TIP3   OH2 5141   2.507   3.199   1.832
 1712TIP3    H1 5142   2.440   3.160   1.776
 1712TIP3    H2 5143   2.579   3.137   1.829
 1713TIP3   OH2 5144   1.400   5.341   4.082
 1713TIP3    H1 5145   1.368   5.259   4.043
 1713TIP3    H2 5146   1.462   5.375   4.018
 1714TIP3   OH2 5147   3.560   0.536   4.200
 1714TIP3    H1 5148   3.482   0.537   4.145
 1714TIP3    H2 5149   3.606   0.617   4.178
 1715TIP3   OH2 5150   0.680   4.065   1.917
 1715TIP3    H1 5151   0.647   4.055   1.828
 1715TIP3    H2 5152   0.755   4.125   1.908
 1716TIP3   OH2 5153   0.637   5.622   3.174
 1716TIP3    H1 5154   0.581   5.697   3.156
 1716TIP3    H2 5155   0.712   5.633   3.116
 1717TIP3   OH2 5156   4.349   3.429   3.897
 1717TIP3    H1 5157   4.320   3.499   3.955
 1717TIP3    H2 5158   4.410   3.472   3.836
 1718TIP3   OH2 5159   3.663   0.308   1.328
 1718TIP3    H1 5160   3.619   0.312   1.243
 1718TIP3    H2 5161   3.713   0.389   1.334
 1719TIP3   OH2 5162   2.608   3.998   4.307
 1719TIP3    H1 5163   2.662   3.960   4.238
 1719TIP3    H2 5164   2.558   4.067   4.262
 1720TIP3   OH2 5165   4.527   5.353   2.018
 1720TIP3    H1 5166   4.554   5.264   1.995
 1720TIP3    H2 5167   4.483   5.343   2.103
 1721TIP3   OH2 5168   4.350   4.234   3.366
 1721TIP3    H1 5169   4.373   4.153   3.321
 1721TIP3    H2 5170   4.435   4.274   3.387
 1722TIP3   OH2 5171   5.268   2.708   4.914
 1722TIP3    H1 5172   5.197   2.747   4.964
 1722TIP3    H2 5173   5.347   2.731   4.963
 1723TIP3   OH2 5174   5.635   2.407   1.641
 1723TIP3    H1 5175   5.623   2.409   1.736
 1723TIP3    H2 5176   5.703   2.472   1.625
 1724TIP3   OH2 5177   1.790   3.273   3.556
 1724TIP3    H1 5178   1.731   3.218   3.504
 1724TIP3    H2 5179   1.872   3.273   3.507
 1725TIP3   OH2 5180   5.518   1.391   3.906
 1725TIP3    H1 5181   5.436   1.363   3.864
 1725TIP3    H2 5182   5.586   1.369   3.843
 1726TIP3   OH2 5183   5.540   2.928   1.220
 1726TIP3    H1 5184   5.465   2.898   1.270
 1726TIP3    H2 5185   5.595   2.973   1.284
 1727TIP3   OH2 5186   0.861   0.464   2.561
 1727TIP3    H1 5187   0.946   0.423   2.547
 1727TIP3    H2 5188   0.873   0.519   2.639
 1728TIP3   OH2 5189   3.504   3.095   3.041
 1728TIP3    H1 5190   3.444   3.109   3.114
 1728TIP3    H2 5191   3.515   3.181   3.001
 1729TIP3   OH2 5192   4.278   2.278   3.006
 1729TIP3    H1 5193   4.308   2.188   3.012
 1729TIP3    H2 5194   4.357   2.331   3.018
 1730TIP3   OH2 5195   1.688   5.487   0.797
 1730TIP3    H1 5196   1.602   5.492   0.837
 1730TIP3    H2 5197   1.687   5.554   0.728
 1731TIP3   OH2 5198   0.778   5.075   0.252
 1731TIP3    H1 5199   0.788   5.002   0.192
 1731TIP3    H2 5200   0.854   5.130   0.237
 1732TIP3   OH2 5201   0.116   5.008   0.133
 1732TIP3    H1 5202   0.026   5.030   0.155
 1732TIP3    H2 5203   0.166   5.088   0.150
 1733TIP3   OH2 5204   6.026   5.844   3.901
 1733TIP3    H1 5205   6.065   5.765   3.864
 1733TIP3    H2 5206   6.099   5.905   3.910
 1734TIP3   OH2 5207   2.023   3.481   4.541
 1734TIP3    H1 5208   1.957   3.528   4.489
 1734TIP3    H2 5209   2.107   3.517   4.511
 1735TIP3   OH2 5210   6.278   1.242   3.231
 1735TIP3    H1 5211   6.332   1.198   3.166
 1735TIP3    H2 5212   6.188   1.222   3.205
 1736TIP3   OH2 5213   1.983   2.877   0.721
 1736TIP3    H1 5214   1.930   2.811   0.678
 1736TIP3    H2 5215   1.949   2.881   0.811
 1737TIP3   OH2 5216   2.359   3.541   0.031
 1737TIP3    H1 5217   2.273   3.582   0.044
 1737TIP3    H2 5218   2.409   3.605  -0.018
 1738TIP3   OH2 5219   6.147   5.578   4.792
 1738TIP3    H1 5220   6.202   5.559   4.717
 1738TIP3    H2 5221   6.207   5.610   4.859
 1739TIP3   OH2 5222   4.495   0.271   2.977
 1739TIP3    H1 5223   4.471   0.330   3.049
 1739TIP3    H2 5224   4.590   0.269   2.979
 1740TIP3   OH2 5225   1.822   0.056   4.269
 1740TIP3    H1 5226   1.877  -0.016   4.300
 1740TIP3    H2 5227   1.759   0.070   4.340
 1741TIP3   OH2 5228   1.237   3.122   3.695
 1741TIP3    H1 5229   1.212   3.032   3.719
 1741TIP3    H2 5230   1.154   3.168   3.687
 1742TIP3   OH2 5231   4.975   5.543   5.050
 1742TIP3    H1 5232   4.884   5.551   5.023
 1742TIP3    H2 5233   5.015   5.626   5.024
 1743TIP3   OH2 5234   3.180   2.750   2.895
 1743TIP3    H1 5235   3.211   2.661   2.910
 1743TIP3    H2 5236   3.241   2.785   2.829
 1744TIP3   OH2 5237   0.158   2.177   2.650
 1744TIP3    H1 5238   0.196   2.107   2.598
 1744TIP3    H2 5239   0.063   2.163   2.642
 1745TIP3   OH2 5240   1.382   0.100   3.897
 1745TIP3    H1 5241   1.466   0.092   3.941
 1745TIP3    H2 5242   1.399   0.155   3.821
 1746TIP3   OH2 5243   2.417   5.690   3.050
 1746TIP3    H1 5244   2.446   5.663   3.137
 1746TIP3    H2 5245   2.493   5.734   3.012
 1747TIP3   OH2 5246   2.202   1.196   1.628
 1747TIP3    H1 5247   2.181   1.204   1.535
 1747TIP3    H2 5248   2.260   1.270   1.646
 1748TIP3   OH2 5249   3.379   3.525   3.983
 1748TIP3    H1 5250   3.431   3.560   4.056
 1748TIP3    H2 5251   3.408   3.435   3.974
 1749TIP3   OH2 5252   3.891   2.802   3.282
 1749TIP3    H1 5253   3.909   2.796   3.188
 1749TIP3    H2 5254   3.951   2.739   3.322
 1750TIP3   OH2 5255   2.141   2.660   4.913
 1750TIP3    H1 5256   2.192   2.637   4.836
 1750TIP3    H2 5257   2.187   2.735   4.951
 1751TIP3   OH2 5258   5.875   2.057   0.148
 1751TIP3    H1 5259   5.876   1.990   0.079
 1751TIP3    H2 5260   5.924   2.130   0.111
 1752TIP3   OH2 5261   0.432   4.206   2.688
 1752TIP3    H1 5262   0.371   4.202   2.761
 1752TIP3    H2 5263   0.381   4.176   2.612
 1753TIP3   OH2 5264   1.508   2.024   0.083
 1753TIP3    H1 5265   1.567   1.980   0.021
 1753TIP3    H2 5266   1.439   1.960   0.100
 1754TIP3   OH2 5267   4.193   4.120   1.528
 1754TIP3    H1 5268   4.122   4.130   1.465
 1754TIP3    H2 5269   4.157   4.063   1.597
 1755TIP3   OH2 5270   2.409   1.073   4.761
 1755TIP3    H1 5271   2.390   0.992   4.713
 1755TIP3    H2 5272   2.503   1.069   4.780
 1756TIP3   OH2 5273   4.226   3.679   1.429
 1756TIP3    H1 5274   4.185   3.709   1.348
 1756TIP3    H2 5275   4.304   3.735   1.437
 1757TIP3   OH2 5276   4.773   0.085   4.125
 1757TIP3    H1 5277   4.718   0.081   4.046
 1757TIP3    H2 5278   4.826   0.164   4.114
 1758TIP3   OH2 5279   4.905   3.421   1.772
 1758TIP3    H1 5280   4.914   3.439   1.679
 1758TIP3    H2 5281   4.828   3.364   1.779
 1759TIP3   OH2 5282   6.016   4.201   2.477
 1759TIP3    H1 5283   5.939   4.217   2.421
 1759TIP3    H2 5284   6.017   4.106   2.490
 1760TIP3   OH2 5285   2.415   4.094   2.781
 1760TIP3    H1 5286   2.354   4.161   2.750
 1760TIP3    H2 5287   2.375   4.011   2.754
 1761TIP3   OH2 5288   4.965   0.515   3.128
 1761TIP3    H1 5289   4.913   0.564   3.065
 1761TIP3    H2 5290   5.020   0.458   3.075
 1762TIP3   OH2 5291   3.463   3.672   5.069
 1762TIP3    H1 5292   3.508   3.754   5.091
 1762TIP3    H2 5293   3.370   3.693   5.081
 1763TIP3   OH2 5294   0.507   1.931   0.872
 1763TIP3    H1 5295   0.519   1.934   0.777
 1763TIP3    H2 5296   0.473   1.843   0.889
 1764TIP3   OH2 5297   0.601   2.568   0.934
 1764TIP3    H1 5298   0.628   2.549   0.844
 1764TIP3    H2 5299   0.588   2.663   0.936
 1765TIP3   OH2 5300   3.104   4.480   0.406
 1765TIP3    H1 5301   3.117   4.533   0.485
 1765TIP3    H2 5302   3.177   4.505   0.349
 1766TIP3   OH2 5303   4.296   2.410   5.129
 1766TIP3    H1 5304   4.204   2.410   5.103
 1766TIP3    H2 5305   4.297   2.451   5.215
 1767TIP3   OH2 5306   4.832   4.772   2.533
 1767TIP3    H1 5307   4.824   4.750   2.626
 1767TIP3    H2 5308   4.764   4.721   2.490
 1768TIP3   OH2 5309   5.066   5.274   3.918
 1768TIP3    H1 5310   5.007   5.250   3.990
 1768TIP3    H2 5311   5.031   5.228   3.842
 1769TIP3   OH2 5312   4.560   4.232   0.639
 1769TIP3    H1 5313   4.593   4.190   0.560
 1769TIP3    H2 5314   4.554   4.325   0.616
 1770TIP3   OH2 5315   3.723   0.838   0.062
 1770TIP3    H1 5316   3.676   0.759   0.034
 1770TIP3    H2 5317   3.814   0.821   0.037
 1771TIP3   OH2 5318   3.072   2.568   2.244
 1771TIP3    H1 5319   3.077   2.533   2.333
 1771TIP3    H2 5320   3.010   2.512   2.198
 1772TIP3   OH2 5321   3.729   3.592   2.588
 1772TIP3    H1 5322   3.731   3.680   2.626
 1772TIP3    H2 5323   3.771   3.537   2.653
 1773TIP3   OH2 5324   1.221   5.754   4.593
 1773TIP3    H1 5325   1.294   5.747   4.655
 1773TIP3    H2 5326   1.190   5.844   4.603
 1774TIP3   OH2 5327   5.547   1.977   1.393
 1774TIP3    H1 5328   5.457   1.968   1.362
 1774TIP3    H2 5329   5.542   2.040   1.465
 1775TIP3   OH2 5330   0.193   0.713   3.372
 1775TIP3    H1 5331   0.185   0.808   3.381
 1775TIP3    H2 5332   0.108   0.685   3.339
 1776TIP3   OH2 5333   4.342   5.544   0.034
 1776TIP3    H1 5334   4.395   5.624   0.034
 1776TIP3    H2 5335   4.314   5.534   0.125
 1777TIP3   OH2 5336   5.131   2.282   4.347
 1777TIP3    H1 5337   5.122   2.332   4.429
 1777TIP3    H2 5338   5.077   2.204   4.361
 1778TIP3   OH2 5339   2.202   4.848   3.308
 1778TIP3    H1 5340   2.205   4.857   3.403
 1778TIP3    H2 5341   2.111   4.827   3.288
 1779TIP3   OH2 5342   3.449   5.736   3.693
 1779TIP3    H1 5343   3.441   5.771   3.781
 1779TIP3    H2 5344   3.365   5.695   3.675
 1780TIP3   OH2 5345   4.895   0.127   0.712
 1780TIP3    H1 5346   4.811   0.143   0.754
 1780TIP3    H2 5347   4.952   0.198   0.743
 1781TIP3   OH2 5348   0.888   2.834   4.232
 1781TIP3    H1 5349   0.860   2.772   4.299
 1781TIP3    H2 5350   0.810   2.887   4.215
 1782TIP3   OH2 5351   2.514   3.990   4.557
 1782TIP3    H1 5352   2.561   4.001   4.474
 1782TIP3    H2 5353   2.525   4.074   4.602
 1783TIP3   OH2 5354   4.383   5.581   2.039
 1783TIP3    H1 5355   4.434   5.652   2.076
 1783TIP3    H2 5356   4.446   5.510   2.024
 1784TIP3   OH2 5357   6.032   2.814   2.296
 1784TIP3    H1 5358   6.112   2.867   2.302
 1784TIP3    H2 5359   6.029   2.787   2.204
 1785TIP3   OH2 5360   4.575   4.389   3.380
 1785TIP3    H1 5361   4.539   4.446   3.447
 1785TIP3    H2 5362   4.656   4.354   3.418
 1786TIP3   OH2 5363   2.308   2.077   1.081
 1786TIP3    H1 5364   2.380   2.139   1.092
 1786TIP3    H2 5365   2.336   2.021   1.008
 1787TIP3   OH2 5366   3.702   5.834   1.987
 1787TIP3    H1 5367   3.753   5.754   2.002
 1787TIP3    H2 5368   3.677   5.829   1.895
 1788TIP3   OH2 5369   4.109   0.033   0.869
 1788TIP3    H1 5370   4.129   0.046   0.777
 1788TIP3    H2 5371   4.014   0.040   0.875
 1789TIP3   OH2 5372   4.610   2.654   1.379
 1789TIP3    H1 5373   4.700   2.678   1.402
 1789TIP3    H2 5374   4.581   2.598   1.451
 1790TIP3   OH2 5375   4.327   0.754   0.478
 1790TIP3    H1 5376   4.374   0.830   0.511
 1790TIP3    H2 5377   4.354   0.747   0.386
 1791TIP3   OH2 5378   3.056   5.032   2.129
 1791TIP3    H1 5379   3.011   5.076   2.201
 1791TIP3    H2 5380   3.003   5.052   2.052
 1792TIP3   OH2 5381   1.633   5.683   4.646
 1792TIP3    H1 5382   1.672   5.760   4.603
 1792TIP3    H2 5383   1.640   5.613   4.581
 1793TIP3   OH2 5384   5.659   1.667   3.077
 1793TIP3    H1 5385   5.661   1.699   3.167
 1793TIP3    H2 5386   5.606   1.731   3.030
 1794TIP3   OH2 5387   0.875   4.651   0.232
 1794TIP3    H1 5388   0.917   4.571   0.201
 1794TIP3    H2 5389   0.787   4.624   0.258
 1795TIP3   OH2 5390   5.603   3.005   1.514
 1795TIP3    H1 5391   5.588   3.069   1.583
 1795TIP3    H2 5392   5.516   2.979   1.485
 1796TIP3   OH2 5393   2.512   5.848   2.102
 1796TIP3    H1 5394   2.570   5.785   2.143
 1796TIP3    H2 5395   2.482   5.904   2.174
 1797TIP3   OH2 5396   1.496   1.408   0.915
 1797TIP3    H1 5397   1.564   1.474   0.910
 1797TIP3    H2 5398   1.543   1.325   0.926
 1798TIP3   OH2 5399   5.694   4.501   5.137
 1798TIP3    H1 5400   5.625   4.441   5.167
 1798TIP3    H2 5401   5.740   4.452   5.069
 1799TIP3   OH2 5402   0.096   4.825   3.098
 1799TIP3    H1 5403   0.009   4.849   3.131
 1799TIP3    H2 5404   0.147   4.807   3.176
 1800TIP3   OH2 5405   1.895   3.259   0.564
 1800TIP3    H1 5406   1.927   3.263   0.654
 1800TIP3    H2 5407   1.879   3.350   0.540
 1801TIP3   OH2 5408   1.580   5.896   5.176
 1801TIP3    H1 5409   1.535   5.966   5.128
 1801TIP3    H2 5410   1.590   5.931   5.265
 1802TIP3   OH2 5411   1.826   1.699   1.519
 1802TIP3    H1 5412   1.884   1.626   1.498
 1802TIP3    H2 5413   1.799   1.683   1.609
 1803TIP3   OH2 5414   2.006   2.026   0.862
 1803TIP3    H1 5415   2.004   2.112   0.904
 1803TIP3    H2 5416   2.053   1.970   0.925
 1804TIP3   OH2 5417   4.907   4.278   0.472
 1804TIP3    H1 5418   4.888   4.280   0.566
 1804TIP3    H2 5419   4.984   4.221   0.465
 1805TIP3   OH2 5420   5.027   0.819   0.127
 1805TIP3    H1 5421   5.030   0.896   0.071
 1805TIP3    H2 5422   5.108   0.824   0.179
 1806TIP3   OH2 5423   5.085   3.426   3.016
 1806TIP3    H1 5424   5.017   3.425   2.949
 1806TIP3    H2 5425   5.140   3.501   2.992
 1807TIP3   OH2 5426   1.575   4.848   3.290
 1807TIP3    H1 5427   1.534   4.790   3.226
 1807TIP3    H2 5428   1.613   4.918   3.237
 1808TIP3   OH2 5429   6.136   0.545   2.544
 1808TIP3    H1 5430   6.046   0.560   2.572
 1808TIP3    H2 5431   6.188   0.610   2.590
 1809TIP3   OH2 5432   3.858   2.324   2.486
 1809TIP3    H1 5433   3.819   2.381   2.420
 1809TIP3    H2 5434   3.898   2.384   2.549
 1810TIP3   OH2 5435   5.488   2.443   1.227
 1810TIP3    H1 5436   5.548   2.503   1.182
 1810TIP3    H2 5437   5.440   2.400   1.156
 1811TIP3   OH2 5438   0.915   5.677   0.323
 1811TIP3    H1 5439   0.953   5.732   0.391
 1811TIP3    H2 5440   0.843   5.729   0.288
 1812TIP3   OH2 5441   0.989   0.458   2.068
 1812TIP3    H1 5442   1.030   0.544   2.059
 1812TIP3    H2 5443   0.984   0.425   1.979
 1813TIP3   OH2 5444   4.744   0.955   1.458
 1813TIP3    H1 5445   4.781   1.043   1.470
 1813TIP3    H2 5446   4.650   0.968   1.456
 1814TIP3   OH2 5447   2.735   2.442   1.422
 1814TIP3    H1 5448   2.793   2.408   1.354
 1814TIP3    H2 5449   2.717   2.532   1.395
 1815TIP3   OH2 5450   5.296   3.518   3.976
 1815TIP3    H1 5451   5.288   3.612   3.959
 1815TIP3    H2 5452   5.299   3.479   3.888
 1816TIP3   OH2 5453   0.672   3.974   1.231
 1816TIP3    H1 5454   0.735   3.901   1.231
 1816TIP3    H2 5455   0.727   4.052   1.240
 1817TIP3   OH2 5456   4.325   1.946   1.902
 1817TIP3    H1 5457   4.379   1.984   1.833
 1817TIP3    H2 5458   4.338   2.004   1.977
 1818TIP3   OH2 5459   5.410   1.498   2.211
 1818TIP3    H1 5460   5.495   1.454   2.222
 1818TIP3    H2 5461   5.381   1.472   2.124
 1819TIP3   OH2 5462   1.033   5.790   1.764
 1819TIP3    H1 5463   0.990   5.876   1.770
 1819TIP3    H2 5464   1.087   5.796   1.685
 1820TIP3   OH2 5465   3.115   3.811   0.605
 1820TIP3    H1 5466   3.155   3.775   0.526
 1820TIP3    H2 5467   3.053   3.877   0.573
 1821TIP3   OH2 5468   3.898   1.309   4.865
 1821TIP3    H1 5469   3.826   1.254   4.895
 1821TIP3    H2 5470   3.879   1.396   4.901
 1822TIP3   OH2 5471   6.168   0.412   4.242
 1822TIP3    H1 5472   6.173   0.484   4.305
 1822TIP3    H2 5473   6.081   0.421   4.203
 1823TIP3   OH2 5474   1.260   0.668   0.987
 1823TIP3    H1 5475   1.206   0.626   1.054
 1823TIP3    H2 5476   1.340   0.615   0.985
 1824TIP3   OH2 5477   3.330   2.945   4.388
 1824TIP3    H1 5478   3.343   2.869   4.445
 1824TIP3    H2 5479   3.253   2.923   4.336
 1825TIP3   OH2 5480   1.801   5.986   2.233
 1825TIP3    H1 5481   1.785   6.023   2.320
 1825TIP3    H2 5482   1.883   5.938   2.242
 1826TIP3   OH2 5483   1.025   4.390   0.159
 1826TIP3    H1 5484   0.960   4.334   0.201
 1826TIP3    H2 5485   1.056   4.339   0.084
 1827TIP3   OH2 5486   2.268   4.061   4.436
 1827TIP3    H1 5487   2.355   4.047   4.472
 1827TIP3    H2 5488   2.235   3.973   4.416
 1828TIP3   OH2 5489   3.632   5.879   3.575
 1828TIP3    H1 5490   3.550   5.840   3.604
 1828TIP3    H2 5491   3.658   5.937   3.647
 1829TIP3   OH2 5492   4.518   1.876   4.902
 1829TIP3    H1 5493   4.555   1.955   4.943
 1829TIP3    H2 5494   4.594   1.819   4.889
 1830TIP3   OH2 5495   4.224   1.218   3.143
 1830TIP3    H1 5496   4.171   1.160   3.198
 1830TIP3    H2 5497   4.274   1.159   3.087
 1831TIP3   OH2 5498   3.867   4.025   0.953
 1831TIP3    H1 5499   3.885   3.955   0.891
 1831TIP3    H2 5500   3.836   4.098   0.900
 1832TIP3   OH2 5501   3.214   1.123   0.409
 1832TIP3    H1 5502   3.287   1.176   0.438
 1832TIP3    H2 5503   3.138   1.160   0.454
 1833TIP3   OH2 5504   2.051   0.584   2.155
 1833TIP3    H1 5505   2.027   0.677   2.156
 1833TIP3    H2 5506   2.101   0.571   2.236
 1834TIP3   OH2 5507   2.383   3.334   1.193
 1834TIP3    H1 5508   2.328   3.397   1.239
 1834TIP3    H2 5509   2.408   3.271   1.261
 1835TIP3   OH2 5510   1.981   1.930   1.157
 1835TIP3    H1 5511   2.045   1.985   1.202
 1835TIP3    H2 5512   2.002   1.841   1.185
 1836TIP3   OH2 5513   5.300   4.004   4.042
 1836TIP3    H1 5514   5.377   4.060   4.056
 1836TIP3    H2 5515   5.257   4.002   4.127
 1837TIP3   OH2 5516   1.111   0.674   2.619
 1837TIP3    H1 5517   1.156   0.680   2.534
 1837TIP3    H2 5518   1.095   0.765   2.644
 1838TIP3   OH2 5519   1.082   2.152   2.020
 1838TIP3    H1 5520   1.089   2.065   1.983
 1838TIP3    H2 5521   1.001   2.188   1.984
 1839TIP3   OH2 5522   1.097   1.253   0.497
 1839TIP3    H1 5523   1.128   1.253   0.587
 1839TIP3    H2 5524   1.019   1.309   0.498
 1840TIP3   OH2 5525   3.834   2.517   1.974
 1840TIP3    H1 5526   3.884   2.508   1.893
 1840TIP3    H2 5527   3.803   2.608   1.973
 1841TIP3   OH2 5528   2.441   3.091   4.938
 1841TIP3    H1 5529   2.423   3.032   4.865
 1841TIP3    H2 5530   2.512   3.147   4.907
 1842TIP3   OH2 5531   5.346   5.079   3.627
 1842TIP3    H1 5532   5.376   5.044   3.711
 1842TIP3    H2 5533   5.321   5.002   3.576
 1843TIP3   OH2 5534   1.946   5.360   3.472
 1843TIP3    H1 5535   1.902   5.392   3.393
 1843TIP3    H2 5536   2.016   5.423   3.488
 1844TIP3   OH2 5537   3.670   5.675   1.719
 1844TIP3    H1 5538   3.613   5.600   1.738
 1844TIP3    H2 5539   3.754   5.635   1.696
 1845TIP3   OH2 5540   0.950   4.530   3.510
 1845TIP3    H1 5541   0.883   4.598   3.502
 1845TIP3    H2 5542   0.901   4.449   3.525
 1846TIP3   OH2 5543   3.193   4.407   4.486
 1846TIP3    H1 5544   3.253   4.379   4.554
 1846TIP3    H2 5545   3.127   4.459   4.532
 1847TIP3   OH2 5546   5.145   5.513   3.753
 1847TIP3    H1 5547   5.119   5.426   3.782
 1847TIP3    H2 5548   5.102   5.573   3.813
 1848TIP3   OH2 5549   5.348   4.518   2.061
 1848TIP3    H1 5550   5.349   4.427   2.090
 1848TIP3    H2 5551   5.323   4.514   1.969
 1849TIP3   OH2 5552   5.328   1.805   4.980
 1849TIP3    H1 5553   5.234   1.809   4.995
 1849TIP3    H2 5554   5.365   1.867   5.044
 1850TIP3   OH2 5555   3.062   4.029   4.116
 1850TIP3    H1 5556   3.081   4.105   4.170
 1850TIP3    H2 5557   3.144   3.980   4.113
 1851TIP3   OH2 5558   0.867   4.958   4.953
 1851TIP3    H1 5559   0.844   4.865   4.964
 1851TIP3    H2 5560   0.954   4.956   4.914
 1852TIP3   OH2 5561   5.904   1.726   2.881
 1852TIP3    H1 5562   5.936   1.733   2.971
 1852TIP3    H2 5563   5.809   1.718   2.890
 1853TIP3   OH2 5564   0.212   2.335   2.883
 1853TIP3    H1 5565   0.288   2.321   2.940
 1853TIP3    H2 5566   0.229   2.281   2.806
 1854TIP3   OH2 5567   5.971   1.227   2.790
 1854TIP3    H1 5568   5.999   1.299   2.847
 1854TIP3    H2 5569   5.883   1.206   2.820
 1855TIP3   OH2 5570   1.846   0.388   2.723
 1855TIP3    H1 5571   1.825   0.336   2.801
 1855TIP3    H2 5572   1.768   0.440   2.706
 1856TIP3   OH2 5573   0.811   0.822   3.147
 1856TIP3    H1 5574   0.800   0.873   3.227
 1856TIP3    H2 5575   0.736   0.763   3.146
 1857TIP3   OH2 5576   4.460   0.425   0.679
 1857TIP3    H1 5577   4.466   0.519   0.698
 1857TIP3    H2 5578   4.427   0.421   0.589
 1858TIP3   OH2 5579   4.458   5.325   2.310
 1858TIP3    H1 5580   4.503   5.384   2.370
 1858TIP3    H2 5581   4.436   5.248   2.363
 1859TIP3   OH2 5582   0.572   0.796   0.126
 1859TIP3    H1 5583   0.600   0.780   0.216
 1859TIP3    H2 5584   0.636   0.748   0.073
 1860TIP3   OH2 5585   2.013   3.242   1.644
 1860TIP3    H1 5586   1.966   3.159   1.651
 1860TIP3    H2 5587   2.004   3.282   1.730
 1861TIP3   OH2 5588   4.101   4.363   2.210
 1861TIP3    H1 5589   4.179   4.309   2.217
 1861TIP3    H2 5590   4.099   4.389   2.118
 1862TIP3   OH2 5591   4.774   5.333   1.844
 1862TIP3    H1 5592   4.865   5.362   1.834
 1862TIP3    H2 5593   4.750   5.300   1.757
 1863TIP3   OH2 5594   0.454   0.103   0.343
 1863TIP3    H1 5595   0.544   0.135   0.347
 1863TIP3    H2 5596   0.446   0.045   0.419
 1864TIP3   OH2 5597   2.210   5.053   0.285
 1864TIP3    H1 5598   2.192   4.961   0.268
 1864TIP3    H2 5599   2.124   5.095   0.283
 1865TIP3   OH2 5600   5.786   3.063   4.082
 1865TIP3    H1 5601   5.800   2.969   4.097
 1865TIP3    H2 5602   5.873   3.098   4.064
 1866TIP3   OH2 5603   3.435   3.973   1.069
 1866TIP3    H1 5604   3.386   3.892   1.054
 1866TIP3    H2 5605   3.430   4.019   0.985
 1867TIP3   OH2 5606   3.577   5.175   1.430
 1867TIP3    H1 5607   3.506   5.117   1.458
 1867TIP3    H2 5608   3.626   5.124   1.366
 1868TIP3   OH2 5609   0.116   4.365   0.196
 1868TIP3    H1 5610   0.073   4.305   0.134
 1868TIP3    H2 5611   0.049   4.432   0.214
 1869TIP3   OH2 5612   5.117   4.426   3.845
 1869TIP3    H1 5613   5.045   4.370   3.815
 1869TIP3    H2 5614   5.083   4.469   3.923
 1870TIP3   OH2 5615   4.835   3.867   1.262
 1870TIP3    H1 5616   4.747   3.833   1.278
 1870TIP3    H2 5617   4.823   3.933   1.194
 1871TIP3   OH2 5618   5.996   4.733   1.828
 1871TIP3    H1 5619   5.997   4.638   1.819
 1871TIP3    H2 5620   5.903   4.756   1.828
 1872TIP3   OH2 5621   5.235   0.357   0.171
 1872TIP3    H1 5622   5.168   0.410   0.128
 1872TIP3    H2 5623   5.204   0.267   0.161
 1873TIP3   OH2 5624   3.648   2.922   0.709
 1873TIP3    H1 5625   3.591   2.947   0.637
 1873TIP3    H2 5626   3.731   2.966   0.691
 1874TIP3   OH2 5627   4.156   1.756   0.955
 1874TIP3    H1 5628   4.186   1.697   0.886
 1874TIP3    H2 5629   4.210   1.835   0.946
 1875TIP3   OH2 5630   5.711   0.295   4.258
 1875TIP3    H1 5631   5.681   0.346   4.334
 1875TIP3    H2 5632   5.709   0.358   4.185
 1876TIP3   OH2 5633   3.838   1.857   2.950
 1876TIP3    H1 5634   3.898   1.928   2.926
 1876TIP3    H2 5635   3.754   1.885   2.914
 1877TIP3   OH2 5636   5.253   5.402   1.758
 1877TIP3    H1 5637   5.256   5.487   1.715
 1877TIP3    H2 5638   5.332   5.357   1.728
 1878TIP3   OH2 5639   0.972   2.978   3.211
 1878TIP3    H1 5640   0.913   3.003   3.140
 1878TIP3    H2 5641   1.049   3.034   3.198
 1879TIP3   OH2 5642   3.201   2.978   4.722
 1879TIP3    H1 5643   3.260   2.920   4.675
 1879TIP3    H2 5644   3.255   3.054   4.744
 1880TIP3   OH2 5645   2.972   4.248   0.466
 1880TIP3    H1 5646   3.023   4.321   0.431
 1880TIP3    H2 5647   3.020   4.170   0.439
 1881TIP3   OH2 5648   6.066   6.012   2.843
 1881TIP3    H1 5649   6.061   5.971   2.757
 1881TIP3    H2 5650   5.991   6.072   2.846
 1882TIP3   OH2 5651   5.150   5.899   3.179
 1882TIP3    H1 5652   5.190   5.837   3.118
 1882TIP3    H2 5653   5.151   5.853   3.263
 1883TIP3   OH2 5654   6.208   1.778   1.300
 1883TIP3    H1 5655   6.190   1.742   1.213
 1883TIP3    H2 5656   6.247   1.705   1.348
 1884TIP3   OH2 5657   3.381   3.296   1.722
 1884TIP3    H1 5658   3.362   3.272   1.631
 1884TIP3    H2 5659   3.308   3.353   1.747
 1885TIP3   OH2 5660   3.427   3.417   3.491
 1885TIP3    H1 5661   3.482   3.486   3.526
 1885TIP3    H2 5662   3.477   3.337   3.503
 1886TIP3   OH2 5663   2.237   2.095   2.986
 1886TIP3    H1 5664   2.209   2.005   3.002
 1886TIP3    H2 5665   2.215   2.142   3.067
 1887TIP3   OH2 5666   5.609   5.335   4.491
 1887TIP3    H1 5667   5.658   5.395   4.547
 1887TIP3    H2 5668   5.540   5.300   4.549
 1888TIP3   OH2 5669   0.548   4.017   3.679
 1888TIP3    H1 5670   0.544   3.963   3.758
 1888TIP3    H2 5671   0.466   3.999   3.634
 1889TIP3   OH2 5672   1.361   0.891   4.947
 1889TIP3    H1 5673   1.415   0.817   4.975
 1889TIP3    H2 5674   1.271   0.862   4.960
 1890TIP3   OH2 5675   2.542   5.581   4.859
 1890TIP3    H1 5676   2.600   5.639   4.909
 1890TIP3    H2 5677   2.475   5.555   4.922
 1891TIP3   OH2 5678   4.725   2.741   0.111
 1891TIP3    H1 5679   4.769   2.819   0.077
 1891TIP3    H2 5680   4.770   2.723   0.194
 1892TIP3   OH2 5681   4.454   2.172   4.802
 1892TIP3    H1 5682   4.540   2.202   4.831
 1892TIP3    H2 5683   4.410   2.251   4.770
 1893TIP3   OH2 5684   3.241   5.269   0.443
 1893TIP3    H1 5685   3.233   5.190   0.496
 1893TIP3    H2 5686   3.332   5.295   0.452
 1894TIP3   OH2 5687   4.893   5.938   3.890
 1894TIP3    H1 5688   4.945   6.016   3.909
 1894TIP3    H2 5689   4.848   5.958   3.809
 1895TIP3   OH2 5690   1.870   5.579   3.737
 1895TIP3    H1 5691   1.917   5.582   3.820
 1895TIP3    H2 5692   1.876   5.669   3.703
 1896TIP3   OH2 5693   1.512   1.821   0.551
 1896TIP3    H1 5694   1.573   1.797   0.482
 1896TIP3    H2 5695   1.430   1.779   0.526
 1897TIP3   OH2 5696   3.849   4.269   5.041
 1897TIP3    H1 5697   3.859   4.319   5.122
 1897TIP3    H2 5698   3.936   4.273   5.000
 1898TIP3   OH2 5699   5.718   4.028   0.217
 1898TIP3    H1 5700   5.641   3.972   0.208
 1898TIP3    H2 5701   5.789   3.967   0.239
 1899TIP3   OH2 5702   3.860   4.656   2.027
 1899TIP3    H1 5703   3.790   4.698   1.977
 1899TIP3    H2 5704   3.898   4.593   1.966
 1900TIP3   OH2 5705   4.677   2.361   3.911
 1900TIP3    H1 5706   4.586   2.344   3.937
 1900TIP3    H2 5707   4.682   2.332   3.821
 1901TIP3   OH2 5708   0.227   5.632   1.000
 1901TIP3    H1 5709   0.236   5.655   1.093
 1901TIP3    H2 5710   0.162   5.694   0.967
 1902TIP3   OH2 5711   2.131   1.061   5.154
 1902TIP3    H1 5712   2.042   1.027   5.142
 1902TIP3    H2 5713   2.146   1.055   5.248
 1903TIP3   OH2 5714   5.727   3.630   4.875
 1903TIP3    H1 5715   5.651   3.580   4.846
 1903TIP3    H2 5716   5.755   3.679   4.798
 1904TIP3   OH2 5717   1.108   2.183   1.009
 1904TIP3    H1 5718   1.039   2.116   1.003
 1904TIP3    H2 5719   1.097   2.234   0.928
 1905TIP3   OH2 5720   0.898   3.469   3.718
 1905TIP3    H1 5721   0.952   3.475   3.639
 1905TIP3    H2 5722   0.947   3.519   3.784
 1906TIP3   OH2 5723   4.523   5.794   0.783
 1906TIP3    H1 5724   4.459   5.753   0.842
 1906TIP3    H2 5725   4.591   5.727   0.772
 1907TIP3   OH2 5726   5.170   0.648   0.408
 1907TIP3    H1 5727   5.133   0.731   0.441
 1907TIP3    H2 5728   5.168   0.658   0.312
 1908TIP3   OH2 5729   4.382   1.757   1.311
 1908TIP3    H1 5730   4.364   1.685   1.250
 1908TIP3    H2 5731   4.477   1.757   1.320
 1909TIP3   OH2 5732   1.533   4.740   3.008
 1909TIP3    H1 5733   1.589   4.722   2.933
 1909TIP3    H2 5734   1.464   4.797   2.974
 1910TIP3   OH2 5735   4.741   2.126   1.133
 1910TIP3    H1 5736   4.797   2.154   1.206
 1910TIP3    H2 5737   4.719   2.035   1.155
 1911TIP3   OH2 5738   0.029   3.572   1.677
 1911TIP3    H1 5739  -0.023   3.586   1.756
 1911TIP3    H2 5740   0.055   3.480   1.681
 1912TIP3   OH2 5741   5.246   1.729   3.895
 1912TIP3    H1 5742   5.169   1.786   3.899
 1912TIP3    H2 5743   5.317   1.786   3.867
 1913TIP3   OH2 5744   5.708   1.060   1.131
 1913TIP3    H1 5745   5.728   1.153   1.137
 1913TIP3    H2 5746   5.626   1.055   1.082
 1914TIP3   OH2 5747   4.194   5.162   3.751
 1914TIP3    H1 5748   4.142   5.236   3.783
 1914TIP3    H2 5749   4.276   5.169   3.800
 1915TIP3   OH2 5750   0.122   0.061   3.439
 1915TIP3    H1 5751   0.180   0.032   3.509
 1915TIP3    H2 5752   0.180   0.100   3.374
 1916TIP3   OH2 5753   4.077   1.468   4.414
 1916TIP3    H1 5754   4.168   1.489   4.435
 1916TIP3    H2 5755   4.072   1.478   4.318
 1917TIP3   OH2 5756   5.912   1.094   4.768
 1917TIP3    H1 5757   5.925   1.004   4.799
 1917TIP3    H2 5758   5.840   1.128   4.820
 1918TIP3   OH2 5759   4.915   1.993   4.874
 1918TIP3    H1 5760   4.832   2.025   4.909
 1918TIP3    H2 5761   4.967   2.072   4.859
 1919TIP3   OH2 5762   3.470   2.543   3.912
 1919TIP3    H1 5763   3.504   2.455   3.928
 1919TIP3    H2 5764   3.501   2.564   3.823
 1920TIP3   OH2 5765   0.419   3.608   0.605
 1920TIP3    H1 5766   0.469   3.588   0.684
 1920TIP3    H2 5767   0.479   3.586   0.533
 1921TIP3   OH2 5768   2.995   3.514   4.594
 1921TIP3    H1 5769   3.065   3.577   4.612
 1921TIP3    H2 5770   2.994   3.504   4.499
 1922TIP3   OH2 5771   2.951   3.271   0.819
 1922TIP3    H1 5772   3.007   3.349   0.817
 1922TIP3    H2 5773   2.978   3.219   0.744
 1923TIP3   OH2 5774   3.019   3.477   2.895
 1923TIP3    H1 5775   3.012   3.470   2.800
 1923TIP3    H2 5776   2.968   3.403   2.928
 1924TIP3   OH2 5777   4.489   4.508   0.606
 1924TIP3    H1 5778   4.443   4.462   0.536
 1924TIP3    H2 5779   4.514   4.592   0.567
 1925TIP3   OH2 5780   2.183   1.770   0.966
 1925TIP3    H1 5781   2.160   1.737   1.053
 1925TIP3    H2 5782   2.148   1.704   0.906
 1926TIP3   OH2 5783   1.654   5.428   3.688
 1926TIP3    H1 5784   1.722   5.496   3.689
 1926TIP3    H2 5785   1.694   5.354   3.643
 1927TIP3   OH2 5786   0.892   0.704   4.774
 1927TIP3    H1 5787   0.986   0.705   4.793
 1927TIP3    H2 5788   0.868   0.611   4.780
 1928TIP3   OH2 5789   0.629   3.447   1.632
 1928TIP3    H1 5790   0.683   3.504   1.686
 1928TIP3    H2 5791   0.689   3.411   1.566
 1929TIP3   OH2 5792   1.984   0.404   1.521
 1929TIP3    H1 5793   1.903   0.376   1.479
 1929TIP3    H2 5794   2.035   0.444   1.451
 1930TIP3   OH2 5795   2.193   3.402   0.420
 1930TIP3    H1 5796   2.238   3.482   0.394
 1930TIP3    H2 5797   2.111   3.432   0.459
 1931TIP3   OH2 5798   3.740   0.331   3.373
 1931TIP3    H1 5799   3.751   0.352   3.281
 1931TIP3    H2 5800   3.693   0.405   3.410
 1932TIP3   OH2 5801   3.379   1.350   3.689
 1932TIP3    H1 5802   3.312   1.284   3.706
 1932TIP3    H2 5803   3.357   1.422   3.747
 1933TIP3   OH2 5804   6.150   3.767   2.683
 1933TIP3    H1 5805   6.059   3.762   2.713
 1933TIP3    H2 5806   6.156   3.703   2.612
 1934TIP3   OH2 5807   1.649   0.687   3.431
 1934TIP3    H1 5808   1.661   0.735   3.513
 1934TIP3    H2 5809   1.601   0.748   3.375
 1935TIP3   OH2 5810   2.439   0.635   3.953
 1935TIP3    H1 5811   2.519   0.673   3.917
 1935TIP3    H2 5812   2.394   0.597   3.877
 1936TIP3   OH2 5813   6.050   1.254   1.155
 1936TIP3    H1 5814   6.118   1.303   1.108
 1936TIP3    H2 5815   5.968   1.281   1.114
 1937TIP3   OH2 5816   1.208   5.489   1.161
 1937TIP3    H1 5817   1.301   5.511   1.150
 1937TIP3    H2 5818   1.208   5.408   1.211
 1938TIP3   OH2 5819   0.969   4.097   3.485
 1938TIP3    H1 5820   0.929   4.154   3.551
 1938TIP3    H2 5821   0.943   4.009   3.511
 1939TIP3   OH2 5822   2.547   2.903   3.515
 1939TIP3    H1 5823   2.475   2.841   3.520
 1939TIP3    H2 5824   2.531   2.953   3.434
 1940TIP3   OH2 5825   0.308   1.868   3.325
 1940TIP3    H1 5826   0.360   1.927   3.269
 1940TIP3    H2 5827   0.367   1.848   3.398
 1941TIP3   OH2 5828   6.168   1.690   1.843
 1941TIP3    H1 5829   6.139   1.763   1.789
 1941TIP3    H2 5830   6.245   1.655   1.798
 1942TIP3   OH2 5831   4.304   1.637   4.170
 1942TIP3    H1 5832   4.391   1.660   4.138
 1942TIP3    H2 5833   4.301   1.672   4.259
 1943TIP3   OH2 5834   1.097   0.747   1.253
 1943TIP3    H1 5835   1.114   0.801   1.176
 1943TIP3    H2 5836   1.181   0.745   1.300
 1944TIP3   OH2 5837   1.547   4.323   3.125
 1944TIP3    H1 5838   1.641   4.321   3.109
 1944TIP3    H2 5839   1.511   4.264   3.059
 1945TIP3   OH2 5840   1.610   5.362   2.356
 1945TIP3    H1 5841   1.537   5.302   2.374
 1945TIP3    H2 5842   1.598   5.434   2.417
 1946TIP3   OH2 5843   3.766   4.068   3.478
 1946TIP3    H1 5844   3.705   4.007   3.519
 1946TIP3    H2 5845   3.713   4.119   3.417
 1947TIP3   OH2 5846   1.838   2.678   0.619
 1947TIP3    H1 5847   1.764   2.732   0.591
 1947TIP3    H2 5848   1.804   2.627   0.693
 1948TIP3   OH2 5849   0.461   3.139   3.807
 1948TIP3    H1 5850   0.522   3.206   3.778
 1948TIP3    H2 5851   0.505   3.056   3.789
 1949TIP3   OH2 5852   5.702   2.978   0.453
 1949TIP3    H1 5853   5.774   2.918   0.471
 1949TIP3    H2 5854   5.712   3.000   0.361
 1950TIP3   OH2 5855   6.262   5.954   4.928
 1950TIP3    H1 5856   6.310   5.980   4.850
 1950TIP3    H2 5857   6.293   5.864   4.946
 1951TIP3   OH2 5858   4.036   0.275   3.577
 1951TIP3    H1 5859   4.112   0.315   3.619
 1951TIP3    H2 5860   3.969   0.343   3.578
 1952TIP3   OH2 5861   4.493   5.133   1.235
 1952TIP3    H1 5862   4.528   5.076   1.166
 1952TIP3    H2 5863   4.481   5.217   1.192
 1953TIP3   OH2 5864   0.139   5.105   4.551
 1953TIP3    H1 5865   0.205   5.137   4.489
 1953TIP3    H2 5866   0.130   5.174   4.615
 1954TIP3   OH2 5867   0.732   5.904   2.166
 1954TIP3    H1 5868   0.701   5.988   2.199
 1954TIP3    H2 5869   0.811   5.886   2.217
 1955TIP3   OH2 5870   3.891   2.209   4.829
 1955TIP3    H1 5871   3.802   2.175   4.835
 1955TIP3    H2 5872   3.927   2.199   4.917
 1956TIP3   OH2 5873   1.512   2.119   1.577
 1956TIP3    H1 5874   1.518   2.059   1.651
 1956TIP3    H2 5875   1.483   2.065   1.504
 1957TIP3   OH2 5876   0.249   1.545   2.060
 1957TIP3    H1 5877   0.303   1.545   2.139
 1957TIP3    H2 5878   0.159   1.544   2.092
 1958TIP3   OH2 5879   1.321   5.555   5.017
 1958TIP3    H1 5880   1.380   5.481   5.029
 1958TIP3    H2 5881   1.327   5.577   4.924
 1959TIP3   OH2 5882   3.272   3.656   4.790
 1959TIP3    H1 5883   3.352   3.619   4.754
 1959TIP3    H2 5884   3.245   3.593   4.857
 1960TIP3   OH2 5885   2.917   5.230   1.284
 1960TIP3    H1 5886   3.000   5.182   1.285
 1960TIP3    H2 5887   2.930   5.299   1.219
 1961TIP3   OH2 5888   2.273   5.742   4.012
 1961TIP3    H1 5889   2.362   5.738   3.978
 1961TIP3    H2 5890   2.217   5.723   3.937
 1962TIP3   OH2 5891   5.892   0.741   0.987
 1962TIP3    H1 5892   5.915   0.757   0.896
 1962TIP3    H2 5893   5.939   0.808   1.036
 1963TIP3   OH2 5894   0.315   1.151   3.245
 1963TIP3    H1 5895   0.365   1.092   3.188
 1963TIP3    H2 5896   0.230   1.159   3.202
 1964TIP3   OH2 5897   1.923   0.862   2.135
 1964TIP3    H1 5898   1.958   0.849   2.223
 1964TIP3    H2 5899   1.917   0.957   2.126
 1965TIP3   OH2 5900   5.016   2.541   1.901
 1965TIP3    H1 5901   4.949   2.595   1.859
 1965TIP3    H2 5902   4.979   2.453   1.899
 1966TIP3   OH2 5903   5.951   2.368   1.702
 1966TIP3    H1 5904   6.041   2.395   1.688
 1966TIP3    H2 5905   5.899   2.447   1.687
 1967TIP3   OH2 5906   5.620   3.406   2.840
 1967TIP3    H1 5907   5.658   3.482   2.795
 1967TIP3    H2 5908   5.694   3.369   2.888
 1968TIP3   OH2 5909   0.401   1.481   0.226
 1968TIP3    H1 5910   0.470   1.437   0.175
 1968TIP3    H2 5911   0.335   1.414   0.240
 1969TIP3   OH2 5912   0.759   1.007   3.725
 1969TIP3    H1 5913   0.755   0.911   3.728
 1969TIP3    H2 5914   0.827   1.026   3.661
 1970TIP3   OH2 5915   0.878   2.301   0.706
 1970TIP3    H1 5916   0.904   2.219   0.664
 1970TIP3    H2 5917   0.783   2.298   0.708
 1971TIP3   OH2 5918   5.378   2.151   2.014
 1971TIP3    H1 5919   5.311   2.089   2.045
 1971TIP3    H2 5920   5.365   2.155   1.919
 1972TIP3   OH2 5921   1.427   4.448   1.277
 1972TIP3    H1 5922   1.437   4.543   1.277
 1972TIP3    H2 5923   1.480   4.419   1.350
 1973TIP3   OH2 5924   4.816   3.089   4.630
 1973TIP3    H1 5925   4.904   3.056   4.648
 1973TIP3    H2 5926   4.829   3.157   4.564
 1974TIP3   OH2 5927   6.067   4.052   5.103
 1974TIP3    H1 5928   6.123   4.126   5.080
 1974TIP3    H2 5929   6.096   4.026   5.190
 1975TIP3   OH2 5930   5.872   3.881   4.759
 1975TIP3    H1 5931   5.863   3.804   4.702
 1975TIP3    H2 5932   5.965   3.883   4.782
 1976TIP3   OH2 5933   6.235   0.396   3.422
 1976TIP3    H1 5934   6.184   0.353   3.353
 1976TIP3    H2 5935   6.326   0.372   3.404
 1977TIP3   OH2 5936   3.132   4.218   5.057
 1977TIP3    H1 5937   3.125   4.162   4.980
 1977TIP3    H2 5938   3.060   4.280   5.049
 1978TIP3   OH2 5939   4.861   0.366   2.250
 1978TIP3    H1 5940   4.803   0.395   2.321
 1978TIP3    H2 5941   4.812   0.384   2.170
 1979TIP3   OH2 5942   1.491   5.541   1.163
 1979TIP3    H1 5943   1.491   5.615   1.224
 1979TIP3    H2 5944   1.572   5.494   1.184
 1980TIP3   OH2 5945   2.660   2.348   1.995
 1980TIP3    H1 5946   2.635   2.265   1.954
 1980TIP3    H2 5947   2.654   2.412   1.924
 1981TIP3   OH2 5948   4.099   2.119   0.638
 1981TIP3    H1 5949   4.082   2.202   0.593
 1981TIP3    H2 5950   4.020   2.067   0.623
 1982TIP3   OH2 5951   2.466   5.046   3.024
 1982TIP3    H1 5952   2.431   4.995   2.951
 1982TIP3    H2 5953   2.536   4.992   3.059
 1983TIP3   OH2 5954   3.135   2.016   0.110
 1983TIP3    H1 5955   3.153   2.109   0.128
 1983TIP3    H2 5956   3.112   1.979   0.195
 1984TIP3   OH2 5957   3.830   1.659   1.301
 1984TIP3    H1 5958   3.796   1.717   1.370
 1984TIP3    H2 5959   3.809   1.570   1.333
 1985TIP3   OH2 5960   3.346   3.969   2.302
 1985TIP3    H1 5961   3.297   4.040   2.259
 1985TIP3    H2 5962   3.280   3.923   2.354
 1986TIP3   OH2 5963   2.742   2.691   3.853
 1986TIP3    H1 5964   2.743   2.767   3.794
 1986TIP3    H2 5965   2.694   2.720   3.930
 1987TIP3   OH2 5966   4.311   4.937   3.603
 1987TIP3    H1 5967   4.231   4.898   3.568
 1987TIP3    H2 5968   4.291   5.030   3.610
 1988TIP3   OH2 5969   4.030   3.874   4.741
 1988TIP3    H1 5970   3.974   3.933   4.691
 1988TIP3    H2 5971   4.107   3.859   4.685
 1989TIP3   OH2 5972   3.206   1.353   1.162
 1989TIP3    H1 5973   3.291   1.358   1.118
 1989TIP3    H2 5974   3.147   1.405   1.107
 1990TIP3   OH2 5975   3.768   3.524   3.517
 1990TIP3    H1 5976   3.743   3.510   3.608
 1990TIP3    H2 5977   3.803   3.613   3.515
 1991TIP3   OH2 5978   1.258   3.308   3.062
 1991TIP3    H1 5979   1.352   3.287   3.061
 1991TIP3    H2 5980   1.231   3.288   3.152
 1992TIP3   OH2 5981   5.231   0.360   4.052
 1992TIP3    H1 5982   5.278   0.349   3.969
 1992TIP3    H2 5983   5.239   0.276   4.096
 1993TIP3   OH2 5984   1.401   3.534   4.686
 1993TIP3    H1 5985   1.360   3.612   4.723
 1993TIP3    H2 5986   1.438   3.489   4.762
 1994TIP3   OH2 5987   1.226   4.977   2.404
 1994TIP3    H1 5988   1.286   4.961   2.477
 1994TIP3    H2 5989   1.171   5.050   2.433
 1995TIP3   OH2 5990   4.993   5.508   4.513
 1995TIP3    H1 5991   5.024   5.453   4.585
 1995TIP3    H2 5992   5.039   5.591   4.525
 1996TIP3   OH2 5993   4.804   5.826   5.078
 1996TIP3    H1 5994   4.751   5.870   5.012
 1996TIP3    H2 5995   4.844   5.752   5.033
 1997TIP3   OH2 5996   2.906   3.451   4.310
 1997TIP3    H1 5997   2.943   3.530   4.272
 1997TIP3    H2 5998   2.814   3.451   4.282
 1998TIP3   OH2 5999   5.146   5.920   4.788
 1998TIP3    H1 6000   5.063   5.969   4.790
 1998TIP3    H2 6001   5.153   5.890   4.698
 1999TIP3   OH2 6002   2.020   2.587   0.372
 1999TIP3    H1 6003   1.982   2.637   0.444
 1999TIP3    H2 6004   2.097   2.545   0.409
 2000TIP3   OH2 6005   0.332   2.694   3.052
 2000TIP3    H1 6006   0.308   2.661   2.966
 2000TIP3    H2 6007   0.363   2.784   3.035
 2001TIP3   OH2 6008   5.417   0.354   4.276
 2001TIP3    H1 6009   5.448   0.263   4.282
 2001TIP3    H2 6010   5.376   0.359   4.190
 2002TIP3   OH2 6011   5.705   1.115   3.498
 2002TIP3    H1 6012   5.673   1.183   3.557
 2002TIP3    H2 6013   5.764   1.062   3.553
 2003TIP3   OH2 6014   1.120   0.469   3.938
 2003TIP3    H1 6015   1.108   0.411   3.863
 2003TIP3    H2 6016   1.047   0.531   3.932
 2004TIP3   OH2 6017   6.056   3.886   1.492
 2004TIP3    H1 6018   6.060   3.851   1.581
 2004TIP3    H2 6019   6.141   3.865   1.454
 2005TIP3   OH2 6020   0.134   1.141   0.474
 2005TIP3    H1 6021   0.039   1.156   0.478
 2005TIP3    H2 6022   0.144   1.047   0.488
 2006TIP3   OH2 6023   3.631   0.449   0.334
 2006TIP3    H1 6024   3.699   0.450   0.267
 2006TIP3    H2 6025   3.550   0.470   0.288
 2007TIP3   OH2 6026   3.092   0.057   4.264
 2007TIP3    H1 6027   3.068  -0.036   4.262
 2007TIP3    H2 6028   3.026   0.097   4.321
 2008TIP3   OH2 6029   4.902   5.041   0.250
 2008TIP3    H1 6030   4.893   4.969   0.312
 2008TIP3    H2 6031   4.910   5.119   0.306
 2009TIP3   OH2 6032   6.278   3.628   2.269
 2009TIP3    H1 6033   6.299   3.693   2.337
 2009TIP3    H2 6034   6.287   3.675   2.187
 2010TIP3   OH2 6035   2.522   0.880   1.050
 2010TIP3    H1 6036   2.487   0.797   1.083
 2010TIP3    H2 6037   2.512   0.874   0.955
 2011TIP3   OH2 6038   5.882   0.983   4.165
 2011TIP3    H1 6039   5.813   1.049   4.161
 2011TIP3    H2 6040   5.963   1.034   4.171
 2012TIP3   OH2 6041   3.813   0.085   1.424
 2012TIP3    H1 6042   3.857   0.087   1.340
 2012TIP3    H2 6043   3.748   0.155   1.419
 2013TIP3   OH2 6044   5.190   0.804   2.142
 2013TIP3    H1 6045   5.125   0.733   2.144
 2013TIP3    H2 6046   5.266   0.766   2.098
 2014TIP3   OH2 6047   1.318   0.671   4.728
 2014TIP3    H1 6048   1.245   0.690   4.669
 2014TIP3    H2 6049   1.322   0.576   4.732
 2015TIP3   OH2 6050   5.417   0.018   5.007
 2015TIP3    H1 6051   5.450   0.091   4.956
 2015TIP3    H2 6052   5.495  -0.029   5.036
 2016TIP3   OH2 6053   4.434   4.102   2.997
 2016TIP3    H1 6054   4.448   4.196   2.991
 2016TIP3    H2 6055   4.343   4.088   2.971
 2017TIP3   OH2 6056   1.482   0.685   1.854
 2017TIP3    H1 6057   1.554   0.703   1.915
 2017TIP3    H2 6058   1.496   0.594   1.828
 2018TIP3   OH2 6059   3.334   0.863   0.182
 2018TIP3    H1 6060   3.357   0.770   0.183
 2018TIP3    H2 6061   3.295   0.879   0.268
 2019TIP3   OH2 6062   0.802   5.373   1.555
 2019TIP3    H1 6063   0.827   5.428   1.630
 2019TIP3    H2 6064   0.708   5.385   1.547
 2020TIP3   OH2 6065   0.211   5.086   1.312
 2020TIP3    H1 6066   0.259   5.149   1.366
 2020TIP3    H2 6067   0.182   5.137   1.236
 2021TIP3   OH2 6068   2.346   1.708   4.547
 2021TIP3    H1 6069   2.412   1.732   4.482
 2021TIP3    H2 6070   2.263   1.734   4.507
 2022TIP3   OH2 6071   1.607   1.872   3.316
 2022TIP3    H1 6072   1.687   1.884   3.265
 2022TIP3    H2 6073   1.589   1.959   3.354
 2023TIP3   OH2 6074   0.847   2.812   2.877
 2023TIP3    H1 6075   0.894   2.857   2.807
 2023TIP3    H2 6076   0.779   2.873   2.903
 2024TIP3   OH2 6077   3.224   5.114   1.832
 2024TIP3    H1 6078   3.223   5.207   1.811
 2024TIP3    H2 6079   3.258   5.072   1.753
 2025TIP3   OH2 6080   3.360   0.707   4.879
 2025TIP3    H1 6081   3.286   0.765   4.859
 2025TIP3    H2 6082   3.376   0.660   4.798
 2026TIP3   OH2 6083   1.139   3.893   2.292
 2026TIP3    H1 6084   1.142   3.927   2.382
 2026TIP3    H2 6085   1.202   3.948   2.244
 2027TIP3   OH2 6086   6.008   0.692   2.939
 2027TIP3    H1 6087   6.099   0.720   2.934
 2027TIP3    H2 6088   5.958   0.774   2.936
 2028TIP3   OH2 6089   5.633   5.951   4.224
 2028TIP3    H1 6090   5.696   5.957   4.296
 2028TIP3    H2 6091   5.547   5.949   4.267
 2029TIP3   OH2 6092   1.106   1.228   3.886
 2029TIP3    H1 6093   1.039   1.235   3.818
 2029TIP3    H2 6094   1.089   1.144   3.929
 2030TIP3   OH2 6095   1.414   5.770   3.874
 2030TIP3    H1 6096   1.365   5.830   3.818
 2030TIP3    H2 6097   1.439   5.822   3.950
 2031TIP3   OH2 6098   3.770   1.412   2.356
 2031TIP3    H1 6099   3.684   1.376   2.377
 2031TIP3    H2 6100   3.793   1.374   2.271
 2032TIP3   OH2 6101   0.283   5.121   4.212
 2032TIP3    H1 6102   0.191   5.098   4.212
 2032TIP3    H2 6103   0.311   5.110   4.121
 2033TIP3   OH2 6104   0.299   1.635   1.723
 2033TIP3    H1 6105   0.370   1.597   1.776
 2033TIP3    H2 6106   0.313   1.730   1.731
 2034TIP3   OH2 6107   5.822   2.501   3.556
 2034TIP3    H1 6108   5.790   2.496   3.466
 2034TIP3    H2 6109   5.743   2.488   3.610
 2035TIP3   OH2 6110   0.931   5.421   2.371
 2035TIP3    H1 6111   0.870   5.491   2.344
 2035TIP3    H2 6112   0.984   5.461   2.439
 2036TIP3   OH2 6113   4.381   2.735   3.683
 2036TIP3    H1 6114   4.337   2.654   3.657
 2036TIP3    H2 6115   4.313   2.802   3.676
 2037TIP3   OH2 6116   6.360   1.579   2.172
 2037TIP3    H1 6117   6.296   1.640   2.134
 2037TIP3    H2 6118   6.330   1.566   2.262
 2038TIP3   OH2 6119   2.672   5.876   4.976
 2038TIP3    H1 6120   2.724   5.797   4.993
 2038TIP3    H2 6121   2.675   5.924   5.059
 2039TIP3   OH2 6122   1.371   1.718   3.218
 2039TIP3    H1 6123   1.455   1.758   3.240
 2039TIP3    H2 6124   1.385   1.676   3.134
 2040TIP3   OH2 6125   3.276   4.895   4.027
 2040TIP3    H1 6126   3.296   4.933   4.113
 2040TIP3    H2 6127   3.192   4.934   4.003
 2041TIP3   OH2 6128   4.138   4.720   4.585
 2041TIP3    H1 6129   4.156   4.697   4.494
 2041TIP3    H2 6130   4.132   4.815   4.585
 2042TIP3   OH2 6131   1.110   5.348   4.723
 2042TIP3    H1 6132   1.067   5.425   4.761
 2042TIP3    H2 6133   1.042   5.281   4.725
 2043TIP3   OH2 6134   2.578   0.192   1.808
 2043TIP3    H1 6135   2.535   0.107   1.811
 2043TIP3    H2 6136   2.592   0.209   1.715
 2044TIP3   OH2 6137   4.903   3.259   0.044
 2044TIP3    H1 6138   4.945   3.275   0.129
 2044TIP3    H2 6139   4.813   3.289   0.056
 2045TIP3   OH2 6140   1.623   3.617   0.678
 2045TIP3    H1 6141   1.691   3.564   0.721
 2045TIP3    H2 6142   1.564   3.553   0.640
 2046TIP3   OH2 6143   1.972   4.767   2.490
 2046TIP3    H1 6144   1.911   4.812   2.432
 2046TIP3    H2 6145   2.000   4.835   2.552
 2047TIP3   OH2 6146   3.182   4.103   3.785
 2047TIP3    H1 6147   3.090   4.087   3.804
 2047TIP3    H2 6148   3.184   4.125   3.692
 2048TIP3   OH2 6149   1.083   0.573   3.171
 2048TIP3    H1 6150   1.133   0.494   3.194
 2048TIP3    H2 6151   1.001   0.565   3.221
 2049TIP3   OH2 6152   1.685   3.493   4.164
 2049TIP3    H1 6153   1.670   3.408   4.123
 2049TIP3    H2 6154   1.598   3.532   4.171
 2050TIP3   OH2 6155   4.282   2.992   0.884
 2050TIP3    H1 6156   4.306   3.071   0.934
 2050TIP3    H2 6157   4.248   2.932   0.950
 2051TIP3   OH2 6158   1.830   2.836   3.419
 2051TIP3    H1 6159   1.819   2.930   3.431
 2051TIP3    H2 6160   1.781   2.796   3.491
 2052TIP3   OH2 6161   0.217   4.249   4.318
 2052TIP3    H1 6162   0.171   4.235   4.235
 2052TIP3    H2 6163   0.306   4.216   4.303
 2053TIP3   OH2 6164   4.499   2.968   0.693
 2053TIP3    H1 6165   4.425   3.009   0.736
 2053TIP3    H2 6166   4.561   3.039   0.677
 2054TIP3   OH2 6167   1.650   2.895   0.636
 2054TIP3    H1 6168   1.637   2.959   0.566
 2054TIP3    H2 6169   1.656   2.948   0.716
 2055TIP3   OH2 6170   2.590   3.763   0.103
 2055TIP3    H1 6171   2.528   3.762   0.176
 2055TIP3    H2 6172   2.662   3.706   0.132
 2056TIP3   OH2 6173   5.123   0.360   1.471
 2056TIP3    H1 6174   5.137   0.347   1.565
 2056TIP3    H2 6175   5.130   0.272   1.433
 2057TIP3   OH2 6176   1.489   2.404   4.547
 2057TIP3    H1 6177   1.507   2.496   4.569
 2057TIP3    H2 6178   1.419   2.408   4.482
 2058TIP3   OH2 6179   6.007   5.791   4.695
 2058TIP3    H1 6180   6.069   5.733   4.738
 2058TIP3    H2 6181   5.966   5.737   4.627
 2059TIP3   OH2 6182   3.207   2.397   1.906
 2059TIP3    H1 6183   3.190   2.353   1.989
 2059TIP3    H2 6184   3.248   2.480   1.931
 2060TIP3   OH2 6185   4.780   3.036   3.718
 2060TIP3    H1 6186   4.814   3.013   3.804
 2060TIP3    H2 6187   4.719   3.107   3.735
 2061TIP3   OH2 6188   2.870   4.909   1.026
 2061TIP3    H1 6189   2.810   4.946   1.091
 2061TIP3    H2 6190   2.861   4.814   1.037
 2062TIP3   OH2 6191   4.675   1.935   3.669
 2062TIP3    H1 6192   4.730   1.874   3.717
 2062TIP3    H2 6193   4.736   1.987   3.617
 2063TIP3   OH2 6194   3.410   2.377   2.136
 2063TIP3    H1 6195   3.383   2.447   2.195
 2063TIP3    H2 6196   3.341   2.311   2.145
 2064TIP3   OH2 6197   1.673   5.776   0.957
 2064TIP3    H1 6198   1.751   5.812   0.915
 2064TIP3    H2 6199   1.625   5.733   0.886
 2065TIP3   OH2 6200   5.384   0.326   2.827
 2065TIP3    H1 6201   5.429   0.270   2.763
 2065TIP3    H2 6202   5.442   0.402   2.836
 2066TIP3   OH2 6203   2.851   4.355   1.295
 2066TIP3    H1 6204   2.833   4.305   1.216
 2066TIP3    H2 6205   2.784   4.326   1.357
 2067TIP3   OH2 6206   4.019   0.902   0.137
 2067TIP3    H1 6207   4.093   0.897   0.198
 2067TIP3    H2 6208   4.029   0.825   0.082
 2068TIP3   OH2 6209   5.614   4.606   3.247
 2068TIP3    H1 6210   5.709   4.600   3.255
 2068TIP3    H2 6211   5.581   4.587   3.335
 2069TIP3   OH2 6212   3.478   0.228   3.634
 2069TIP3    H1 6213   3.543   0.278   3.684
 2069TIP3    H2 6214   3.464   0.279   3.555
 2070TIP3   OH2 6215   3.133   2.542   0.384
 2070TIP3    H1 6216   3.185   2.532   0.464
 2070TIP3    H2 6217   3.193   2.582   0.321
 2071TIP3   OH2 6218   3.731   1.787   2.594
 2071TIP3    H1 6219   3.758   1.775   2.503
 2071TIP3    H2 6220   3.712   1.881   2.601
 2072TIP3   OH2 6221   0.053   2.865   0.786
 2072TIP3    H1 6222  -0.024   2.850   0.733
 2072TIP3    H2 6223   0.052   2.794   0.851
 2073TIP3   OH2 6224   4.017   0.233   0.416
 2073TIP3    H1 6225   3.949   0.209   0.353
 2073TIP3    H2 6226   4.076   0.290   0.367
 2074TIP3   OH2 6227   6.042   0.393   4.627
 2074TIP3    H1 6228   5.993   0.329   4.576
 2074TIP3    H2 6229   5.981   0.422   4.695
 2075TIP3   OH2 6230   0.206   5.032   2.577
 2075TIP3    H1 6231   0.149   5.009   2.504
 2075TIP3    H2 6232   0.269   4.959   2.582
 2076TIP3   OH2 6233   5.929   0.114   0.744
 2076TIP3    H1 6234   5.850   0.060   0.753
 2076TIP3    H2 6235   6.001   0.053   0.762
 2077TIP3   OH2 6236   4.726   0.737   2.179
 2077TIP3    H1 6237   4.669   0.676   2.132
 2077TIP3    H2 6238   4.761   0.687   2.252
 2078TIP3   OH2 6239   2.401   1.004   3.227
 2078TIP3    H1 6240   2.374   1.089   3.260
 2078TIP3    H2 6241   2.321   0.952   3.222
 2079TIP3   OH2 6242   0.919   5.361   3.840
 2079TIP3    H1 6243   0.884   5.307   3.769
 2079TIP3    H2 6244   1.006   5.324   3.857
 2080TIP3   OH2 6245   2.359   2.020   2.309
 2080TIP3    H1 6246   2.365   1.933   2.270
 2080TIP3    H2 6247   2.423   2.020   2.380
 2081TIP3   OH2 6248   1.667   3.641   4.666
 2081TIP3    H1 6249   1.576   3.623   4.643
 2081TIP3    H2 6250   1.715   3.628   4.584
 2082TIP3   OH2 6251   1.410   5.512   3.038
 2082TIP3    H1 6252   1.459   5.447   3.088
 2082TIP3    H2 6253   1.320   5.503   3.070
 2083TIP3   OH2 6254   3.805   4.895   5.100
 2083TIP3    H1 6255   3.883   4.951   5.096
 2083TIP3    H2 6256   3.837   4.808   5.076
 2084TIP3   OH2 6257   1.938   1.597   4.382
 2084TIP3    H1 6258   2.019   1.627   4.340
 2084TIP3    H2 6259   1.871   1.607   4.314
 2085TIP3   OH2 6260   1.900   5.632   2.650
 2085TIP3    H1 6261   1.937   5.719   2.666
 2085TIP3    H2 6262   1.856   5.640   2.566
 2086TIP3   OH2 6263   3.273   2.272   3.768
 2086TIP3    H1 6264   3.250   2.363   3.784
 2086TIP3    H2 6265   3.365   2.266   3.793
 2087TIP3   OH2 6266   2.846   4.087   3.007
 2087TIP3    H1 6267   2.902   4.153   3.048
 2087TIP3    H2 6268   2.903   4.012   2.991
 2088TIP3   OH2 6269   4.694   2.248   1.540
 2088TIP3    H1 6270   4.640   2.272   1.464
 2088TIP3    H2 6271   4.740   2.169   1.512
 2089TIP3   OH2 6272   1.736   5.403   4.429
 2089TIP3    H1 6273   1.647   5.368   4.416
 2089TIP3    H2 6274   1.753   5.454   4.350
 2090TIP3   OH2 6275   5.289   4.404   3.279
 2090TIP3    H1 6276   5.363   4.407   3.218
 2090TIP3    H2 6277   5.253   4.492   3.277
 2091TIP3   OH2 6278   1.783   5.824   4.487
 2091TIP3    H1 6279   1.833   5.892   4.532
 2091TIP3    H2 6280   1.841   5.794   4.416
 2092TIP3   OH2 6281   3.636   2.058   2.868
 2092TIP3    H1 6282   3.696   2.129   2.846
 2092TIP3    H2 6283   3.608   2.077   2.958
 2093TIP3   OH2 6284   2.148   2.437   2.868
 2093TIP3    H1 6285   2.199   2.357   2.881
 2093TIP3    H2 6286   2.212   2.508   2.870
 2094TIP3   OH2 6287   2.714   0.660   3.067
 2094TIP3    H1 6288   2.620   0.677   3.064
 2094TIP3    H2 6289   2.755   0.739   3.030
 2095TIP3   OH2 6290   5.608   1.209   2.792
 2095TIP3    H1 6291   5.595   1.298   2.822
 2095TIP3    H2 6292   5.563   1.205   2.708
 2096TIP3   OH2 6293   3.749   3.421  -0.023
 2096TIP3    H1 6294   3.702   3.365  -0.085
 2096TIP3    H2 6295   3.841   3.399  -0.035
 2097TIP3   OH2 6296   4.297   3.990   2.134
 2097TIP3    H1 6297   4.250   3.910   2.159
 2097TIP3    H2 6298   4.292   4.045   2.212
 2098TIP3   OH2 6299   0.541   1.888   0.600
 2098TIP3    H1 6300   0.527   1.858   0.510
 2098TIP3    H2 6301   0.613   1.834   0.632
 2099TIP3   OH2 6302   2.423   3.836   3.790
 2099TIP3    H1 6303   2.497   3.796   3.744
 2099TIP3    H2 6304   2.459   3.915   3.831
 2100TIP3   OH2 6305   4.360   5.239   0.877
 2100TIP3    H1 6306   4.335   5.147   0.868
 2100TIP3    H2 6307   4.328   5.280   0.796
 2101TIP3   OH2 6308   5.419   4.638   1.630
 2101TIP3    H1 6309   5.343   4.667   1.580
 2101TIP3    H2 6310   5.481   4.711   1.623
 2102TIP3   OH2 6311   1.125   5.491   0.665
 2102TIP3    H1 6312   1.200   5.441   0.636
 2102TIP3    H2 6313   1.107   5.459   0.754
 2103TIP3   OH2 6314   5.886   5.259   1.396
 2103TIP3    H1 6315   5.973   5.226   1.419
 2103TIP3    H2 6316   5.826   5.189   1.424
 2104TIP3   OH2 6317   4.144   5.692   1.976
 2104TIP3    H1 6318   4.206   5.623   1.999
 2104TIP3    H2 6319   4.076   5.648   1.925
 2105TIP3   OH2 6320   4.721   0.052   3.160
 2105TIP3    H1 6321   4.803   0.007   3.137
 2105TIP3    H2 6322   4.735   0.142   3.131
 2106TIP3   OH2 6323   3.898   2.893   0.478
 2106TIP3    H1 6324   3.989   2.867   0.495
 2106TIP3    H2 6325   3.906   2.972   0.425
 2107TIP3   OH2 6326   4.119   2.608   2.880
 2107TIP3    H1 6327   4.084   2.519   2.881
 2107TIP3    H2 6328   4.211   2.598   2.906
 2108TIP3   OH2 6329   1.414   1.066   2.146
 2108TIP3    H1 6330   1.412   1.002   2.218
 2108TIP3    H2 6331   1.504   1.060   2.112
 2109TIP3   OH2 6332   3.089   3.103   3.344
 2109TIP3    H1 6333   3.183   3.089   3.350
 2109TIP3    H2 6334   3.072   3.179   3.400
 2110TIP3   OH2 6335   1.863   4.480   1.597
 2110TIP3    H1 6336   1.798   4.497   1.665
 2110TIP3    H2 6337   1.895   4.392   1.615
 2111TIP3   OH2 6338   3.077   1.522   0.383
 2111TIP3    H1 6339   3.137   1.548   0.452
 2111TIP3    H2 6340   2.994   1.566   0.405
 2112TIP3   OH2 6341   5.344   5.245   3.974
 2112TIP3    H1 6342   5.337   5.151   3.992
 2112TIP3    H2 6343   5.254   5.272   3.953
 2113TIP3   OH2 6344   3.737   2.186   0.428
 2113TIP3    H1 6345   3.772   2.104   0.462
 2113TIP3    H2 6346   3.797   2.210   0.357
 2114TIP3   OH2 6347   0.175   0.073   0.742
 2114TIP3    H1 6348   0.217   0.158   0.734
 2114TIP3    H2 6349   0.247   0.013   0.763
 2115TIP3   OH2 6350   3.926   2.244   1.545
 2115TIP3    H1 6351   3.968   2.235   1.460
 2115TIP3    H2 6352   3.878   2.162   1.558
 2116TIP3   OH2 6353   0.390   4.658   0.137
 2116TIP3    H1 6354   0.362   4.577   0.094
 2116TIP3    H2 6355   0.310   4.710   0.144
 2117TIP3   OH2 6356   1.919   4.670   4.829
 2117TIP3    H1 6357   1.877   4.753   4.854
 2117TIP3    H2 6358   1.857   4.603   4.856
 2118TIP3   OH2 6359   5.443   4.838   4.638
 2118TIP3    H1 6360   5.448   4.878   4.552
 2118TIP3    H2 6361   5.531   4.804   4.655
 2119TIP3   OH2 6362   1.374   0.228   2.289
 2119TIP3    H1 6363   1.413   0.309   2.256
 2119TIP3    H2 6364   1.287   0.225   2.248
 2120TIP3   OH2 6365   4.120   0.766   3.283
 2120TIP3    H1 6366   4.099   0.780   3.190
 2120TIP3    H2 6367   4.041   0.730   3.321
 2121TIP3   OH2 6368   3.707   4.691   1.784
 2121TIP3    H1 6369   3.723   4.599   1.765
 2121TIP3    H2 6370   3.699   4.732   1.698
 2122TIP3   OH2 6371   4.549   5.739   2.250
 2122TIP3    H1 6372   4.559   5.834   2.255
 2122TIP3    H2 6373   4.603   5.706   2.321
 2123TIP3   OH2 6374   2.639   2.718   0.878
 2123TIP3    H1 6375   2.719   2.731   0.928
 2123TIP3    H2 6376   2.665   2.731   0.787
 2124TIP3   OH2 6377   5.913   2.962   1.112
 2124TIP3    H1 6378   5.931   2.871   1.137
 2124TIP3    H2 6379   5.989   2.988   1.060
 2125TIP3   OH2 6380   6.208   3.466   4.104
 2125TIP3    H1 6381   6.250   3.547   4.077
 2125TIP3    H2 6382   6.231   3.404   4.034
 2126TIP3   OH2 6383   3.538   5.121   0.925
 2126TIP3    H1 6384   3.599   5.157   0.861
 2126TIP3    H2 6385   3.572   5.034   0.946
 2127TIP3   OH2 6386   4.838   0.730   0.679
 2127TIP3    H1 6387   4.823   0.637   0.664
 2127TIP3    H2 6388   4.922   0.734   0.725
 2128TIP3   OH2 6389   2.615   4.044   4.871
 2128TIP3    H1 6390   2.537   4.003   4.909
 2128TIP3    H2 6391   2.673   4.060   4.945
 2129TIP3   OH2 6392   1.595   0.059   3.648
 2129TIP3    H1 6393   1.575   0.064   3.555
 2129TIP3    H2 6394   1.552  -0.021   3.678
 2130TIP3   OH2 6395   1.934   3.537   2.886
 2130TIP3    H1 6396   1.923   3.517   2.979
 2130TIP3    H2 6397   1.852   3.512   2.846
 2131TIP3   OH2 6398   5.644   3.113   3.095
 2131TIP3    H1 6399   5.577   3.053   3.128
 2131TIP3    H2 6400   5.687   3.146   3.173
 2132TIP3   OH2 6401   3.550   4.841   0.692
 2132TIP3    H1 6402   3.637   4.811   0.667
 2132TIP3    H2 6403   3.531   4.796   0.775
 2133TIP3   OH2 6404   3.527   5.899   1.719
 2133TIP3    H1 6405   3.453   5.872   1.773
 2133TIP3    H2 6406   3.564   5.817   1.686
 2134TIP3   OH2 6407   5.324   5.319   2.638
 2134TIP3    H1 6408   5.402   5.374   2.630
 2134TIP3    H2 6409   5.358   5.229   2.635
 2135TIP3   OH2 6410   6.260   5.510   4.535
 2135TIP3    H1 6411   6.306   5.463   4.466
 2135TIP3    H2 6412   6.295   5.599   4.531
 2136TIP3   OH2 6413   0.350   4.117   1.686
 2136TIP3    H1 6414   0.313   4.138   1.600
 2136TIP3    H2 6415   0.380   4.027   1.678
 2137TIP3   OH2 6416   3.355   0.814   4.065
 2137TIP3    H1 6417   3.447   0.815   4.037
 2137TIP3    H2 6418   3.359   0.833   4.159
 2138TIP3   OH2 6419   3.392   2.755   0.652
 2138TIP3    H1 6420   3.306   2.797   0.659
 2138TIP3    H2 6421   3.452   2.826   0.628
 2139TIP3   OH2 6422   0.859   2.727   3.980
 2139TIP3    H1 6423   0.878   2.738   4.073
 2139TIP3    H2 6424   0.767   2.752   3.972
 2140TIP3   OH2 6425   4.641   4.900   4.861
 2140TIP3    H1 6426   4.560   4.934   4.821
 2140TIP3    H2 6427   4.706   4.968   4.844
 2141TIP3   OH2 6428   2.227   0.829   3.523
 2141TIP3    H1 6429   2.262   0.876   3.599
 2141TIP3    H2 6430   2.161   0.771   3.560
 2142TIP3   OH2 6431   2.728   3.244   2.520
 2142TIP3    H1 6432   2.808   3.208   2.558
 2142TIP3    H2 6433   2.722   3.206   2.433
 2143TIP3   OH2 6434   4.278   4.485   1.477
 2143TIP3    H1 6435   4.320   4.433   1.408
 2143TIP3    H2 6436   4.258   4.568   1.435
 2144TIP3   OH2 6437   1.601   5.733   3.092
 2144TIP3    H1 6438   1.544   5.692   3.027
 2144TIP3    H2 6439   1.689   5.715   3.061
 2145TIP3   OH2 6440   3.162   1.512   5.016
 2145TIP3    H1 6441   3.203   1.426   5.004
 2145TIP3    H2 6442   3.233   1.570   5.043
 2146TIP3   OH2 6443   2.754   3.827   0.731
 2146TIP3    H1 6444   2.694   3.775   0.785
 2146TIP3    H2 6445   2.785   3.766   0.664
 2147TIP3   OH2 6446   2.101   3.704   0.143
 2147TIP3    H1 6447   2.151   3.782   0.165
 2147TIP3    H2 6448   2.059   3.679   0.226
 2148TIP3   OH2 6449   0.179   2.951   3.356
 2148TIP3    H1 6450   0.129   2.921   3.281
 2148TIP3    H2 6451   0.142   3.037   3.377
 2149TIP3   OH2 6452   5.133   3.955   0.157
 2149TIP3    H1 6453   5.092   4.040   0.174
 2149TIP3    H2 6454   5.169   3.928   0.241
 2150TIP3   OH2 6455   6.225   2.460   0.481
 2150TIP3    H1 6456   6.158   2.394   0.500
 2150TIP3    H2 6457   6.286   2.416   0.421
 2151TIP3   OH2 6458   3.110   5.806   0.129
 2151TIP3    H1 6459   3.196   5.764   0.124
 2151TIP3    H2 6460   3.088   5.804   0.223
 2152TIP3   OH2 6461   0.529   4.762   2.433
 2152TIP3    H1 6462   0.563   4.769   2.344
 2152TIP3    H2 6463   0.576   4.830   2.482
 2153TIP3   OH2 6464   2.094   4.340   0.109
 2153TIP3    H1 6465   2.142   4.349   0.027
 2153TIP3    H2 6466   2.012   4.387   0.095
 2154TIP3   OH2 6467   5.600   0.762   1.042
 2154TIP3    H1 6468   5.585   0.857   1.035
 2154TIP3    H2 6469   5.691   0.751   1.016
 2155TIP3   OH2 6470   5.498   1.097   4.232
 2155TIP3    H1 6471   5.448   1.142   4.301
 2155TIP3    H2 6472   5.590   1.111   4.257
 2156TIP3   OH2 6473   5.307   0.091   0.709
 2156TIP3    H1 6474   5.218   0.123   0.725
 2156TIP3    H2 6475   5.358   0.168   0.687
 2157TIP3   OH2 6476   0.654   0.242   0.662
 2157TIP3    H1 6477   0.727   0.290   0.700
 2157TIP3    H2 6478   0.633   0.175   0.727
 2158TIP3   OH2 6479   4.705   4.078   0.416
 2158TIP3    H1 6480   4.706   4.118   0.330
 2158TIP3    H2 6481   4.793   4.041   0.426
 2159TIP3   OH2 6482   5.104   4.030   4.222
 2159TIP3    H1 6483   5.020   4.031   4.268
 2159TIP3    H2 6484   5.158   4.095   4.268
 2160TIP3   OH2 6485   3.234   3.352   1.129
 2160TIP3    H1 6486   3.230   3.268   1.083
 2160TIP3    H2 6487   3.153   3.355   1.180
 2161TIP3   OH2 6488   1.461   4.742   1.321
 2161TIP3    H1 6489   1.405   4.803   1.271
 2161TIP3    H2 6490   1.546   4.748   1.278
 2162TIP3   OH2 6491   2.657   2.766   1.535
 2162TIP3    H1 6492   2.624   2.723   1.614
 2162TIP3    H2 6493   2.618   2.853   1.536
 2163TIP3   OH2 6494   0.869   0.338   0.798
 2163TIP3    H1 6495   0.920   0.403   0.750
 2163TIP3    H2 6496   0.855   0.377   0.884
 2164TIP3   OH2 6497   4.253   0.106   3.896
 2164TIP3    H1 6498   4.194   0.182   3.900
 2164TIP3    H2 6499   4.200   0.032   3.925
 2165TIP3   OH2 6500   1.432   4.099   0.855
 2165TIP3    H1 6501   1.371   4.172   0.867
 2165TIP3    H2 6502   1.401   4.031   0.914
 2166TIP3   OH2 6503   4.199   0.187   4.246
 2166TIP3    H1 6504   4.238   0.217   4.164
 2166TIP3    H2 6505   4.247   0.107   4.268
 2167TIP3   OH2 6506   3.472   3.526   2.615
 2167TIP3    H1 6507   3.481   3.431   2.603
 2167TIP3    H2 6508   3.558   3.561   2.589
 2168TIP3   OH2 6509   2.699   1.490   3.730
 2168TIP3    H1 6510   2.677   1.496   3.823
 2168TIP3    H2 6511   2.754   1.567   3.714
 2169TIP3   OH2 6512   3.289   4.233   1.540
 2169TIP3    H1 6513   3.346   4.309   1.528
 2169TIP3    H2 6514   3.236   4.231   1.461
 2170TIP3   OH2 6515   2.132   5.311   1.559
 2170TIP3    H1 6516   2.198   5.365   1.603
 2170TIP3    H2 6517   2.049   5.356   1.576
 2171TIP3   OH2 6518   5.752   1.115   1.770
 2171TIP3    H1 6519   5.831   1.158   1.800
 2171TIP3    H2 6520   5.683   1.180   1.780
 2172TIP3   OH2 6521   1.298   3.010   2.475
 2172TIP3    H1 6522   1.328   3.073   2.410
 2172TIP3    H2 6523   1.372   2.997   2.534
 2173TIP3   OH2 6524   3.591   5.093   2.563
 2173TIP3    H1 6525   3.615   5.001   2.572
 2173TIP3    H2 6526   3.646   5.139   2.627
 2174TIP3   OH2 6527   5.196   0.777   0.688
 2174TIP3    H1 6528   5.206   0.685   0.664
 2174TIP3    H2 6529   5.161   0.776   0.777
 2175TIP3   OH2 6530   2.525   2.134   0.689
 2175TIP3    H1 6531   2.482   2.057   0.727
 2175TIP3    H2 6532   2.458   2.176   0.637
 2176TIP3   OH2 6533   2.850   4.793   2.313
 2176TIP3    H1 6534   2.896   4.797   2.398
 2176TIP3    H2 6535   2.757   4.797   2.336
 2177TIP3   OH2 6536   2.843   2.000   0.394
 2177TIP3    H1 6537   2.841   2.045   0.478
 2177TIP3    H2 6538   2.751   1.980   0.374
 2178TIP3   OH2 6539   2.248   5.372   3.220
 2178TIP3    H1 6540   2.265   5.298   3.278
 2178TIP3    H2 6541   2.253   5.336   3.132
 2179TIP3   OH2 6542   3.723   1.475   2.655
 2179TIP3    H1 6543   3.690   1.559   2.688
 2179TIP3    H2 6544   3.818   1.486   2.654
 2180TIP3   OH2 6545   6.312   0.818   4.038
 2180TIP3    H1 6546   6.298   0.737   3.989
 2180TIP3    H2 6547   6.299   0.793   4.130
 2181TIP3   OH2 6548   4.264   2.854   1.557
 2181TIP3    H1 6549   4.344   2.899   1.527
 2181TIP3    H2 6550   4.220   2.919   1.612
 2182TIP3   OH2 6551   0.272   2.604   2.804
 2182TIP3    H1 6552   0.211   2.624   2.733
 2182TIP3    H2 6553   0.285   2.509   2.798
 2183TIP3   OH2 6554   2.264   4.868   4.753
 2183TIP3    H1 6555   2.223   4.815   4.821
 2183TIP3    H2 6556   2.193   4.918   4.714
 2184TIP3   OH2 6557   0.388   3.488   3.027
 2184TIP3    H1 6558   0.369   3.562   3.086
 2184TIP3    H2 6559   0.350   3.514   2.943
 2185TIP3   OH2 6560   5.055   4.930   2.511
 2185TIP3    H1 6561   4.967   4.895   2.511
 2185TIP3    H2 6562   5.043   5.025   2.505
 2186TIP3   OH2 6563   2.954   5.578   3.920
 2186TIP3    H1 6564   2.963   5.506   3.857
 2186TIP3    H2 6565   2.912   5.538   3.996
 2187TIP3   OH2 6566   3.651   2.950   3.643
 2187TIP3    H1 6567   3.719   2.882   3.652
 2187TIP3    H2 6568   3.662   3.004   3.721
 2188TIP3   OH2 6569   5.491  -0.006   2.012
 2188TIP3    H1 6570   5.448  -0.041   2.090
 2188TIP3    H2 6571   5.557  -0.072   1.990
 2189TIP3   OH2 6572   0.509   0.879   0.450
 2189TIP3    H1 6573   0.549   0.902   0.534
 2189TIP3    H2 6574   0.535   0.789   0.435
 2190TIP3   OH2 6575   5.336   3.551   4.575
 2190TIP3    H1 6576   5.344   3.498   4.495
 2190TIP3    H2 6577   5.246   3.537   4.604
 2191TIP3   OH2 6578   0.341   3.952   3.536
 2191TIP3    H1 6579   0.261   3.901   3.549
 2191TIP3    H2 6580   0.359   3.945   3.442
 2192TIP3   OH2 6581   1.134   3.911   0.116
 2192TIP3    H1 6582   1.077   3.929   0.191
 2192TIP3    H2 6583   1.220   3.897   0.155
 2193TIP3   OH2 6584   1.388   4.543   3.942
 2193TIP3    H1 6585   1.431   4.483   3.881
 2193TIP3    H2 6586   1.295   4.540   3.917
 2194TIP3   OH2 6587   0.743   5.710   2.436
 2194TIP3    H1 6588   0.673   5.771   2.460
 2194TIP3    H2 6589   0.804   5.763   2.386
 2195TIP3   OH2 6590   4.011   3.818   3.287
 2195TIP3    H1 6591   4.102   3.794   3.271
 2195TIP3    H2 6592   3.989   3.776   3.370
 2196TIP3   OH2 6593   2.560   3.026   0.554
 2196TIP3    H1 6594   2.637   3.071   0.519
 2196TIP3    H2 6595   2.530   3.082   0.626
 2197TIP3   OH2 6596   4.461   2.561   3.487
 2197TIP3    H1 6597   4.405   2.564   3.410
 2197TIP3    H2 6598   4.448   2.473   3.523
 2198TIP3   OH2 6599   5.683   0.693   3.595
 2198TIP3    H1 6600   5.714   0.610   3.630
 2198TIP3    H2 6601   5.672   0.677   3.501
 2199TIP3   OH2 6602   2.184   2.983   3.132
 2199TIP3    H1 6603   2.203   3.045   3.202
 2199TIP3    H2 6604   2.125   2.918   3.172
 2200TIP3   OH2 6605   1.255   1.244   4.806
 2200TIP3    H1 6606   1.170   1.250   4.851
 2200TIP3    H2 6607   1.301   1.324   4.832
 2201TIP3   OH2 6608   0.001   5.768   4.151
 2201TIP3    H1 6609   0.050   5.849   4.157
 2201TIP3    H2 6610  -0.037   5.757   4.239
 2202TIP3   OH2 6611   2.786   1.569   0.362
 2202TIP3    H1 6612   2.715   1.578   0.426
 2202TIP3    H2 6613   2.759   1.495   0.307
 2203TIP3   OH2 6614   3.166   4.266   2.398
 2203TIP3    H1 6615   3.117   4.213   2.334
 2203TIP3    H2 6616   3.203   4.337   2.346
 2204TIP3   OH2 6617   3.126   2.019   2.838
 2204TIP3    H1 6618   3.202   2.076   2.823
 2204TIP3    H2 6619   3.054   2.079   2.858
 2205TIP3   OH2 6620   3.948   5.359   1.347
 2205TIP3    H1 6621   3.860   5.325   1.332
 2205TIP3    H2 6622   3.971   5.330   1.435
 2206TIP3   OH2 6623   1.760   0.451   2.232
 2206TIP3    H1 6624   1.838   0.426   2.183
 2206TIP3    H2 6625   1.748   0.380   2.296
 2207TIP3   OH2 6626   2.950   5.680   2.160
 2207TIP3    H1 6627   3.026   5.685   2.218
 2207TIP3    H2 6628   2.946   5.766   2.118
 2208TIP3   OH2 6629   3.146   2.250   0.238
 2208TIP3    H1 6630   3.093   2.288   0.168
 2208TIP3    H2 6631   3.145   2.316   0.307
 2209TIP3   OH2 6632   1.938   1.902   2.707
 2209TIP3    H1 6633   1.915   1.963   2.777
 2209TIP3    H2 6634   1.869   1.835   2.709
 2210TIP3   OH2 6635   5.118   4.049   0.545
 2210TIP3    H1 6636   5.159   4.008   0.469
 2210TIP3    H2 6637   5.115   3.980   0.611
 2211TIP3   OH2 6638   4.760   5.081   0.006
 2211TIP3    H1 6639   4.680   5.133   0.009
 2211TIP3    H2 6640   4.813   5.115   0.079
 2212TIP3   OH2 6641   5.285   5.833   1.005
 2212TIP3    H1 6642   5.312   5.867   1.090
 2212TIP3    H2 6643   5.202   5.876   0.987
 2213TIP3   OH2 6644   1.454   1.568   2.251
 2213TIP3    H1 6645   1.398   1.491   2.249
 2213TIP3    H2 6646   1.542   1.534   2.231
 2214TIP3   OH2 6647   3.588   0.278   1.062
 2214TIP3    H1 6648   3.517   0.225   1.026
 2214TIP3    H2 6649   3.635   0.311   0.985
 2215TIP3   OH2 6650   4.459   4.302   3.691
 2215TIP3    H1 6651   4.467   4.353   3.771
 2215TIP3    H2 6652   4.539   4.249   3.688
 2216TIP3   OH2 6653   1.996   2.681   2.978
 2216TIP3    H1 6654   1.926   2.616   2.980
 2216TIP3    H2 6655   2.070   2.636   2.938
 2217TIP3   OH2 6656   5.760   5.713   4.021
 2217TIP3    H1 6657   5.808   5.794   4.003
 2217TIP3    H2 6658   5.673   5.727   3.982
 2218TIP3   OH2 6659   5.639   5.956   1.323
 2218TIP3    H1 6660   5.719   5.965   1.271
 2218TIP3    H2 6661   5.668   5.921   1.407
 2219TIP3   OH2 6662   5.470   3.285   1.990
 2219TIP3    H1 6663   5.380   3.261   1.966
 2219TIP3    H2 6664   5.471   3.381   1.988
 2220TIP3   OH2 6665   6.138   1.886   1.663
 2220TIP3    H1 6666   6.056   1.902   1.617
 2220TIP3    H2 6667   6.146   1.959   1.724
 2221TIP3   OH2 6668   1.447   5.839   3.487
 2221TIP3    H1 6669   1.461   5.798   3.402
 2221TIP3    H2 6670   1.460   5.932   3.472
 2222TIP3   OH2 6671   5.821   0.496   2.872
 2222TIP3    H1 6672   5.852   0.583   2.896
 2222TIP3    H2 6673   5.754   0.476   2.937
 2223TIP3   OH2 6674   0.309   5.912   3.837
 2223TIP3    H1 6675   0.261   5.965   3.774
 2223TIP3    H2 6676   0.399   5.912   3.805
 2224TIP3   OH2 6677   1.845   2.211   3.108
 2224TIP3    H1 6678   1.843   2.241   3.017
 2224TIP3    H2 6679   1.826   2.290   3.160
 2225TIP3   OH2 6680   3.690   1.451   3.966
 2225TIP3    H1 6681   3.725   1.539   3.978
 2225TIP3    H2 6682   3.729   1.399   4.036
 2226TIP3   OH2 6683   4.895   2.294   5.111
 2226TIP3    H1 6684   4.887   2.366   5.048
 2226TIP3    H2 6685   4.822   2.235   5.090
 2227TIP3   OH2 6686   5.222   5.692   3.009
 2227TIP3    H1 6687   5.289   5.737   2.956
 2227TIP3    H2 6688   5.212   5.607   2.968
 2228TIP3   OH2 6689   3.815   5.637   4.673
 2228TIP3    H1 6690   3.847   5.727   4.664
 2228TIP3    H2 6691   3.860   5.603   4.750
 2229TIP3   OH2 6692   0.547   3.632   0.345
 2229TIP3    H1 6693   0.592   3.692   0.405
 2229TIP3    H2 6694   0.523   3.686   0.270
 2230TIP3   OH2 6695   1.115   3.287   2.058
 2230TIP3    H1 6696   1.110   3.345   1.982
 2230TIP3    H2 6697   1.164   3.337   2.123
 2231TIP3   OH2 6698   2.808   2.434   4.656
 2231TIP3    H1 6699   2.750   2.507   4.681
 2231TIP3    H2 6700   2.811   2.378   4.734
 2232TIP3   OH2 6701   4.615   2.187   1.797
 2232TIP3    H1 6702   4.656   2.224   1.719
 2232TIP3    H2 6703   4.556   2.256   1.828
 2233TIP3   OH2 6704   6.240   4.242   4.119
 2233TIP3    H1 6705   6.162   4.220   4.170
 2233TIP3    H2 6706   6.234   4.336   4.105
 2234TIP3   OH2 6707   0.668   1.862   3.755
 2234TIP3    H1 6708   0.689   1.950   3.787
 2234TIP3    H2 6709   0.740   1.807   3.785
 2235TIP3   OH2 6710   2.631   2.206   2.834
 2235TIP3    H1 6711   2.573   2.267   2.789
 2235TIP3    H2 6712   2.582   2.123   2.835
 2236TIP3   OH2 6713   1.155   2.921   3.431
 2236TIP3    H1 6714   1.082   2.928   3.494
 2236TIP3    H2 6715   1.230   2.897   3.485
 2237TIP3   OH2 6716   3.991   3.599   4.807
 2237TIP3    H1 6717   4.023   3.689   4.814
 2237TIP3    H2 6718   4.066   3.544   4.829
 2238TIP3   OH2 6719   0.291   4.522   4.518
 2238TIP3    H1 6720   0.254   4.436   4.534
 2238TIP3    H2 6721   0.240   4.558   4.445
 2239TIP3   OH2 6722   6.270   1.060   1.731
 2239TIP3    H1 6723   6.339   1.112   1.773
 2239TIP3    H2 6724   6.262   0.982   1.787
 2240TIP3   OH2 6725   3.750   1.677   2.304
 2240TIP3    H1 6726   3.845   1.684   2.313
 2240TIP3    H2 6727   3.730   1.587   2.329
 2241TIP3   OH2 6728   5.293   4.867   5.043
 2241TIP3    H1 6729   5.383   4.843   5.019
 2241TIP3    H2 6730   5.301   4.903   5.131
 2242TIP3   OH2 6731   4.718   1.071   1.162
 2242TIP3    H1 6732   4.625   1.050   1.150
 2242TIP3    H2 6733   4.746   1.014   1.233
 2243TIP3   OH2 6734   2.223   5.282   4.440
 2243TIP3    H1 6735   2.202   5.217   4.374
 2243TIP3    H2 6736   2.239   5.363   4.390
 2244TIP3   OH2 6737   5.691   3.604   1.989
 2244TIP3    H1 6738   5.724   3.686   2.024
 2244TIP3    H2 6739   5.720   3.537   2.050
 2245TIP3   OH2 6740   1.980   3.825   2.711
 2245TIP3    H1 6741   2.029   3.788   2.784
 2245TIP3    H2 6742   2.030   3.903   2.685
 2246TIP3   OH2 6743   5.474   1.675   3.584
 2246TIP3    H1 6744   5.455   1.619   3.659
 2246TIP3    H2 6745   5.428   1.634   3.510
 2247TIP3   OH2 6746   4.620   3.077   5.190
 2247TIP3    H1 6747   4.641   3.166   5.161
 2247TIP3    H2 6748   4.705   3.039   5.214
 2248TIP3   OH2 6749   3.731   4.744   3.758
 2248TIP3    H1 6750   3.645   4.704   3.772
 2248TIP3    H2 6751   3.713   4.837   3.749
 2249TIP3   OH2 6752   0.055   4.320   1.507
 2249TIP3    H1 6753   0.045   4.387   1.440
 2249TIP3    H2 6754  -0.033   4.285   1.520
 2250TIP3   OH2 6755   5.528   3.381   3.726
 2250TIP3    H1 6756   5.523   3.470   3.691
 2250TIP3    H2 6757   5.436   3.354   3.736
 2251TIP3   OH2 6758   4.297   3.511   0.483
 2251TIP3    H1 6759   4.359   3.440   0.466
 2251TIP3    H2 6760   4.271   3.500   0.574
 2252TIP3   OH2 6761   2.244   4.125   1.643
 2252TIP3    H1 6762   2.277   4.046   1.600
 2252TIP3    H2 6763   2.174   4.156   1.586
 2253TIP3   OH2 6764   2.925   4.610   3.521
 2253TIP3    H1 6765   2.860   4.623   3.452
 2253TIP3    H2 6766   2.909   4.680   3.583
 2254TIP3   OH2 6767   5.708   0.979   0.647
 2254TIP3    H1 6768   5.629   0.999   0.596
 2254TIP3    H2 6769   5.704   0.884   0.661
 2255TIP3   OH2 6770   2.509   0.513   2.169
 2255TIP3    H1 6771   2.562   0.592   2.168
 2255TIP3    H2 6772   2.538   0.463   2.093
 2256TIP3   OH2 6773   0.819   0.236   2.907
 2256TIP3    H1 6774   0.730   0.270   2.898
 2256TIP3    H2 6775   0.815   0.147   2.872
 2257TIP3   OH2 6776   3.284   1.238   5.003
 2257TIP3    H1 6777   3.283   1.152   5.046
 2257TIP3    H2 6778   3.348   1.289   5.053
 2258TIP3   OH2 6779   1.893   2.297   2.830
 2258TIP3    H1 6780   1.859   2.309   2.741
 2258TIP3    H2 6781   1.970   2.354   2.833
 2259TIP3   OH2 6782   5.398   3.591   2.764
 2259TIP3    H1 6783   5.442   3.653   2.821
 2259TIP3    H2 6784   5.460   3.575   2.692
 2260TIP3   OH2 6785   4.242   5.880   1.820
 2260TIP3    H1 6786   4.224   5.805   1.878
 2260TIP3    H2 6787   4.335   5.898   1.835
 2261TIP3   OH2 6788   4.088   0.460   2.935
 2261TIP3    H1 6789   4.150   0.429   3.001
 2261TIP3    H2 6790   4.135   0.450   2.852
 2262TIP3   OH2 6791   1.531   4.554   1.636
 2262TIP3    H1 6792   1.529   4.542   1.731
 2262TIP3    H2 6793   1.577   4.636   1.623
 2263TIP3   OH2 6794   5.578   5.003   5.121
 2263TIP3    H1 6795   5.667   5.037   5.128
 2263TIP3    H2 6796   5.583   4.932   5.057
 2264TIP3   OH2 6797   4.611   1.282   3.144
 2264TIP3    H1 6798   4.628   1.349   3.078
 2264TIP3    H2 6799   4.659   1.312   3.221
 2265TIP3   OH2 6800   1.866   1.015   0.789
 2265TIP3    H1 6801   1.797   1.013   0.855
 2265TIP3    H2 6802   1.895   0.924   0.783
 2266TIP3   OH2 6803   1.992   3.945   4.192
 2266TIP3    H1 6804   1.958   3.871   4.142
 2266TIP3    H2 6805   1.917   3.976   4.243
 2267TIP3   OH2 6806   6.101   2.423   2.903
 2267TIP3    H1 6807   6.034   2.473   2.950
 2267TIP3    H2 6808   6.179   2.430   2.958
 2268TIP3   OH2 6809   5.760   2.354   0.218
 2268TIP3    H1 6810   5.759   2.261   0.241
 2268TIP3    H2 6811   5.776   2.399   0.301
 2269TIP3   OH2 6812   0.453   3.858   1.158
 2269TIP3    H1 6813   0.469   3.865   1.064
 2269TIP3    H2 6814   0.524   3.908   1.199
 2270TIP3   OH2 6815   0.316   3.006   5.063
 2270TIP3    H1 6816   0.236   3.024   5.112
 2270TIP3    H2 6817   0.375   3.077   5.086
 2271TIP3   OH2 6818   1.086   3.505   3.052
 2271TIP3    H1 6819   1.147   3.436   3.027
 2271TIP3    H2 6820   1.113   3.531   3.140
 2272TIP3   OH2 6821   4.428   0.211   0.856
 2272TIP3    H1 6822   4.421   0.259   0.774
 2272TIP3    H2 6823   4.354   0.242   0.908
 2273TIP3   OH2 6824   1.722   0.211   3.839
 2273TIP3    H1 6825   1.714   0.142   3.772
 2273TIP3    H2 6826   1.688   0.171   3.919
 2274TIP3   OH2 6827   4.564   5.629   4.426
 2274TIP3    H1 6828   4.644   5.620   4.374
 2274TIP3    H2 6829   4.493   5.622   4.363
 2275TIP3   OH2 6830   0.999   4.496   4.162
 2275TIP3    H1 6831   1.074   4.510   4.220
 2275TIP3    H2 6832   0.931   4.553   4.195
 2276TIP3   OH2 6833   3.084   2.883   4.250
 2276TIP3    H1 6834   3.019   2.919   4.190
 2276TIP3    H2 6835   3.035   2.819   4.303
 2277TIP3   OH2 6836   3.322   1.486   0.616
 2277TIP3    H1 6837   3.343   1.556   0.677
 2277TIP3    H2 6838   3.352   1.406   0.658
 2278TIP3   OH2 6839   3.887   4.385   0.896
 2278TIP3    H1 6840   3.935   4.377   0.814
 2278TIP3    H2 6841   3.795   4.373   0.872
 2279TIP3   OH2 6842   3.768   5.565   0.125
 2279TIP3    H1 6843   3.860   5.550   0.103
 2279TIP3    H2 6844   3.734   5.479   0.146
 2280TIP3   OH2 6845   0.144   1.444   3.552
 2280TIP3    H1 6846   0.051   1.422   3.549
 2280TIP3    H2 6847   0.168   1.464   3.461
 2281TIP3   OH2 6848   3.063   0.947   0.633
 2281TIP3    H1 6849   2.975   0.932   0.601
 2281TIP3    H2 6850   3.058   1.030   0.680
 2282TIP3   OH2 6851   5.202   1.593   2.691
 2282TIP3    H1 6852   5.135   1.661   2.701
 2282TIP3    H2 6853   5.170   1.520   2.744
 2283TIP3   OH2 6854   5.352   4.642   2.312
 2283TIP3    H1 6855   5.349   4.610   2.222
 2283TIP3    H2 6856   5.308   4.727   2.308
 2284TIP3   OH2 6857   5.974   2.485   3.871
 2284TIP3    H1 6858   5.943   2.401   3.904
 2284TIP3    H2 6859   5.906   2.547   3.896
 2285TIP3   OH2 6860   6.217   0.028   3.613
 2285TIP3    H1 6861   6.251   0.054   3.699
 2285TIP3    H2 6862   6.129  -0.003   3.630
 2286TIP3   OH2 6863   4.045   5.336   0.653
 2286TIP3    H1 6864   3.965   5.383   0.630
 2286TIP3    H2 6865   4.116   5.396   0.632
 2287TIP3   OH2 6866   1.002   3.023   1.304
 2287TIP3    H1 6867   1.014   2.958   1.372
 2287TIP3    H2 6868   1.047   2.987   1.228
 2288TIP3   OH2 6869   3.184   3.785   4.505
 2288TIP3    H1 6870   3.184   3.799   4.599
 2288TIP3    H2 6871   3.120   3.847   4.471
 2289TIP3   OH2 6872   0.663   4.155   4.861
 2289TIP3    H1 6873   0.682   4.114   4.777
 2289TIP3    H2 6874   0.611   4.233   4.839
 2290TIP3   OH2 6875   4.135   1.434   0.081
 2290TIP3    H1 6876   4.093   1.418   0.166
 2290TIP3    H2 6877   4.062   1.452   0.022
 2291TIP3   OH2 6878   3.404   4.382   1.017
 2291TIP3    H1 6879   3.355   4.440   1.075
 2291TIP3    H2 6880   3.418   4.302   1.069
 2292TIP3   OH2 6881   1.106   2.706   2.961
 2292TIP3    H1 6882   1.165   2.730   2.890
 2292TIP3    H2 6883   1.023   2.749   2.940
 2293TIP3   OH2 6884   3.434   0.592   0.172
 2293TIP3    H1 6885   3.370   0.524   0.153
 2293TIP3    H2 6886   3.472   0.615   0.087
 2294TIP3   OH2 6887   1.874   1.197   5.034
 2294TIP3    H1 6888   1.849   1.115   5.076
 2294TIP3    H2 6889   1.802   1.218   4.976
 2295TIP3   OH2 6890   2.459   5.877   1.456
 2295TIP3    H1 6891   2.417   5.913   1.534
 2295TIP3    H2 6892   2.536   5.832   1.489
 2296TIP3   OH2 6893   5.814   4.623   4.517
 2296TIP3    H1 6894   5.800   4.589   4.428
 2296TIP3    H2 6895   5.869   4.700   4.504
 2297TIP3   OH2 6896   0.186   2.495   0.387
 2297TIP3    H1 6897   0.278   2.516   0.374
 2297TIP3    H2 6898   0.167   2.523   0.477
 2298TIP3   OH2 6899   1.443   2.969   0.941
 2298TIP3    H1 6900   1.538   2.975   0.951
 2298TIP3    H2 6901   1.430   2.902   0.874
 2299TIP3   OH2 6902   2.211   4.966   1.015
 2299TIP3    H1 6903   2.115   4.972   1.012
 2299TIP3    H2 6904   2.232   4.891   0.959
 2300TIP3   OH2 6905   0.670   3.024   4.962
 2300TIP3    H1 6906   0.619   3.048   5.040
 2300TIP3    H2 6907   0.604   3.002   4.896
 2301TIP3   OH2 6908   1.895   5.770   0.756
 2301TIP3    H1 6909   1.978   5.759   0.802
 2301TIP3    H2 6910   1.903   5.714   0.679
 2302TIP3   OH2 6911   5.549   0.070   4.402
 2302TIP3    H1 6912   5.555   0.141   4.465
 2302TIP3    H2 6913   5.473   0.018   4.431
 2303TIP3   OH2 6914   1.267   5.442   4.461
 2303TIP3    H1 6915   1.198   5.477   4.518
 2303TIP3    H2 6916   1.224   5.431   4.376
 2304TIP3   OH2 6917   0.033   1.054   3.643
 2304TIP3    H1 6918   0.086   1.021   3.715
 2304TIP3    H2 6919   0.066   1.008   3.565
 2305TIP3   OH2 6920   4.343   3.067   1.153
 2305TIP3    H1 6921   4.345   3.088   1.246
 2305TIP3    H2 6922   4.433   3.040   1.133
 2306TIP3   OH2 6923   5.367   1.050   1.559
 2306TIP3    H1 6924   5.288   1.026   1.511
 2306TIP3    H2 6925   5.383   0.975   1.617
 2307TIP3   OH2 6926   0.886   1.734   2.052
 2307TIP3    H1 6927   0.828   1.801   2.087
 2307TIP3    H2 6928   0.873   1.740   1.957
 2308TIP3   OH2 6929   3.446   2.066   1.279
 2308TIP3    H1 6930   3.424   2.022   1.361
 2308TIP3    H2 6931   3.431   2.158   1.297
 2309TIP3   OH2 6932   6.075   2.721   4.475
 2309TIP3    H1 6933   6.099   2.629   4.475
 2309TIP3    H2 6934   6.058   2.742   4.566
 2310TIP3   OH2 6935   0.969   4.783   4.301
 2310TIP3    H1 6936   0.944   4.846   4.233
 2310TIP3    H2 6937   0.943   4.825   4.383
 2311TIP3   OH2 6938   4.032   1.452   3.586
 2311TIP3    H1 6939   3.942   1.484   3.590
 2311TIP3    H2 6940   4.086   1.531   3.581
 2312TIP3   OH2 6941   4.224   2.560   2.223
 2312TIP3    H1 6942   4.147   2.617   2.228
 2312TIP3    H2 6943   4.262   2.564   2.310
 2313TIP3   OH2 6944   3.223   5.563   1.213
 2313TIP3    H1 6945   3.292   5.509   1.251
 2313TIP3    H2 6946   3.243   5.652   1.244
 2314TIP3   OH2 6947   2.864   1.321   1.094
 2314TIP3    H1 6948   2.936   1.349   1.038
 2314TIP3    H2 6949   2.795   1.385   1.078
 2315TIP3   OH2 6950   2.089   1.551   0.828
 2315TIP3    H1 6951   2.009   1.515   0.867
 2315TIP3    H2 6952   2.089   1.517   0.739
 2316TIP3   OH2 6953   1.327   5.683   0.711
 2316TIP3    H1 6954   1.269   5.611   0.687
 2316TIP3    H2 6955   1.269   5.747   0.752
 2317TIP3   OH2 6956   4.546   1.252   0.799
 2317TIP3    H1 6957   4.562   1.311   0.872
 2317TIP3    H2 6958   4.632   1.217   0.776
 2318TIP3   OH2 6959   0.319   2.097   2.093
 2318TIP3    H1 6960   0.297   2.005   2.109
 2318TIP3    H2 6961   0.404   2.109   2.135
 2319TIP3   OH2 6962   1.422   5.425   3.518
 2319TIP3    H1 6963   1.344   5.474   3.545
 2319TIP3    H2 6964   1.479   5.426   3.595
 2320TIP3   OH2 6965   4.903   0.568   1.914
 2320TIP3    H1 6966   4.957   0.617   1.977
 2320TIP3    H2 6967   4.951   0.486   1.901
 2321TIP3   OH2 6968   0.710   3.268   0.530
 2321TIP3    H1 6969   0.776   3.253   0.599
 2321TIP3    H2 6970   0.760   3.301   0.456
 2322TIP3   OH2 6971   4.636   2.603   1.089
 2322TIP3    H1 6972   4.541   2.617   1.093
 2322TIP3    H2 6973   4.667   2.627   1.176
 2323TIP3   OH2 6974   4.421   2.233   2.524
 2323TIP3    H1 6975   4.456   2.145   2.513
 2323TIP3    H2 6976   4.327   2.224   2.505
 2324TIP3   OH2 6977   1.913   4.845   3.988
 2324TIP3    H1 6978   1.840   4.873   3.933
 2324TIP3    H2 6979   1.945   4.925   4.029
 2325TIP3   OH2 6980   2.835   0.643   1.856
 2325TIP3    H1 6981   2.769   0.577   1.879
 2325TIP3    H2 6982   2.829   0.650   1.760
 2326TIP3   OH2 6983   2.743   1.418   1.673
 2326TIP3    H1 6984   2.754   1.441   1.581
 2326TIP3    H2 6985   2.832   1.399   1.704
 2327TIP3   OH2 6986   1.164   4.636   5.023
 2327TIP3    H1 6987   1.199   4.580   5.093
 2327TIP3    H2 6988   1.075   4.656   5.052
 2328TIP3   OH2 6989   5.744   3.974   2.243
 2328TIP3    H1 6990   5.675   3.961   2.179
 2328TIP3    H2 6991   5.763   4.068   2.239
 2329TIP3   OH2 6992   1.094   5.203   2.438
 2329TIP3    H1 6993   1.014   5.230   2.483
 2329TIP3    H2 6994   1.108   5.269   2.370
 2330TIP3   OH2 6995   2.191   3.624   0.568
 2330TIP3    H1 6996   2.219   3.699   0.515
 2330TIP3    H2 6997   2.231   3.639   0.654
 2331TIP3   OH2 6998   4.110   5.965   5.007
 2331TIP3    H1 6999   4.193   5.942   4.966
 2331TIP3    H2 7000   4.133   5.995   5.095
 2332TIP3   OH2 7001   0.392   4.670   0.471
 2332TIP3    H1 7002   0.368   4.731   0.402
 2332TIP3    H2 7003   0.355   4.586   0.444
 2333TIP3   OH2 7004   0.329   4.690   1.525
 2333TIP3    H1 7005   0.358   4.748   1.596
 2333TIP3    H2 7006   0.388   4.615   1.530
 2334TIP3   OH2 7007   3.337   1.684   4.092
 2334TIP3    H1 7008   3.251   1.723   4.110
 2334TIP3    H2 7009   3.320   1.590   4.087
 2335TIP3   OH2 7010   4.200   1.322   0.522
 2335TIP3    H1 7011   4.284   1.345   0.561
 2335TIP3    H2 7012   4.161   1.405   0.497
 2336TIP3   OH2 7013   6.118   1.488   4.400
 2336TIP3    H1 7014   6.209   1.498   4.375
 2336TIP3    H2 7015   6.099   1.564   4.454
 2337TIP3   OH2 7016   6.140   4.781   1.604
 2337TIP3    H1 7017   6.097   4.754   1.685
 2337TIP3    H2 7018   6.217   4.725   1.598
 2338TIP3   OH2 7019   4.671   5.084   3.306
 2338TIP3    H1 7020   4.744   5.142   3.328
 2338TIP3    H2 7021   4.711   5.018   3.248
 2339TIP3   OH2 7022   3.161   3.663   3.792
 2339TIP3    H1 7023   3.257   3.662   3.783
 2339TIP3    H2 7024   3.145   3.639   3.883
 2340TIP3   OH2 7025   5.411   1.227   2.985
 2340TIP3    H1 7026   5.439   1.174   2.910
 2340TIP3    H2 7027   5.464   1.307   2.978
 2341TIP3   OH2 7028   5.589   4.996   1.064
 2341TIP3    H1 7029   5.602   4.921   1.006
 2341TIP3    H2 7030   5.503   5.030   1.041
 2342TIP3   OH2 7031   1.628   1.891   1.620
 2342TIP3    H1 7032   1.567   1.829   1.579
 2342TIP3    H2 7033   1.709   1.881   1.570
 2343TIP3   OH2 7034   4.969   1.411   4.219
 2343TIP3    H1 7035   4.928   1.326   4.234
 2343TIP3    H2 7036   5.062   1.392   4.210
 2344TIP3   OH2 7037   5.758   3.346   4.277
 2344TIP3    H1 7038   5.794   3.279   4.219
 2344TIP3    H2 7039   5.754   3.425   4.223
 2345TIP3   OH2 7040   1.740   4.029   3.203
 2345TIP3    H1 7041   1.786   4.110   3.225
 2345TIP3    H2 7042   1.654   4.039   3.242
 2346TIP3   OH2 7043   4.389   4.672   4.705
 2346TIP3    H1 7044   4.374   4.580   4.683
 2346TIP3    H2 7045   4.302   4.711   4.707
 2347TIP3   OH2 7046   4.846   2.052   2.042
 2347TIP3    H1 7047   4.883   1.964   2.052
 2347TIP3    H2 7048   4.889   2.104   2.111
 2348TIP3   OH2 7049   1.470   2.025   1.871
 2348TIP3    H1 7050   1.453   1.969   1.947
 2348TIP3    H2 7051   1.491   2.110   1.908
 2349TIP3   OH2 7052   3.615   0.598   2.934
 2349TIP3    H1 7053   3.686   0.566   2.878
 2349TIP3    H2 7054   3.629   0.692   2.940
 2350TIP3   OH2 7055   0.104   5.567   0.181
 2350TIP3    H1 7056   0.195   5.562   0.211
 2350TIP3    H2 7057   0.059   5.617   0.249
 2351TIP3   OH2 7058   4.749   5.673   3.847
 2351TIP3    H1 7059   4.827   5.682   3.793
 2351TIP3    H2 7060   4.730   5.761   3.879
 2352TIP3   OH2 7061   4.663   5.075   1.452
 2352TIP3    H1 7062   4.668   4.986   1.417
 2352TIP3    H2 7063   4.625   5.127   1.381
 2353TIP3   OH2 7064   4.763   4.409   4.776
 2353TIP3    H1 7065   4.791   4.474   4.840
 2353TIP3    H2 7066   4.686   4.368   4.816
 2354TIP3   OH2 7067   1.982   0.066   3.866
 2354TIP3    H1 7068   2.061   0.021   3.836
 2354TIP3    H2 7069   1.959   0.125   3.794
 2355TIP3   OH2 7070   5.095   2.866   1.977
 2355TIP3    H1 7071   5.089   2.860   1.881
 2355TIP3    H2 7072   5.187   2.884   1.994
 2356TIP3   OH2 7073   2.094   4.666   0.278
 2356TIP3    H1 7074   2.114   4.579   0.314
 2356TIP3    H2 7075   2.028   4.649   0.211
 2357TIP3   OH2 7076   5.094   5.360   4.732
 2357TIP3    H1 7077   5.135   5.372   4.818
 2357TIP3    H2 7078   5.014   5.310   4.751
 2358TIP3   OH2 7079   4.148   1.724   1.876
 2358TIP3    H1 7080   4.108   1.765   1.953
 2358TIP3    H2 7081   4.204   1.793   1.840
 2359TIP3   OH2 7082   1.688   1.089   1.765
 2359TIP3    H1 7083   1.762   1.029   1.769
 2359TIP3    H2 7084   1.617   1.044   1.810
 2360TIP3   OH2 7085   5.182   2.528   0.776
 2360TIP3    H1 7086   5.168   2.600   0.715
 2360TIP3    H2 7087   5.157   2.563   0.862
 2361TIP3   OH2 7088   0.211   2.886   0.336
 2361TIP3    H1 7089   0.155   2.883   0.259
 2361TIP3    H2 7090   0.160   2.933   0.402
 2362TIP3   OH2 7091   4.769  -0.038   4.403
 2362TIP3    H1 7092   4.715  -0.031   4.324
 2362TIP3    H2 7093   4.789   0.053   4.426
 2363TIP3   OH2 7094   1.190   2.989   4.886
 2363TIP3    H1 7095   1.231   2.984   4.973
 2363TIP3    H2 7096   1.096   2.982   4.903
 2364TIP3   OH2 7097   5.187   0.641   2.897
 2364TIP3    H1 7098   5.216   0.635   2.806
 2364TIP3    H2 7099   5.241   0.577   2.944
 2365TIP3   OH2 7100   1.838   0.751   4.881
 2365TIP3    H1 7101   1.884   0.675   4.916
 2365TIP3    H2 7102   1.764   0.714   4.832
 2366TIP3   OH2 7103   3.301   4.104   4.423
 2366TIP3    H1 7104   3.213   4.136   4.403
 2366TIP3    H2 7105   3.325   4.050   4.348
 2367TIP3   OH2 7106   6.162   2.846   0.349
 2367TIP3    H1 7107   6.209   2.792   0.286
 2367TIP3    H2 7108   6.231   2.891   0.399
 2368TIP3   OH2 7109   1.910   1.133   2.063
 2368TIP3    H1 7110   1.859   1.157   2.141
 2368TIP3    H2 7111   1.957   1.213   2.040
 2369TIP3   OH2 7112   2.455   0.838   1.459
 2369TIP3    H1 7113   2.391   0.844   1.388
 2369TIP3    H2 7114   2.428   0.907   1.520
 2370TIP3   OH2 7115   6.305   4.002   2.270
 2370TIP3    H1 7116   6.228   3.948   2.287
 2370TIP3    H2 7117   6.300   4.073   2.334
 2371TIP3   OH2 7118   5.439   1.949   3.500
 2371TIP3    H1 7119   5.345   1.962   3.483
 2371TIP3    H2 7120   5.444   1.864   3.542
 2372TIP3   OH2 7121   6.259   1.312   3.745
 2372TIP3    H1 7122   6.269   1.268   3.661
 2372TIP3    H2 7123   6.257   1.241   3.810
 2373TIP3   OH2 7124   3.562   5.568   4.606
 2373TIP3    H1 7125   3.546   5.478   4.631
 2373TIP3    H2 7126   3.652   5.586   4.636
 2374TIP3   OH2 7127   6.228   0.946   4.713
 2374TIP3    H1 7128   6.310   0.897   4.710
 2374TIP3    H2 7129   6.177   0.912   4.639
 2375TIP3   OH2 7130   0.495   0.785   3.732
 2375TIP3    H1 7131   0.473   0.878   3.722
 2375TIP3    H2 7132   0.451   0.742   3.659
 2376TIP3   OH2 7133   2.796   1.659   0.850
 2376TIP3    H1 7134   2.757   1.592   0.794
 2376TIP3    H2 7135   2.725   1.720   0.867
 2377TIP3   OH2 7136   4.658   4.267   1.936
 2377TIP3    H1 7137   4.684   4.175   1.935
 2377TIP3    H2 7138   4.602   4.276   2.013
 2378TIP3   OH2 7139   4.610   4.407   4.484
 2378TIP3    H1 7140   4.680   4.462   4.447
 2378TIP3    H2 7141   4.548   4.396   4.412
 2379TIP3   OH2 7142   3.770   3.647   3.758
 2379TIP3    H1 7143   3.808   3.609   3.837
 2379TIP3    H2 7144   3.746   3.736   3.784
 2380TIP3   OH2 7145   1.185   3.755   0.502
 2380TIP3    H1 7146   1.260   3.781   0.556
 2380TIP3    H2 7147   1.110   3.799   0.541
 2381TIP3   OH2 7148   0.204   5.487   3.382
 2381TIP3    H1 7149   0.147   5.558   3.411
 2381TIP3    H2 7150   0.255   5.463   3.460
 2382TIP3   OH2 7151   5.413   1.447   0.594
 2382TIP3    H1 7152   5.429   1.360   0.557
 2382TIP3    H2 7153   5.433   1.438   0.687
 2383TIP3   OH2 7154   4.502   0.699   4.799
 2383TIP3    H1 7155   4.527   0.788   4.821
 2383TIP3    H2 7156   4.583   0.658   4.769
 2384TIP3   OH2 7157   3.104   5.888   1.878
 2384TIP3    H1 7158   3.075   5.947   1.947
 2384TIP3    H2 7159   3.031   5.827   1.865
 2385TIP3   OH2 7160   0.418   0.675   2.496
 2385TIP3    H1 7161   0.486   0.621   2.536
 2385TIP3    H2 7162   0.466   0.744   2.450
 2386TIP3   OH2 7163   5.382   4.641   0.452
 2386TIP3    H1 7164   5.292   4.633   0.485
 2386TIP3    H2 7165   5.406   4.552   0.428
 2387TIP3   OH2 7166   4.715   1.870   4.318
 2387TIP3    H1 7167   4.733   1.823   4.400
 2387TIP3    H2 7168   4.779   1.834   4.256
 2388TIP3   OH2 7169   4.183   5.174   0.127
 2388TIP3    H1 7170   4.145   5.256   0.158
 2388TIP3    H2 7171   4.270   5.171   0.167
 2389TIP3   OH2 7172   0.306   4.235   3.423
 2389TIP3    H1 7173   0.307   4.181   3.345
 2389TIP3    H2 7174   0.283   4.323   3.391
 2390TIP3   OH2 7175   2.139   1.407  -0.010
 2390TIP3    H1 7176   2.232   1.385  -0.011
 2390TIP3    H2 7177   2.129   1.467   0.064
 2391TIP3   OH2 7178   1.304   2.176   4.279
 2391TIP3    H1 7179   1.212   2.175   4.253
 2391TIP3    H2 7180   1.349   2.225   4.210
 2392TIP3   OH2 7181   4.207   0.879   1.433
 2392TIP3    H1 7182   4.215   0.829   1.352
 2392TIP3    H2 7183   4.150   0.826   1.489
 2393TIP3   OH2 7184   2.770   4.185   0.651
 2393TIP3    H1 7185   2.792   4.255   0.713
 2393TIP3    H2 7186   2.842   4.186   0.588
 2394TIP3   OH2 7187   3.518   5.729   0.081
 2394TIP3    H1 7188   3.612   5.723   0.101
 2394TIP3    H2 7189   3.509   5.689  -0.005
 2395TIP3   OH2 7190   1.060   1.636   2.689
 2395TIP3    H1 7191   1.028   1.715   2.646
 2395TIP3    H2 7192   1.007   1.566   2.654
 2396TIP3   OH2 7193   1.252   2.527   3.097
 2396TIP3    H1 7194   1.205   2.444   3.085
 2396TIP3    H2 7195   1.200   2.591   3.048
 2397TIP3   OH2 7196   0.752   4.912   1.809
 2397TIP3    H1 7197   0.757   4.927   1.904
 2397TIP3    H2 7198   0.768   4.998   1.771
 2398TIP3   OH2 7199   1.710   1.722   0.388
 2398TIP3    H1 7200   1.681   1.632   0.406
 2398TIP3    H2 7201   1.756   1.715   0.304
 2399TIP3   OH2 7202   2.082   5.826   3.411
 2399TIP3    H1 7203   2.116   5.905   3.452
 2399TIP3    H2 7204   2.086   5.844   3.317
 2400TIP3   OH2 7205   5.159   3.353   2.315
 2400TIP3    H1 7206   5.239   3.406   2.311
 2400TIP3    H2 7207   5.189   3.268   2.346
 2401TIP3   OH2 7208   2.599   5.565   0.719
 2401TIP3    H1 7209   2.692   5.549   0.703
 2401TIP3    H2 7210   2.597   5.633   0.786
 2402TIP3   OH2 7211   3.585   0.351   0.621
 2402TIP3    H1 7212   3.592   0.348   0.526
 2402TIP3    H2 7213   3.510   0.296   0.642
 2403TIP3   OH2 7214   5.945   0.679   3.200
 2403TIP3    H1 7215   5.893   0.605   3.232
 2403TIP3    H2 7216   5.963   0.656   3.108
 2404TIP3   OH2 7217   0.352   4.038   4.696
 2404TIP3    H1 7218   0.402   3.967   4.735
 2404TIP3    H2 7219   0.411   4.075   4.630
 2405TIP3   OH2 7220   2.776   4.116   1.823
 2405TIP3    H1 7221   2.729   4.044   1.782
 2405TIP3    H2 7222   2.836   4.148   1.755
 2406TIP3   OH2 7223   4.942   5.779   1.643
 2406TIP3    H1 7224   4.880   5.824   1.585
 2406TIP3    H2 7225   5.028   5.805   1.612
 2407TIP3   OH2 7226   6.007   5.888   2.042
 2407TIP3    H1 7227   5.958   5.819   2.085
 2407TIP3    H2 7228   6.005   5.961   2.103
 2408TIP3   OH2 7229   0.937   4.905   2.667
 2408TIP3    H1 7230   0.903   4.826   2.708
 2408TIP3    H2 7231   0.924   4.892   2.573
 2409TIP3   OH2 7232   2.039   0.856   4.688
 2409TIP3    H1 7233   2.059   0.925   4.751
 2409TIP3    H2 7234   1.951   0.825   4.712
 2410TIP3   OH2 7235   1.985   4.682   4.218
 2410TIP3    H1 7236   2.070   4.648   4.189
 2410TIP3    H2 7237   1.941   4.707   4.136
 2411TIP3   OH2 7238   5.025   5.387   1.987
 2411TIP3    H1 7239   5.082   5.452   2.029
 2411TIP3    H2 7240   5.081   5.310   1.975
 2412TIP3   OH2 7241   1.403   2.819   0.719
 2412TIP3    H1 7242   1.397   2.723   0.715
 2412TIP3    H2 7243   1.490   2.839   0.685
 2413TIP3   OH2 7244   1.343   4.114   4.131
 2413TIP3    H1 7245   1.282   4.186   4.118
 2413TIP3    H2 7246   1.429   4.155   4.136
 2414TIP3   OH2 7247   5.972   3.949   2.386
 2414TIP3    H1 7248   5.945   3.863   2.420
 2414TIP3    H2 7249   5.927   3.956   2.302
 2415TIP3   OH2 7250   2.179   3.958   3.450
 2415TIP3    H1 7251   2.222   3.906   3.383
 2415TIP3    H2 7252   2.086   3.954   3.429
 2416TIP3   OH2 7253   5.016   5.595   0.255
 2416TIP3    H1 7254   4.933   5.548   0.267
 2416TIP3    H2 7255   4.993   5.670   0.201
 2417TIP3   OH2 7256   0.798   5.719   4.782
 2417TIP3    H1 7257   0.711   5.759   4.789
 2417TIP3    H2 7258   0.823   5.699   4.872
 2418TIP3   OH2 7259   3.242   0.863   2.372
 2418TIP3    H1 7260   3.206   0.925   2.434
 2418TIP3    H2 7261   3.334   0.853   2.398
 2419TIP3   OH2 7262   4.265   2.150   3.796
 2419TIP3    H1 7263   4.336   2.088   3.810
 2419TIP3    H2 7264   4.185   2.102   3.818
 2420TIP3   OH2 7265   5.161   3.588   0.430
 2420TIP3    H1 7266   5.126   3.550   0.510
 2420TIP3    H2 7267   5.252   3.558   0.428
 2421TIP3   OH2 7268   6.162   2.129   2.383
 2421TIP3    H1 7269   6.089   2.083   2.342
 2421TIP3    H2 7270   6.240   2.088   2.345
 2422TIP3   OH2 7271   5.714   5.171   0.278
 2422TIP3    H1 7272   5.626   5.203   0.260
 2422TIP3    H2 7273   5.754   5.242   0.329
 2423TIP3   OH2 7274   0.795   3.266   4.421
 2423TIP3    H1 7275   0.749   3.239   4.501
 2423TIP3    H2 7276   0.884   3.233   4.433
 2424TIP3   OH2 7277   1.998   3.673   2.285
 2424TIP3    H1 7278   2.076   3.683   2.340
 2424TIP3    H2 7279   1.929   3.719   2.333
 2425TIP3   OH2 7280   3.877   1.049   0.327
 2425TIP3    H1 7281   3.886   1.018   0.237
 2425TIP3    H2 7282   3.849   1.140   0.319
 2426TIP3   OH2 7283   2.553   4.406   2.867
 2426TIP3    H1 7284   2.460   4.406   2.891
 2426TIP3    H2 7285   2.592   4.338   2.922
 2427TIP3   OH2 7286   4.814   3.759   2.664
 2427TIP3    H1 7287   4.719   3.750   2.672
 2427TIP3    H2 7288   4.841   3.797   2.748
 2428TIP3   OH2 7289   2.934   0.755   5.044
 2428TIP3    H1 7290   2.887   0.828   5.082
 2428TIP3    H2 7291   2.994   0.726   5.113
 2429TIP3   OH2 7292   2.401   5.714   3.507
 2429TIP3    H1 7293   2.442   5.772   3.442
 2429TIP3    H2 7294   2.432   5.748   3.591
 2430TIP3   OH2 7295   5.116   2.970   3.046
 2430TIP3    H1 7296   5.049   3.020   3.094
 2430TIP3    H2 7297   5.069   2.893   3.012
 2431TIP3   OH2 7298   4.113   0.213   5.086
 2431TIP3    H1 7299   4.080   0.141   5.139
 2431TIP3    H2 7300   4.190   0.177   5.042
 2432TIP3   OH2 7301   4.551   4.063   1.707
 2432TIP3    H1 7302   4.625   4.024   1.754
 2432TIP3    H2 7303   4.590   4.133   1.655
 2433TIP3   OH2 7304   0.267   5.741   0.492
 2433TIP3    H1 7305   0.360   5.736   0.517
 2433TIP3    H2 7306   0.262   5.819   0.436
 2434TIP3   OH2 7307   3.137   3.601   3.531
 2434TIP3    H1 7308   3.121   3.579   3.623
 2434TIP3    H2 7309   3.197   3.534   3.500
 2435TIP3   OH2 7310   5.306   3.908   0.359
 2435TIP3    H1 7311   5.370   3.919   0.429
 2435TIP3    H2 7312   5.353   3.857   0.292
 2436TIP3   OH2 7313   1.361   0.917   3.676
 2436TIP3    H1 7314   1.273   0.896   3.706
 2436TIP3    H2 7315   1.350   0.941   3.584
 2437TIP3   OH2 7316   5.729   3.592   1.368
 2437TIP3    H1 7317   5.728   3.555   1.280
 2437TIP3    H2 7318   5.755   3.683   1.355
 2438TIP3   OH2 7319   6.220   3.892   0.056
 2438TIP3    H1 7320   6.165   3.970   0.056
 2438TIP3    H2 7321   6.296   3.916   0.109
 2439TIP3   OH2 7322   3.999   4.965   2.606
 2439TIP3    H1 7323   4.045   4.882   2.596
 2439TIP3    H2 7324   3.978   4.992   2.517
 2440TIP3   OH2 7325   4.545   5.330   3.366
 2440TIP3    H1 7326   4.590   5.253   3.332
 2440TIP3    H2 7327   4.465   5.336   3.314
 2441TIP3   OH2 7328   1.684   4.036   2.372
 2441TIP3    H1 7329   1.646   3.965   2.321
 2441TIP3    H2 7330   1.664   4.014   2.463
 2442TIP3   OH2 7331   1.173   2.727   1.603
 2442TIP3    H1 7332   1.155   2.723   1.697
 2442TIP3    H2 7333   1.139   2.644   1.569
 2443TIP3   OH2 7334   0.148   3.690   0.647
 2443TIP3    H1 7335   0.213   3.638   0.599
 2443TIP3    H2 7336   0.189   3.776   0.659
 2444TIP3   OH2 7337   5.179   3.327   2.726
 2444TIP3    H1 7338   5.130   3.246   2.740
 2444TIP3    H2 7339   5.119   3.383   2.676
 2445TIP3   OH2 7340   0.472   1.369   0.547
 2445TIP3    H1 7341   0.519   1.446   0.581
 2445TIP3    H2 7342   0.403   1.406   0.492
 2446TIP3   OH2 7343   0.489   3.478   2.573
 2446TIP3    H1 7344   0.576   3.478   2.612
 2446TIP3    H2 7345   0.503   3.502   2.482
 2447TIP3   OH2 7346   2.823   2.770   1.874
 2447TIP3    H1 7347   2.862   2.733   1.953
 2447TIP3    H2 7348   2.885   2.748   1.804
 2448TIP3   OH2 7349   1.106   1.631   0.827
 2448TIP3    H1 7350   1.152   1.582   0.895
 2448TIP3    H2 7351   1.168   1.697   0.798
 2449TIP3   OH2 7352   5.555   3.277   1.393
 2449TIP3    H1 7353   5.606   3.212   1.346
 2449TIP3    H2 7354   5.534   3.343   1.328
 2450TIP3   OH2 7355   2.317   2.655   1.374
 2450TIP3    H1 7356   2.358   2.634   1.291
 2450TIP3    H2 7357   2.230   2.614   1.370
 2451TIP3   OH2 7358   3.632   5.299   4.626
 2451TIP3    H1 7359   3.648   5.205   4.612
 2451TIP3    H2 7360   3.683   5.321   4.703
 2452TIP3   OH2 7361   1.384   5.342   4.686
 2452TIP3    H1 7362   1.404   5.399   4.612
 2452TIP3    H2 7363   1.290   5.353   4.701
 2453TIP3   OH2 7364   2.278   0.167   4.259
 2453TIP3    H1 7365   2.195   0.132   4.229
 2453TIP3    H2 7366   2.339   0.150   4.187
 2454TIP3   OH2 7367   4.965   5.848   1.282
 2454TIP3    H1 7368   4.972   5.757   1.252
 2454TIP3    H2 7369   5.031   5.855   1.351
 2455TIP3   OH2 7370   3.514   4.885   2.264
 2455TIP3    H1 7371   3.578   4.905   2.333
 2455TIP3    H2 7372   3.429   4.897   2.306
 2456TIP3   OH2 7373   6.217   2.173   3.476
 2456TIP3    H1 7374   6.194   2.216   3.558
 2456TIP3    H2 7375   6.187   2.083   3.487
 2457TIP3   OH2 7376   0.657   4.518   3.237
 2457TIP3    H1 7377   0.655   4.613   3.234
 2457TIP3    H2 7378   0.613   4.496   3.319
 2458TIP3   OH2 7379   4.819   0.675   2.463
 2458TIP3    H1 7380   4.754   0.606   2.456
 2458TIP3    H2 7381   4.791   0.727   2.538
 2459TIP3   OH2 7382   5.181   1.722   0.039
 2459TIP3    H1 7383   5.254   1.779   0.064
 2459TIP3    H2 7384   5.103   1.776   0.047
 2460TIP3   OH2 7385   4.070   3.528   2.451
 2460TIP3    H1 7386   4.039   3.593   2.514
 2460TIP3    H2 7387   4.037   3.558   2.367
 2461TIP3   OH2 7388   5.664   4.740   2.880
 2461TIP3    H1 7389   5.710   4.656   2.875
 2461TIP3    H2 7390   5.582   4.720   2.926
 2462TIP3   OH2 7391   0.957   0.776   2.351
 2462TIP3    H1 7392   1.028   0.712   2.346
 2462TIP3    H2 7393   1.000   0.856   2.381
 2463TIP3   OH2 7394   4.134   2.967   0.669
 2463TIP3    H1 7395   4.169   2.878   0.671
 2463TIP3    H2 7396   4.173   3.010   0.746
 2464TIP3   OH2 7397   6.291   4.245   0.576
 2464TIP3    H1 7398   6.251   4.256   0.662
 2464TIP3    H2 7399   6.288   4.332   0.537
 2465TIP3   OH2 7400   0.498   0.722   4.696
 2465TIP3    H1 7401   0.544   0.651   4.652
 2465TIP3    H2 7402   0.492   0.791   4.630
 2466TIP3   OH2 7403   3.341   2.387   1.042
 2466TIP3    H1 7404   3.314   2.297   1.021
 2466TIP3    H2 7405   3.258   2.434   1.051
 2467TIP3   OH2 7406   0.917   5.562   0.962
 2467TIP3    H1 7407   0.884   5.631   1.019
 2467TIP3    H2 7408   1.003   5.593   0.933
 2468TIP3   OH2 7409   0.708   5.190   4.253
 2468TIP3    H1 7410   0.775   5.249   4.284
 2468TIP3    H2 7411   0.756   5.112   4.223
 2469TIP3   OH2 7412   3.098   4.404   1.786
 2469TIP3    H1 7413   3.102   4.493   1.819
 2469TIP3    H2 7414   3.181   4.364   1.813
 2470TIP3   OH2 7415   1.495   0.473   2.184
 2470TIP3    H1 7416   1.583   0.435   2.190
 2470TIP3    H2 7417   1.506   0.551   2.129
 2471TIP3   OH2 7418   2.408   1.773   3.118
 2471TIP3    H1 7419   2.401   1.689   3.073
 2471TIP3    H2 7420   2.488   1.766   3.171
 2472TIP3   OH2 7421   1.354   2.009   3.880
 2472TIP3    H1 7422   1.427   2.017   3.818
 2472TIP3    H2 7423   1.301   2.086   3.863
 2473TIP3   OH2 7424   3.454   0.230   3.197
 2473TIP3    H1 7425   3.524   0.205   3.257
 2473TIP3    H2 7426   3.464   0.324   3.186
 2474TIP3   OH2 7427   4.602   4.568   2.757
 2474TIP3    H1 7428   4.677   4.621   2.783
 2474TIP3    H2 7429   4.638   4.480   2.744
 2475TIP3   OH2 7430   4.457   2.403   1.849
 2475TIP3    H1 7431   4.425   2.474   1.792
 2475TIP3    H2 7432   4.510   2.448   1.914
 2476TIP3   OH2 7433   1.508   5.523   2.564
 2476TIP3    H1 7434   1.428   5.495   2.610
 2476TIP3    H2 7435   1.560   5.567   2.632
 2477TIP3   OH2 7436   1.848   1.965   3.225
 2477TIP3    H1 7437   1.910   1.903   3.186
 2477TIP3    H2 7438   1.862   2.046   3.176
 2478TIP3   OH2 7439   1.817   3.767   2.483
 2478TIP3    H1 7440   1.741   3.824   2.492
 2478TIP3    H2 7441   1.876   3.796   2.553
 2479TIP3   OH2 7442   4.404   3.990   3.245
 2479TIP3    H1 7443   4.442   4.035   3.169
 2479TIP3    H2 7444   4.393   3.900   3.216
 2480TIP3   OH2 7445   1.987   3.319   0.812
 2480TIP3    H1 7446   2.080   3.316   0.832
 2480TIP3    H2 7447   1.946   3.267   0.881
 2481TIP3   OH2 7448   3.350   1.109   3.342
 2481TIP3    H1 7449   3.438   1.115   3.377
 2481TIP3    H2 7450   3.361   1.073   3.254
 2482TIP3   OH2 7451   0.706   1.343   4.036
 2482TIP3    H1 7452   0.718   1.393   4.117
 2482TIP3    H2 7453   0.690   1.410   3.969
 2483TIP3   OH2 7454   3.938   0.209   4.199
 2483TIP3    H1 7455   4.032   0.191   4.202
 2483TIP3    H2 7456   3.912   0.214   4.291
 2484TIP3   OH2 7457   4.027   6.015   0.176
 2484TIP3    H1 7458   4.119   5.999   0.153
 2484TIP3    H2 7459   4.008   5.951   0.244
 2485TIP3   OH2 7460   2.325   1.618   2.508
 2485TIP3    H1 7461   2.312   1.620   2.413
 2485TIP3    H2 7462   2.252   1.566   2.541
 2486TIP3   OH2 7463   0.624   2.474   1.865
 2486TIP3    H1 7464   0.658   2.494   1.952
 2486TIP3    H2 7465   0.702   2.456   1.813
 2487TIP3   OH2 7466   5.769   5.564   3.273
 2487TIP3    H1 7467   5.776   5.522   3.359
 2487TIP3    H2 7468   5.747   5.655   3.293
 2488TIP3   OH2 7469   3.402   5.670   2.127
 2488TIP3    H1 7470   3.412   5.580   2.156
 2488TIP3    H2 7471   3.338   5.707   2.188
 2489TIP3   OH2 7472   5.944   4.743   4.252
 2489TIP3    H1 7473   5.859   4.702   4.240
 2489TIP3    H2 7474   5.976   4.758   4.163
 2490TIP3   OH2 7475   1.378   3.244   4.565
 2490TIP3    H1 7476   1.371   3.178   4.497
 2490TIP3    H2 7477   1.427   3.316   4.524
 2491TIP3   OH2 7478   2.399   0.341   3.996
 2491TIP3    H1 7479   2.327   0.300   4.044
 2491TIP3    H2 7480   2.397   0.433   4.024
 2492TIP3   OH2 7481   5.872   0.568   2.621
 2492TIP3    H1 7482   5.794   0.614   2.590
 2492TIP3    H2 7483   5.850   0.542   2.711
 2493TIP3   OH2 7484   2.641   3.224   3.510
 2493TIP3    H1 7485   2.568   3.253   3.456
 2493TIP3    H2 7486   2.629   3.129   3.519
 2494TIP3   OH2 7487   0.043   5.825   0.644
 2494TIP3    H1 7488   0.030   5.919   0.635
 2494TIP3    H2 7489   0.105   5.803   0.574
 2495TIP3   OH2 7490   1.830   4.927   0.141
 2495TIP3    H1 7491   1.788   4.983   0.076
 2495TIP3    H2 7492   1.898   4.981   0.180
 2496TIP3   OH2 7493   0.954   2.423   0.180
 2496TIP3    H1 7494   0.926   2.395   0.093
 2496TIP3    H2 7495   0.951   2.518   0.177
 2497TIP3   OH2 7496   1.254   5.443   2.714
 2497TIP3    H1 7497   1.267   5.401   2.799
 2497TIP3    H2 7498   1.231   5.371   2.655
 2498TIP3   OH2 7499   3.882   1.976   0.526
 2498TIP3    H1 7500   3.891   1.932   0.442
 2498TIP3    H2 7501   3.868   1.904   0.589
 2499TIP3   OH2 7502   6.176   0.810   5.128
 2499TIP3    H1 7503   6.126   0.743   5.080
 2499TIP3    H2 7504   6.210   0.763   5.204
 2500TIP3   OH2 7505   4.655   1.001   3.013
 2500TIP3    H1 7506   4.662   1.053   3.092
 2500TIP3    H2 7507   4.705   1.050   2.947
 2501TIP3   OH2 7508   5.964   2.676   1.137
 2501TIP3    H1 7509   6.059   2.666   1.147
 2501TIP3    H2 7510   5.927   2.608   1.193
 2502TIP3   OH2 7511   0.794   2.007   4.792
 2502TIP3    H1 7512   0.876   1.997   4.841
 2502TIP3    H2 7513   0.761   2.092   4.820
 2503TIP3   OH2 7514   3.413   4.655   1.949
 2503TIP3    H1 7515   3.365   4.725   1.993
 2503TIP3    H2 7516   3.491   4.698   1.912
 2504TIP3   OH2 7517   4.742   1.739   0.263
 2504TIP3    H1 7518   4.682   1.677   0.304
 2504TIP3    H2 7519   4.687   1.790   0.204
 2505TIP3   OH2 7520   2.013   5.188   3.205
 2505TIP3    H1 7521   2.062   5.192   3.123
 2505TIP3    H2 7522   1.983   5.278   3.219
 2506TIP3   OH2 7523   1.119   4.681   3.735
 2506TIP3    H1 7524   1.069   4.607   3.769
 2506TIP3    H2 7525   1.053   4.749   3.718
 2507TIP3   OH2 7526   2.503   3.083   0.214
 2507TIP3    H1 7527   2.429   3.108   0.270
 2507TIP3    H2 7528   2.508   3.153   0.149
 2508TIP3   OH2 7529   5.017   1.525   3.057
 2508TIP3    H1 7530   5.053   1.611   3.076
 2508TIP3    H2 7531   4.939   1.542   3.004
 2509TIP3   OH2 7532   5.118   0.117   2.532
 2509TIP3    H1 7533   5.113   0.025   2.555
 2509TIP3    H2 7534   5.053   0.129   2.463
 2510TIP3   OH2 7535   2.148   5.034   1.566
 2510TIP3    H1 7536   2.123   5.124   1.589
 2510TIP3    H2 7537   2.136   5.031   1.471
 2511TIP3   OH2 7538   2.138   4.630   3.121
 2511TIP3    H1 7539   2.211   4.657   3.065
 2511TIP3    H2 7540   2.060   4.650   3.070
 2512TIP3   OH2 7541   4.001   4.047   3.137
 2512TIP3    H1 7542   4.021   3.954   3.144
 2512TIP3    H2 7543   4.006   4.079   3.227
 2513TIP3   OH2 7544   1.717   2.611   0.842
 2513TIP3    H1 7545   1.629   2.596   0.877
 2513TIP3    H2 7546   1.744   2.694   0.880
 2514TIP3   OH2 7547   2.770   3.517   0.868
 2514TIP3    H1 7548   2.771   3.487   0.777
 2514TIP3    H2 7549   2.678   3.541   0.884
 2515TIP3   OH2 7550   5.619   2.741   1.545
 2515TIP3    H1 7551   5.613   2.836   1.552
 2515TIP3    H2 7552   5.546   2.717   1.487
 2516TIP3   OH2 7553   6.208   3.183   4.530
 2516TIP3    H1 7554   6.179   3.138   4.451
 2516TIP3    H2 7555   6.127   3.200   4.579
 2517TIP3   OH2 7556   4.362   2.667   1.096
 2517TIP3    H1 7557   4.283   2.685   1.045
 2517TIP3    H2 7558   4.330   2.635   1.180
 2518TIP3   OH2 7559   5.041   1.265   0.040
 2518TIP3    H1 7560   5.018   1.217   0.119
 2518TIP3    H2 7561   5.057   1.355   0.070
 2519TIP3   OH2 7562   5.256   2.930   4.487
 2519TIP3    H1 7563   5.264   3.002   4.550
 2519TIP3    H2 7564   5.221   2.972   4.408
 2520TIP3   OH2 7565   1.084   3.478   0.538
 2520TIP3    H1 7566   1.102   3.571   0.526
 2520TIP3    H2 7567   1.057   3.470   0.629
 2521TIP3   OH2 7568   1.819   2.037   4.636
 2521TIP3    H1 7569   1.838   2.051   4.543
 2521TIP3    H2 7570   1.814   1.942   4.647
 2522TIP3   OH2 7571   2.463   1.124   0.944
 2522TIP3    H1 7572   2.522   1.087   0.878
 2522TIP3    H2 7573   2.462   1.059   1.014
 2523TIP3   OH2 7574   4.638   5.895   4.847
 2523TIP3    H1 7575   4.572   5.952   4.807
 2523TIP3    H2 7576   4.622   5.809   4.808
 2524TIP3   OH2 7577   1.559   0.713   5.082
 2524TIP3    H1 7578   1.571   0.642   5.145
 2524TIP3    H2 7579   1.606   0.684   5.004
 2525TIP3   OH2 7580   3.513   0.069   1.347
 2525TIP3    H1 7581   3.551   0.037   1.265
 2525TIP3    H2 7582   3.588   0.103   1.396
 2526TIP3   OH2 7583   0.957   2.310   1.643
 2526TIP3    H1 7584   0.935   2.299   1.550
 2526TIP3    H2 7585   1.051   2.295   1.648
 2527TIP3   OH2 7586   0.813   2.646   4.403
 2527TIP3    H1 7587   0.760   2.572   4.374
 2527TIP3    H2 7588   0.896   2.607   4.430
 2528TIP3   OH2 7589   1.922   2.655   2.084
 2528TIP3    H1 7590   1.973   2.721   2.131
 2528TIP3    H2 7591   1.976   2.634   2.007
 2529TIP3   OH2 7592   6.242   4.174   4.406
 2529TIP3    H1 7593   6.295   4.113   4.457
 2529TIP3    H2 7594   6.289   4.184   4.323
 2530TIP3   OH2 7595   2.158   4.136   4.051
 2530TIP3    H1 7596   2.100   4.177   3.987
 2530TIP3    H2 7597   2.105   4.067   4.090
 2531TIP3   OH2 7598   5.605   0.246   3.301
 2531TIP3    H1 7599   5.537   0.283   3.244
 2531TIP3    H2 7600   5.622   0.159   3.265
 2532TIP3   OH2 7601   0.133   0.464   1.062
 2532TIP3    H1 7602   0.203   0.528   1.073
 2532TIP3    H2 7603   0.170   0.382   1.096
 2533TIP3   OH2 7604   5.015   4.880   1.359
 2533TIP3    H1 7605   4.931   4.851   1.324
 2533TIP3    H2 7606   4.999   4.968   1.392
 2534TIP3   OH2 7607   5.867   0.273   5.056
 2534TIP3    H1 7608   5.944   0.309   5.101
 2534TIP3    H2 7609   5.793   0.320   5.095
 2535TIP3   OH2 7610   0.942   3.465   0.030
 2535TIP3    H1 7611   0.990   3.477   0.112
 2535TIP3    H2 7612   0.867   3.524   0.038
 2536TIP3   OH2 7613   5.181   4.167   0.907
 2536TIP3    H1 7614   5.237   4.091   0.919
 2536TIP3    H2 7615   5.216   4.211   0.829
 2537TIP3   OH2 7616   6.024   2.712   4.771
 2537TIP3    H1 7617   6.087   2.652   4.810
 2537TIP3    H2 7618   5.961   2.730   4.841
 2538TIP3   OH2 7619   2.862   3.984   3.379
 2538TIP3    H1 7620   2.788   4.036   3.411
 2538TIP3    H2 7621   2.923   4.049   3.344
 2539TIP3   OH2 7622   1.875   1.349   0.955
 2539TIP3    H1 7623   1.952   1.294   0.935
 2539TIP3    H2 7624   1.837   1.368   0.870
 2540TIP3   OH2 7625   5.278   3.121   0.405
 2540TIP3    H1 7626   5.330   3.054   0.450
 2540TIP3    H2 7627   5.295   3.202   0.454
 2541TIP3   OH2 7628   1.401   5.132   3.341
 2541TIP3    H1 7629   1.484   5.179   3.349
 2541TIP3    H2 7630   1.398   5.074   3.417
 2542TIP3   OH2 7631   3.627   3.963   0.080
 2542TIP3    H1 7632   3.604   3.898   0.013
 2542TIP3    H2 7633   3.715   3.939   0.108
 2543TIP3   OH2 7634   5.822   1.197   2.263
 2543TIP3    H1 7635   5.909   1.171   2.232
 2543TIP3    H2 7636   5.837   1.281   2.307
 2544TIP3   OH2 7637   3.386   2.086   2.792
 2544TIP3    H1 7638   3.403   2.129   2.708
 2544TIP3    H2 7639   3.472   2.062   2.825
 2545TIP3   OH2 7640   0.086   2.457   0.826
 2545TIP3    H1 7641   0.100   2.398   0.900
 2545TIP3    H2 7642  -0.008   2.473   0.826
 2546TIP3   OH2 7643   1.896   0.590   0.229
 2546TIP3    H1 7644   1.897   0.495   0.222
 2546TIP3    H2 7645   1.988   0.614   0.239
 2547TIP3   OH2 7646   0.095   2.447   3.325
 2547TIP3    H1 7647   0.155   2.412   3.391
 2547TIP3    H2 7648   0.008   2.438   3.364
 2548TIP3   OH2 7649   5.761   2.863   1.827
 2548TIP3    H1 7650   5.772   2.954   1.799
 2548TIP3    H2 7651   5.753   2.814   1.746
 2549TIP3   OH2 7652   2.351   1.238   3.337
 2549TIP3    H1 7653   2.332   1.227   3.430
 2549TIP3    H2 7654   2.353   1.333   3.323
 2550TIP3   OH2 7655   4.063   1.897   2.068
 2550TIP3    H1 7656   4.087   1.931   1.981
 2550TIP3    H2 7657   3.986   1.947   2.093
 2551TIP3   OH2 7658   3.734   0.350   4.057
 2551TIP3    H1 7659   3.666   0.401   4.101
 2551TIP3    H2 7660   3.785   0.313   4.129
 2552TIP3   OH2 7661   1.307   5.716   2.808
 2552TIP3    H1 7662   1.327   5.623   2.797
 2552TIP3    H2 7663   1.342   5.757   2.729
 2553TIP3   OH2 7664   0.355   5.280   2.614
 2553TIP3    H1 7665   0.268   5.321   2.618
 2553TIP3    H2 7666   0.338   5.187   2.627
 2554TIP3   OH2 7667   1.085   1.091   0.248
 2554TIP3    H1 7668   1.093   1.168   0.192
 2554TIP3    H2 7669   1.088   1.125   0.337
 2555TIP3   OH2 7670   5.739   4.677  -0.036
 2555TIP3    H1 7671   5.709   4.703   0.051
 2555TIP3    H2 7672   5.793   4.751  -0.065
 2556TIP3   OH2 7673   2.911   1.401   3.470
 2556TIP3    H1 7674   2.924   1.481   3.419
 2556TIP3    H2 7675   2.996   1.359   3.471
 2557TIP3   OH2 7676   3.222   2.335   0.645
 2557TIP3    H1 7677   3.304   2.371   0.611
 2557TIP3    H2 7678   3.212   2.252   0.598
 2558TIP3   OH2 7679   3.210   3.298   2.781
 2558TIP3    H1 7680   3.164   3.237   2.839
 2558TIP3    H2 7681   3.232   3.246   2.704
 2559TIP3   OH2 7682   6.028   2.234   3.296
 2559TIP3    H1 7683   5.980   2.152   3.293
 2559TIP3    H2 7684   6.099   2.219   3.359
 2560TIP3   OH2 7685   2.794   1.065   3.383
 2560TIP3    H1 7686   2.782   1.121   3.460
 2560TIP3    H2 7687   2.718   1.007   3.383
 2561TIP3   OH2 7688   3.240   2.537   4.085
 2561TIP3    H1 7689   3.301   2.556   4.014
 2561TIP3    H2 7690   3.157   2.576   4.056
 2562TIP3   OH2 7691   5.558   5.802   5.218
 2562TIP3    H1 7692   5.519   5.800   5.131
 2562TIP3    H2 7693   5.652   5.814   5.202
 2563TIP3   OH2 7694   4.475   2.482   2.955
 2563TIP3    H1 7695   4.502   2.441   2.872
 2563TIP3    H2 7696   4.428   2.561   2.928
 2564TIP3   OH2 7697   1.326   2.180   2.684
 2564TIP3    H1 7698   1.317   2.120   2.757
 2564TIP3    H2 7699   1.250   2.238   2.690
 2565TIP3   OH2 7700   1.104   3.515   1.916
 2565TIP3    H1 7701   1.185   3.521   1.866
 2565TIP3    H2 7702   1.099   3.597   1.964
 2566TIP3   OH2 7703   6.128   1.688   0.540
 2566TIP3    H1 7704   6.221   1.683   0.519
 2566TIP3    H2 7705   6.091   1.608   0.502
 2567TIP3   OH2 7706   4.991   4.091   1.645
 2567TIP3    H1 7707   5.002   4.057   1.556
 2567TIP3    H2 7708   4.973   4.014   1.698
 2568TIP3   OH2 7709   3.961   4.433   1.889
 2568TIP3    H1 7710   4.045   4.407   1.851
 2568TIP3    H2 7711   3.898   4.371   1.854
 2569TIP3   OH2 7712   5.585   1.453   2.921
 2569TIP3    H1 7713   5.598   1.516   2.992
 2569TIP3    H2 7714   5.544   1.503   2.851
 2570TIP3   OH2 7715   4.929   3.292   4.480
 2570TIP3    H1 7716   4.963   3.355   4.543
 2570TIP3    H2 7717   4.988   3.298   4.405
 2571TIP3   OH2 7718   3.534   1.859   2.135
 2571TIP3    H1 7719   3.614   1.833   2.181
 2571TIP3    H2 7720   3.477   1.895   2.203
 2572TIP3   OH2 7721   3.429   1.327   2.474
 2572TIP3    H1 7722   3.472   1.318   2.560
 2572TIP3    H2 7723   3.407   1.420   2.467
 2573TIP3   OH2 7724   0.334   3.226   4.023
 2573TIP3    H1 7725   0.391   3.220   3.946
 2573TIP3    H2 7726   0.267   3.159   4.009
 2574TIP3   OH2 7727   3.666   5.175   2.040
 2574TIP3    H1 7728   3.752   5.152   2.005
 2574TIP3    H2 7729   3.605   5.146   1.972
 2575TIP3   OH2 7730  -0.005   4.357   4.773
 2575TIP3    H1 7731   0.061   4.357   4.704
 2575TIP3    H2 7732   0.026   4.423   4.836
 2576TIP3   OH2 7733   3.040   1.939   2.585
 2576TIP3    H1 7734   2.969   1.874   2.588
 2576TIP3    H2 7735   3.064   1.953   2.676
 2577TIP3   OH2 7736   6.249   4.397   1.952
 2577TIP3    H1 7737   6.219   4.414   1.863
 2577TIP3    H2 7738   6.274   4.304   1.952
 2578TIP3   OH2 7739   5.020   1.334   3.315
 2578TIP3    H1 7740   5.097   1.278   3.307
 2578TIP3    H2 7741   5.016   1.382   3.232
 2579TIP3   OH2 7742   4.960   2.755   4.912
 2579TIP3    H1 7743   4.980   2.785   4.823
 2579TIP3    H2 7744   4.998   2.822   4.969
 2580TIP3   OH2 7745   5.674   1.301   0.485
 2580TIP3    H1 7746   5.597   1.249   0.462
 2580TIP3    H2 7747   5.647   1.350   0.562
 2581TIP3   OH2 7748   5.029   1.751   0.738
 2581TIP3    H1 7749   5.099   1.767   0.674
 2581TIP3    H2 7750   4.963   1.701   0.690
 2582TIP3   OH2 7751   3.616   1.246   1.487
 2582TIP3    H1 7752   3.654   1.205   1.564
 2582TIP3    H2 7753   3.522   1.227   1.494
 2583TIP3   OH2 7754   0.577   4.236   3.932
 2583TIP3    H1 7755   0.540   4.178   3.866
 2583TIP3    H2 7756   0.545   4.323   3.908
 2584TIP3   OH2 7757   2.132   5.414   3.763
 2584TIP3    H1 7758   2.110   5.427   3.671
 2584TIP3    H2 7759   2.205   5.473   3.779
 2585TIP3   OH2 7760   5.254   1.559   1.032
 2585TIP3    H1 7761   5.177   1.566   0.975
 2585TIP3    H2 7762   5.255   1.467   1.058
 2586TIP3   OH2 7763   2.049   0.801   3.942
 2586TIP3    H1 7764   2.037   0.827   3.850
 2586TIP3    H2 7765   1.964   0.766   3.968
 2587TIP3   OH2 7766   5.133   1.150   4.847
 2587TIP3    H1 7767   5.088   1.077   4.805
 2587TIP3    H2 7768   5.164   1.114   4.930
 2588TIP3   OH2 7769   3.354   3.975   4.128
 2588TIP3    H1 7770   3.372   3.903   4.187
 2588TIP3    H2 7771   3.433   4.030   4.132
 2589TIP3   OH2 7772   0.389   1.920   2.731
 2589TIP3    H1 7773   0.350   1.975   2.798
 2589TIP3    H2 7774   0.381   1.831   2.766
 2590TIP3   OH2 7775   1.043   2.491   2.041
 2590TIP3    H1 7776   0.997   2.501   1.958
 2590TIP3    H2 7777   1.135   2.510   2.020
 2591TIP3   OH2 7778   5.856   4.167   3.222
 2591TIP3    H1 7779   5.799   4.205   3.288
 2591TIP3    H2 7780   5.825   4.076   3.212
 2592TIP3   OH2 7781   5.577   3.867   2.060
 2592TIP3    H1 7782   5.587   3.958   2.034
 2592TIP3    H2 7783   5.573   3.818   1.978
 2593TIP3   OH2 7784   5.235   3.989   1.286
 2593TIP3    H1 7785   5.244   4.082   1.304
 2593TIP3    H2 7786   5.298   3.972   1.216
 2594TIP3   OH2 7787   3.106   4.638   0.649
 2594TIP3    H1 7788   3.192   4.662   0.614
 2594TIP3    H2 7789   3.125   4.590   0.730
 2595TIP3   OH2 7790   5.621   1.635   1.934
 2595TIP3    H1 7791   5.620   1.587   1.851
 2595TIP3    H2 7792   5.698   1.692   1.927
 2596TIP3   OH2 7793   5.037   4.516   2.161
 2596TIP3    H1 7794   5.109   4.516   2.099
 2596TIP3    H2 7795   4.979   4.587   2.132
 2597TIP3   OH2 7796   5.514   4.474   4.020
 2597TIP3    H1 7797   5.600   4.488   3.979
 2597TIP3    H2 7798   5.499   4.553   4.071
 2598TIP3   OH2 7799   5.176   0.583   3.321
 2598TIP3    H1 7800   5.097   0.583   3.267
 2598TIP3    H2 7801   5.159   0.650   3.388
 2599TIP3   OH2 7802   1.284   1.843   1.205
 2599TIP3    H1 7803   1.189   1.827   1.205
 2599TIP3    H2 7804   1.322   1.762   1.238
 2600TIP3   OH2 7805   0.515   1.105   4.527
 2600TIP3    H1 7806   0.495   1.098   4.621
 2600TIP3    H2 7807   0.534   1.015   4.500
 2601TIP3   OH2 7808   3.487   1.934   0.215
 2601TIP3    H1 7809   3.470   1.969   0.127
 2601TIP3    H2 7810   3.536   1.853   0.199
 2602TIP3   OH2 7811   1.707   3.796   0.492
 2602TIP3    H1 7812   1.692   3.719   0.548
 2602TIP3    H2 7813   1.694   3.871   0.550
 2603TIP3   OH2 7814   5.361   2.221   1.051
 2603TIP3    H1 7815   5.370   2.131   1.019
 2603TIP3    H2 7816   5.356   2.274   0.971
 2604TIP3   OH2 7817   1.469   5.883   4.122
 2604TIP3    H1 7818   1.393   5.934   4.149
 2604TIP3    H2 7819   1.499   5.840   4.202
 2605TIP3   OH2 7820   1.471   4.761   3.754
 2605TIP3    H1 7821   1.433   4.674   3.764
 2605TIP3    H2 7822   1.425   4.799   3.679
 2606TIP3   OH2 7823   2.207   5.921   4.208
 2606TIP3    H1 7824   2.225   5.864   4.134
 2606TIP3    H2 7825   2.270   5.894   4.275
 2607TIP3   OH2 7826   6.201   4.537   4.276
 2607TIP3    H1 7827   6.114   4.570   4.254
 2607TIP3    H2 7828   6.185   4.472   4.344
 2608TIP3   OH2 7829   4.730   1.128   2.736
 2608TIP3    H1 7830   4.743   1.219   2.764
 2608TIP3    H2 7831   4.658   1.133   2.673
 2609TIP3   OH2 7832   6.287   4.259   2.426
 2609TIP3    H1 7833   6.294   4.307   2.509
 2609TIP3    H2 7834   6.196   4.229   2.423
 2610TIP3   OH2 7835   6.088   3.516   3.140
 2610TIP3    H1 7836   6.073   3.611   3.140
 2610TIP3    H2 7837   6.004   3.478   3.113
 2611TIP3   OH2 7838   2.580   1.778   1.232
 2611TIP3    H1 7839   2.612   1.859   1.193
 2611TIP3    H2 7840   2.511   1.806   1.293
 2612TIP3   OH2 7841   3.443   1.009   3.108
 2612TIP3    H1 7842   3.463   1.097   3.076
 2612TIP3    H2 7843   3.437   0.956   3.029
 2613TIP3   OH2 7844   4.449   5.029   4.166
 2613TIP3    H1 7845   4.368   5.074   4.190
 2613TIP3    H2 7846   4.486   5.082   4.096
 2614TIP3   OH2 7847   5.051   1.359   0.967
 2614TIP3    H1 7848   5.005   1.279   0.994
 2614TIP3    H2 7849   4.984   1.428   0.970
 2615TIP3   OH2 7850   5.827   0.916   3.225
 2615TIP3    H1 7851   5.858   0.826   3.236
 2615TIP3    H2 7852   5.854   0.960   3.306
 2616TIP3   OH2 7853   5.798   3.804   2.674
 2616TIP3    H1 7854   5.753   3.730   2.634
 2616TIP3    H2 7855   5.774   3.880   2.621
 2617TIP3   OH2 7856   3.897   1.559   1.851
 2617TIP3    H1 7857   3.964   1.627   1.839
 2617TIP3    H2 7858   3.831   1.577   1.785
 2618TIP3   OH2 7859   0.424   5.206   3.097
 2618TIP3    H1 7860   0.389   5.156   3.024
 2618TIP3    H2 7861   0.350   5.256   3.130
 2619TIP3   OH2 7862   5.968   1.315   3.853
 2619TIP3    H1 7863   6.037   1.307   3.919
 2619TIP3    H2 7864   6.014   1.343   3.774
 2620TIP3   OH2 7865   4.700   2.094   5.084
 2620TIP3    H1 7866   4.638   2.166   5.093
 2620TIP3    H2 7867   4.714   2.062   5.173
 2621TIP3   OH2 7868   1.403   3.823   0.641
 2621TIP3    H1 7869   1.473   3.888   0.647
 2621TIP3    H2 7870   1.449   3.741   0.618
 2622TIP3   OH2 7871   4.559   3.229   2.228
 2622TIP3    H1 7872   4.586   3.303   2.173
 2622TIP3    H2 7873   4.551   3.156   2.167
 2623TIP3   OH2 7874   2.321   3.704   0.816
 2623TIP3    H1 7875   2.262   3.771   0.851
 2623TIP3    H2 7876   2.299   3.625   0.866
 2624TIP3   OH2 7877   5.270   4.498   5.148
 2624TIP3    H1 7878   5.348   4.510   5.201
 2624TIP3    H2 7879   5.203   4.552   5.191
 2625TIP3   OH2 7880   4.754   2.865   4.008
 2625TIP3    H1 7881   4.673   2.865   3.957
 2625TIP3    H2 7882   4.726   2.848   4.098
 2626TIP3   OH2 7883   4.854   1.510   4.857
 2626TIP3    H1 7884   4.760   1.502   4.841
 2626TIP3    H2 7885   4.868   1.459   4.937
 2627TIP3   OH2 7886   5.332   3.945   0.895
 2627TIP3    H1 7887   5.406   3.890   0.921
 2627TIP3    H2 7888   5.343   3.955   0.800
 2628TIP3   OH2 7889   2.628   2.505   1.060
 2628TIP3    H1 7890   2.654   2.558   1.136
 2628TIP3    H2 7891   2.629   2.567   0.987
 2629TIP3   OH2 7892   2.418   1.598   2.824
 2629TIP3    H1 7893   2.399   1.621   2.734
 2629TIP3    H2 7894   2.336   1.561   2.857
 2630TIP3   OH2 7895   5.339   1.298   2.456
 2630TIP3    H1 7896   5.249   1.275   2.477
 2630TIP3    H2 7897   5.357   1.255   2.373
 2631TIP3   OH2 7898   1.979   5.761   1.881
 2631TIP3    H1 7899   1.932   5.844   1.879
 2631TIP3    H2 7900   1.921   5.700   1.834
 2632TIP3   OH2 7901   2.206   5.533   0.141
 2632TIP3    H1 7902   2.231   5.601   0.204
 2632TIP3    H2 7903   2.257   5.553   0.062
 2633TIP3   OH2 7904   0.643   4.560   3.958
 2633TIP3    H1 7905   0.653   4.618   3.883
 2633TIP3    H2 7906   0.702   4.487   3.940
 2634TIP3   OH2 7907   6.016   0.414   0.147
 2634TIP3    H1 7908   6.027   0.319   0.158
 2634TIP3    H2 7909   5.950   0.438   0.211
 2635TIP3   OH2 7910   5.517   5.440   1.431
 2635TIP3    H1 7911   5.550   5.463   1.517
 2635TIP3    H2 7912   5.452   5.372   1.447
 2636TIP3   OH2 7913   0.924   2.875   4.930
 2636TIP3    H1 7914   0.843   2.926   4.933
 2636TIP3    H2 7915   0.916   2.813   5.002
 2637TIP3   OH2 7916   3.974   5.576   4.907
 2637TIP3    H1 7917   4.060   5.567   4.948
 2637TIP3    H2 7918   3.937   5.656   4.944
 2638TIP3   OH2 7919   4.590   4.088   3.460
 2638TIP3    H1 7920   4.580   4.102   3.366
 2638TIP3    H2 7921   4.631   4.002   3.468
 2639TIP3   OH2 7922   1.111   1.283   0.767
 2639TIP3    H1 7923   1.150   1.351   0.822
 2639TIP3    H2 7924   1.021   1.275   0.799
 2640TIP3   OH2 7925   3.034   4.098   1.679
 2640TIP3    H1 7926   3.095   4.168   1.655
 2640TIP3    H2 7927   3.079   4.049   1.748
 2641TIP3   OH2 7928   1.083   4.274   1.120
 2641TIP3    H1 7929   1.097   4.314   1.207
 2641TIP3    H2 7930   1.115   4.340   1.058
 2642TIP3   OH2 7931   2.787   2.415   3.790
 2642TIP3    H1 7932   2.744   2.377   3.713
 2642TIP3    H2 7933   2.747   2.502   3.799
 2643TIP3   OH2 7934   1.190   0.959   1.420
 2643TIP3    H1 7935   1.267   1.011   1.397
 2643TIP3    H2 7936   1.120   0.993   1.365
 2644TIP3   OH2 7937   4.087   4.958   3.910
 2644TIP3    H1 7938   3.995   4.985   3.912
 2644TIP3    H2 7939   4.129   5.023   3.853
 2645TIP3   OH2 7940   2.113   3.038   5.065
 2645TIP3    H1 7941   2.097   2.968   5.002
 2645TIP3    H2 7942   2.112   3.119   5.014
 2646TIP3   OH2 7943   5.458   5.758   4.952
 2646TIP3    H1 7944   5.402   5.728   4.881
 2646TIP3    H2 7945   5.547   5.744   4.919
 2647TIP3   OH2 7946   4.177   4.036   2.875
 2647TIP3    H1 7947   4.158   3.967   2.811
 2647TIP3    H2 7948   4.100   4.037   2.932
 2648TIP3   OH2 7949   0.631   3.056   2.067
 2648TIP3    H1 7950   0.616   2.983   2.127
 2648TIP3    H2 7951   0.594   3.132   2.112
 2649TIP3   OH2 7952   2.105   4.964   2.921
 2649TIP3    H1 7953   2.107   5.059   2.933
 2649TIP3    H2 7954   2.085   4.952   2.828
 2650TIP3   OH2 7955   1.355   3.913   0.305
 2650TIP3    H1 7956   1.300   3.853   0.354
 2650TIP3    H2 7957   1.317   3.999   0.321
 2651TIP3   OH2 7958   1.391   3.618   4.139
 2651TIP3    H1 7959   1.363   3.570   4.217
 2651TIP3    H2 7960   1.437   3.694   4.172
 2652TIP3   OH2 7961   0.011   4.980   1.918
 2652TIP3    H1 7962   0.044   4.902   1.874
 2652TIP3    H2 7963  -0.083   4.979   1.903
 2653TIP3   OH2 7964   3.179   1.029   4.048
 2653TIP3    H1 7965   3.185   1.068   3.961
 2653TIP3    H2 7966   3.242   0.957   4.047
 2654TIP3   OH2 7967   2.041   2.532   1.067
 2654TIP3    H1 7968   1.988   2.575   1.134
 2654TIP3    H2 7969   2.056   2.598   1.000
 2655TIP3   OH2 7970   0.230   4.732   1.096
 2655TIP3    H1 7971   0.169   4.719   1.169
 2655TIP3    H2 7972   0.298   4.788   1.131
 2656TIP3   OH2 7973   5.229   5.697   4.307
 2656TIP3    H1 7974   5.265   5.679   4.220
 2656TIP3    H2 7975   5.162   5.765   4.291
 2657TIP3   OH2 7976   5.052   5.777   4.552
 2657TIP3    H1 7977   4.961   5.802   4.567
 2657TIP3    H2 7978   5.078   5.827   4.474
 2658TIP3   OH2 7979   6.158   0.598   3.597
 2658TIP3    H1 7980   6.187   0.508   3.587
 2658TIP3    H2 7981   6.159   0.634   3.509
 2659TIP3   OH2 7982   1.893   4.139   2.918
 2659TIP3    H1 7983   1.902   4.059   2.970
 2659TIP3    H2 7984   1.852   4.201   2.978
 2660TIP3   OH2 7985   5.099   0.281   0.819
 2660TIP3    H1 7986   5.115   0.368   0.783
 2660TIP3    H2 7987   5.166   0.270   0.886
 2661TIP3   OH2 7988   1.500   4.243   2.342
 2661TIP3    H1 7989   1.527   4.294   2.265
 2661TIP3    H2 7990   1.565   4.173   2.348
 2662TIP3   OH2 7991   3.578   2.190   2.282
 2662TIP3    H1 7992   3.567   2.279   2.249
 2662TIP3    H2 7993   3.575   2.134   2.204
 2663TIP3   OH2 7994   1.818   5.538   0.016
 2663TIP3    H1 7995   1.740   5.583   0.046
 2663TIP3    H2 7996   1.791   5.446   0.009
 2664TIP3   OH2 7997   5.643   0.993   3.930
 2664TIP3    H1 7998   5.678   1.003   3.842
 2664TIP3    H2 7999   5.688   1.061   3.981
 2665TIP3   OH2 8000   3.817   0.417   3.107
 2665TIP3    H1 8001   3.901   0.435   3.064
 2665TIP3    H2 8002   3.769   0.500   3.102
 2666TIP3   OH2 8003   4.166   4.839   0.364
 2666TIP3    H1 8004   4.190   4.801   0.448
 2666TIP3    H2 8005   4.099   4.781   0.329
 2667TIP3   OH2 8006   4.963   5.435   1.500
 2667TIP3    H1 8007   4.872   5.466   1.496
 2667TIP3    H2 8008   5.015   5.515   1.493
 2668TIP3   OH2 8009   4.980   5.839   2.569
 2668TIP3    H1 8010   4.910   5.840   2.503
 2668TIP3    H2 8011   4.965   5.759   2.618
 2669TIP3   OH2 8012   2.833   2.411   2.179
 2669TIP3    H1 8013   2.779   2.390   2.104
 2669TIP3    H2 8014   2.786   2.481   2.224
 2670TIP3   OH2 8015   2.865   5.948   3.590
 2670TIP3    H1 8016   2.794   5.918   3.533
 2670TIP3    H2 8017   2.853   5.900   3.672
 2671TIP3   OH2 8018   1.413   2.560   0.693
 2671TIP3    H1 8019   1.487   2.517   0.649
 2671TIP3    H2 8020   1.336   2.531   0.645
 2672TIP3   OH2 8021   4.788   3.961   1.800
 2672TIP3    H1 8022   4.792   3.865   1.799
 2672TIP3    H2 8023   4.814   3.985   1.888
 2673TIP3   OH2 8024   4.370   1.744   2.947
 2673TIP3    H1 8025   4.388   1.650   2.944
 2673TIP3    H2 8026   4.416   1.775   3.024
 2674TIP3   OH2 8027   5.116   3.712   1.743
 2674TIP3    H1 8028   5.158   3.635   1.705
 2674TIP3    H2 8029   5.105   3.772   1.669
 2675TIP3   OH2 8030   1.760   4.825   0.629
 2675TIP3    H1 8031   1.814   4.782   0.563
 2675TIP3    H2 8032   1.672   4.824   0.591
 2676TIP3   OH2 8033   4.206   0.383   0.263
 2676TIP3    H1 8034   4.158   0.464   0.282
 2676TIP3    H2 8035   4.298   0.408   0.269
 2677TIP3   OH2 8036   1.436   5.272   4.949
 2677TIP3    H1 8037   1.418   5.304   4.861
 2677TIP3    H2 8038   1.362   5.215   4.970
 2678TIP3   OH2 8039   5.529   3.754   4.306
 2678TIP3    H1 8040   5.447   3.746   4.257
 2678TIP3    H2 8041   5.502   3.780   4.394
 2679TIP3   OH2 8042   3.838   1.505   0.934
 2679TIP3    H1 8043   3.859   1.597   0.915
 2679TIP3    H2 8044   3.897   1.482   1.006
 2680TIP3   OH2 8045   5.262   2.374   0.256
 2680TIP3    H1 8046   5.336   2.420   0.216
 2680TIP3    H2 8047   5.277   2.281   0.235
 2681TIP3   OH2 8048   4.531   1.408   1.036
 2681TIP3    H1 8049   4.456   1.464   1.021
 2681TIP3    H2 8050   4.522   1.378   1.126
 2682TIP3   OH2 8051   6.362   4.878   3.968
 2682TIP3    H1 8052   6.382   4.915   4.054
 2682TIP3    H2 8053   6.269   4.897   3.955
 2683TIP3   OH2 8054   0.833   0.162   3.966
 2683TIP3    H1 8055   0.782   0.233   3.928
 2683TIP3    H2 8056   0.923   0.193   3.964
 2684TIP3   OH2 8057   3.288   1.596   3.481
 2684TIP3    H1 8058   3.222   1.591   3.549
 2684TIP3    H2 8059   3.292   1.508   3.444
 2685TIP3   OH2 8060   0.427   2.729   4.792
 2685TIP3    H1 8061   0.518   2.698   4.792
 2685TIP3    H2 8062   0.433   2.821   4.767
 2686TIP3   OH2 8063   5.399   0.359   3.124
 2686TIP3    H1 8064   5.392   0.356   3.029
 2686TIP3    H2 8065   5.336   0.294   3.155
 2687TIP3   OH2 8066   5.763   4.485   3.942
 2687TIP3    H1 8067   5.797   4.439   4.019
 2687TIP3    H2 8068   5.828   4.468   3.874
 2688TIP3   OH2 8069   0.498   4.097   1.420
 2688TIP3    H1 8070   0.539   4.124   1.502
 2688TIP3    H2 8071   0.562   4.037   1.380
 2689TIP3   OH2 8072   3.212   0.144   4.875
 2689TIP3    H1 8073   3.174   0.167   4.790
 2689TIP3    H2 8074   3.268   0.219   4.897
 2690TIP3   OH2 8075   3.605   1.193   4.407
 2690TIP3    H1 8076   3.680   1.187   4.466
 2690TIP3    H2 8077   3.533   1.223   4.463
 2691TIP3   OH2 8078   1.831   2.358   1.340
 2691TIP3    H1 8079   1.814   2.265   1.326
 2691TIP3    H2 8080   1.749   2.401   1.314
 2692TIP3   OH2 8081   1.824   4.966   1.154
 2692TIP3    H1 8082   1.763   5.040   1.151
 2692TIP3    H2 8083   1.830   4.936   1.063
 2693TIP3   OH2 8084   4.574   4.662   4.084
 2693TIP3    H1 8085   4.618   4.745   4.105
 2693TIP3    H2 8086   4.507   4.653   4.150
 2694TIP3   OH2 8087   0.193   5.303   3.186
 2694TIP3    H1 8088   0.199   5.375   3.248
 2694TIP3    H2 8089   0.125   5.245   3.222
 2695TIP3   OH2 8090   5.408   0.820   1.726
 2695TIP3    H1 8091   5.501   0.802   1.721
 2695TIP3    H2 8092   5.377   0.770   1.802
 2696TIP3   OH2 8093   0.914   2.751   1.233
 2696TIP3    H1 8094   0.996   2.768   1.279
 2696TIP3    H2 8095   0.936   2.691   1.163
 2697TIP3   OH2 8096   5.541   2.761   0.007
 2697TIP3    H1 8097   5.635   2.776  -0.004
 2697TIP3    H2 8098   5.518   2.701  -0.065
 2698TIP3   OH2 8099   5.095   4.345   1.323
 2698TIP3    H1 8100   5.004   4.345   1.293
 2698TIP3    H2 8101   5.141   4.292   1.257
 2699TIP3   OH2 8102   4.172   1.267   1.338
 2699TIP3    H1 8103   4.234   1.326   1.381
 2699TIP3    H2 8104   4.146   1.205   1.406
 2700TIP3   OH2 8105   0.382   4.034   3.245
 2700TIP3    H1 8106   0.456   4.025   3.305
 2700TIP3    H2 8107   0.419   4.074   3.167
 2701TIP3   OH2 8108   1.376   5.243   2.361
 2701TIP3    H1 8109   1.338   5.293   2.289
 2701TIP3    H2 8110   1.304   5.189   2.394
 2702TIP3   OH2 8111   6.132   4.827   0.732
 2702TIP3    H1 8112   6.051   4.825   0.783
 2702TIP3    H2 8113   6.197   4.788   0.791
 2703TIP3   OH2 8114   1.544   1.540   4.546
 2703TIP3    H1 8115   1.485   1.465   4.543
 2703TIP3    H2 8116   1.630   1.502   4.565
 2704TIP3   OH2 8117   6.045   1.810   3.134
 2704TIP3    H1 8118   6.107   1.824   3.062
 2704TIP3    H2 8119   6.099   1.773   3.204
 2705TIP3   OH2 8120   1.203   1.233   2.779
 2705TIP3    H1 8121   1.177   1.146   2.808
 2705TIP3    H2 8122   1.165   1.293   2.843
 2706TIP3   OH2 8123   5.052   5.704   3.923
 2706TIP3    H1 8124   5.124   5.729   3.981
 2706TIP3    H2 8125   4.996   5.782   3.919
 2707TIP3   OH2 8126   2.750   3.978   5.092
 2707TIP3    H1 8127   2.703   3.922   5.153
 2707TIP3    H2 8128   2.832   3.999   5.136
 2708TIP3   OH2 8129   5.242   4.241   2.198
 2708TIP3    H1 8130   5.170   4.250   2.136
 2708TIP3    H2 8131   5.273   4.151   2.186
 2709TIP3   OH2 8132   5.613   0.979   2.295
 2709TIP3    H1 8133   5.701   0.978   2.259
 2709TIP3    H2 8134   5.583   1.069   2.281
 2710TIP3   OH2 8135   2.624   2.240   0.440
 2710TIP3    H1 8136   2.654   2.178   0.507
 2710TIP3    H2 8137   2.552   2.195   0.395
 2711TIP3   OH2 8138   5.099   3.906   3.188
 2711TIP3    H1 8139   5.105   4.001   3.193
 2711TIP3    H2 8140   5.007   3.886   3.203
 2712TIP3   OH2 8141   3.760   0.172   0.205
 2712TIP3    H1 8142   3.762   0.266   0.183
 2712TIP3    H2 8143   3.668   0.148   0.193
 2713TIP3   OH2 8144   1.307   2.250   3.369
 2713TIP3    H1 8145   1.393   2.270   3.331
 2713TIP3    H2 8146   1.273   2.336   3.397
 2714TIP3   OH2 8147   3.336   1.798   2.824
 2714TIP3    H1 8148   3.347   1.890   2.848
 2714TIP3    H2 8149   3.256   1.796   2.771
 2715TIP3   OH2 8150   5.172   3.774   0.656
 2715TIP3    H1 8151   5.162   3.725   0.574
 2715TIP3    H2 8152   5.164   3.708   0.725
 2716TIP3   OH2 8153   0.193   0.392   3.328
 2716TIP3    H1 8154   0.256   0.463   3.341
 2716TIP3    H2 8155   0.243   0.321   3.288
 2717TIP3   OH2 8156   3.113   5.927   3.456
 2717TIP3    H1 8157   3.169   5.927   3.534
 2717TIP3    H2 8158   3.025   5.937   3.490
 2718TIP3   OH2 8159   0.541   5.703   1.472
 2718TIP3    H1 8160   0.583   5.733   1.391
 2718TIP3    H2 8161   0.576   5.759   1.540
 2719TIP3   OH2 8162   3.018   1.025   1.278
 2719TIP3    H1 8163   2.976   1.068   1.204
 2719TIP3    H2 8164   3.078   1.092   1.314
 2720TIP3   OH2 8165   0.543   3.597   1.260
 2720TIP3    H1 8166   0.617   3.645   1.298
 2720TIP3    H2 8167   0.506   3.658   1.196
 2721TIP3   OH2 8168   3.893   4.569   2.620
 2721TIP3    H1 8169   3.977   4.606   2.593
 2721TIP3    H2 8170   3.881   4.599   2.710
 2722TIP3   OH2 8171   5.541   4.863   0.432
 2722TIP3    H1 8172   5.479   4.792   0.444
 2722TIP3    H2 8173   5.539   4.912   0.514
 2723TIP3   OH2 8174   0.277   4.433   0.400
 2723TIP3    H1 8175   0.226   4.401   0.325
 2723TIP3    H2 8176   0.213   4.448   0.468
 2724TIP3   OH2 8177   4.354   4.078   3.828
 2724TIP3    H1 8178   4.402   3.997   3.810
 2724TIP3    H2 8179   4.377   4.136   3.755
 2725TIP3   OH2 8180   5.577   1.725   4.882
 2725TIP3    H1 8181   5.509   1.787   4.909
 2725TIP3    H2 8182   5.562   1.713   4.788
 2726TIP3   OH2 8183   4.487   2.861   3.930
 2726TIP3    H1 8184   4.469   2.822   4.016
 2726TIP3    H2 8185   4.452   2.798   3.867
 2727TIP3   OH2 8186   5.336   3.601   3.164
 2727TIP3    H1 8187   5.340   3.513   3.126
 2727TIP3    H2 8188   5.256   3.601   3.215
 2728TIP3   OH2 8189   4.378   2.386   3.897
 2728TIP3    H1 8190   4.352   2.448   3.829
 2728TIP3    H2 8191   4.335   2.304   3.873
 2729TIP3   OH2 8192   2.116   4.763   1.998
 2729TIP3    H1 8193   2.082   4.851   1.984
 2729TIP3    H2 8194   2.070   4.731   2.075
 2730TIP3   OH2 8195   2.268   0.896   0.136
 2730TIP3    H1 8196   2.333   0.870   0.201
 2730TIP3    H2 8197   2.280   0.991   0.126
 2731TIP3   OH2 8198   5.752   4.255   4.666
 2731TIP3    H1 8199   5.696   4.191   4.710
 2731TIP3    H2 8200   5.840   4.220   4.675
 2732TIP3   OH2 8201   5.556   1.008   2.576
 2732TIP3    H1 8202   5.541   0.981   2.485
 2732TIP3    H2 8203   5.652   1.009   2.584
 2733TIP3   OH2 8204   6.300   2.419   4.180
 2733TIP3    H1 8205   6.277   2.481   4.111
 2733TIP3    H2 8206   6.395   2.413   4.177
 2734TIP3   OH2 8207   0.452   2.536   0.282
 2734TIP3    H1 8208   0.448   2.629   0.304
 2734TIP3    H2 8209   0.541   2.511   0.305
 2735TIP3   OH2 8210   5.626   0.668   2.038
 2735TIP3    H1 8211   5.660   0.757   2.025
 2735TIP3    H2 8212   5.684   0.612   1.986
 2736TIP3   OH2 8213   2.951   2.009   4.343
 2736TIP3    H1 8214   3.018   1.941   4.346
 2736TIP3    H2 8215   2.996   2.089   4.371
 2737TIP3   OH2 8216   4.590   5.400   4.978
 2737TIP3    H1 8217   4.615   5.428   5.066
 2737TIP3    H2 8218   4.602   5.305   4.978
 2738TIP3   OH2 8219   5.783   5.295   3.390
 2738TIP3    H1 8220   5.699   5.252   3.377
 2738TIP3    H2 8221   5.809   5.270   3.479
 2739TIP3   OH2 8222   3.562   0.350   2.800
 2739TIP3    H1 8223   3.523   0.436   2.789
 2739TIP3    H2 8224   3.625   0.360   2.871
 2740TIP3   OH2 8225   6.003   1.225   1.817
 2740TIP3    H1 8226   6.033   1.237   1.727
 2740TIP3    H2 8227   6.072   1.264   1.871
 2741TIP3   OH2 8228   2.432   2.506   4.706
 2741TIP3    H1 8229   2.336   2.498   4.709
 2741TIP3    H2 8230   2.461   2.427   4.660
 2742TIP3   OH2 8231   5.472   0.988   1.013
 2742TIP3    H1 8232   5.409   1.019   0.948
 2742TIP3    H2 8233   5.421   0.975   1.093
 2743TIP3   OH2 8234   3.003   2.850   2.453
 2743TIP3    H1 8235   3.046   2.932   2.428
 2743TIP3    H2 8236   2.918   2.877   2.487
 2744TIP3   OH2 8237   2.919   5.911   4.130
 2744TIP3    H1 8238   2.896   5.898   4.222
 2744TIP3    H2 8239   2.838   5.939   4.089
 2745TIP3   OH2 8240   0.799   5.879   0.698
 2745TIP3    H1 8241   0.877   5.897   0.750
 2745TIP3    H2 8242   0.797   5.784   0.690
 2746TIP3   OH2 8243   3.031   1.851   3.489
 2746TIP3    H1 8244   3.079   1.865   3.571
 2746TIP3    H2 8245   3.085   1.892   3.422
 2747TIP3   OH2 8246   2.122   0.199   2.665
 2747TIP3    H1 8247   2.072   0.243   2.596
 2747TIP3    H2 8248   2.186   0.264   2.693
 2748TIP3   OH2 8249   0.839   4.226   1.425
 2748TIP3    H1 8250   0.840   4.285   1.350
 2748TIP3    H2 8251   0.895   4.153   1.398
 2749TIP3   OH2 8252   1.059   3.133   0.303
 2749TIP3    H1 8253   1.086   3.148   0.212
 2749TIP3    H2 8254   1.140   3.141   0.354
 2750TIP3   OH2 8255   1.639   1.851   2.953
 2750TIP3    H1 8256   1.646   1.880   2.863
 2750TIP3    H2 8257   1.634   1.931   3.005
 2751TIP3   OH2 8258   6.091   3.399   4.333
 2751TIP3    H1 8259   6.150   3.434   4.266
 2751TIP3    H2 8260   6.097   3.460   4.406
 2752TIP3   OH2 8261   2.856   3.903   2.678
 2752TIP3    H1 8262   2.796   3.978   2.686
 2752TIP3    H2 8263   2.915   3.911   2.753
 2753TIP3   OH2 8264   0.672   2.436   4.280
 2753TIP3    H1 8265   0.580   2.416   4.293
 2753TIP3    H2 8266   0.685   2.429   4.185
 2754TIP3   OH2 8267   4.683   3.162   3.228
 2754TIP3    H1 8268   4.612   3.105   3.198
 2754TIP3    H2 8269   4.665   3.176   3.321
 2755TIP3   OH2 8270   1.962   0.805   3.225
 2755TIP3    H1 8271   1.929   0.820   3.313
 2755TIP3    H2 8272   1.890   0.831   3.167
 2756TIP3   OH2 8273   4.429   4.623   4.351
 2756TIP3    H1 8274   4.346   4.667   4.335
 2756TIP3    H2 8275   4.473   4.677   4.417
 2757TIP3   OH2 8276   6.123   0.050   1.886
 2757TIP3    H1 8277   6.051   0.017   1.832
 2757TIP3    H2 8278   6.201   0.009   1.848
 2758TIP3   OH2 8279   6.155   5.261   5.084
 2758TIP3    H1 8280   6.133   5.218   5.166
 2758TIP3    H2 8281   6.205   5.339   5.110
 2759TIP3   OH2 8282   6.081   5.483   1.145
 2759TIP3    H1 8283   6.090   5.393   1.176
 2759TIP3    H2 8284   6.015   5.522   1.202
 2760TIP3   OH2 8285   4.010   5.612   3.320
 2760TIP3    H1 8286   4.069   5.550   3.364
 2760TIP3    H2 8287   3.989   5.677   3.387
 2761TIP3   OH2 8288   0.489   1.805   0.348
 2761TIP3    H1 8289   0.531   1.868   0.290
 2761TIP3    H2 8290   0.404   1.788   0.307
 2762TIP3   OH2 8291   1.100   2.259   1.266
 2762TIP3    H1 8292   1.017   2.221   1.296
 2762TIP3    H2 8293   1.114   2.220   1.180
 2763TIP3   OH2 8294   2.664   3.543   2.830
 2763TIP3    H1 8295   2.735   3.560   2.768
 2763TIP3    H2 8296   2.629   3.458   2.805
 2764TIP3   OH2 8297   4.605   1.872   3.105
 2764TIP3    H1 8298   4.668   1.930   3.147
 2764TIP3    H2 8299   4.604   1.793   3.159
 2765TIP3   OH2 8300   3.683   0.476   4.669
 2765TIP3    H1 8301   3.728   0.532   4.606
 2765TIP3    H2 8302   3.753   0.430   4.715
 2766TIP3   OH2 8303   4.703   5.032   1.708
 2766TIP3    H1 8304   4.700   5.045   1.614
 2766TIP3    H2 8305   4.629   5.082   1.742
 2767TIP3   OH2 8306   1.774   0.852   0.504
 2767TIP3    H1 8307   1.727   0.931   0.530
 2767TIP3    H2 8308   1.720   0.811   0.437
 2768TIP3   OH2 8309   3.234   1.587   1.349
 2768TIP3    H1 8310   3.207   1.498   1.325
 2768TIP3    H2 8311   3.153   1.638   1.347
 2769TIP3   OH2 8312   5.801   0.412   4.781
 2769TIP3    H1 8313   5.788   0.339   4.842
 2769TIP3    H2 8314   5.768   0.489   4.827
 2770TIP3   OH2 8315   0.223   5.678   2.533
 2770TIP3    H1 8316   0.261   5.673   2.445
 2770TIP3    H2 8317   0.199   5.588   2.554
 2771TIP3   OH2 8318   6.332   5.087   3.291
 2771TIP3    H1 8319   6.244   5.120   3.308
 2771TIP3    H2 8320   6.319   5.001   3.251
 2772TIP3   OH2 8321   1.593   0.193   2.782
 2772TIP3    H1 8322   1.550   0.265   2.827
 2772TIP3    H2 8323   1.562   0.199   2.692
 2773TIP3   OH2 8324   3.204   4.108   0.051
 2773TIP3    H1 8325   3.293   4.128   0.083
 2773TIP3    H2 8326   3.209   4.016   0.024
 2774TIP3   OH2 8327   4.727   5.058   2.431
 2774TIP3    H1 8328   4.747   5.031   2.521
 2774TIP3    H2 8329   4.710   4.976   2.385
 2775TIP3   OH2 8330   2.977   0.331   1.997
 2775TIP3    H1 8331   3.066   0.299   1.983
 2775TIP3    H2 8332   2.942   0.344   1.908
 2776TIP3   OH2 8333   3.161   5.729   3.835
 2776TIP3    H1 8334   3.075   5.690   3.846
 2776TIP3    H2 8335   3.145   5.812   3.789
 2777TIP3   OH2 8336   4.651   2.140   0.089
 2777TIP3    H1 8337   4.611   2.053   0.082
 2777TIP3    H2 8338   4.581   2.200   0.064
 2778TIP3   OH2 8339   6.227   2.895   2.721
 2778TIP3    H1 8340   6.206   2.938   2.804
 2778TIP3    H2 8341   6.143   2.893   2.674
 2779TIP3   OH2 8342   5.928   5.001   1.199
 2779TIP3    H1 8343   5.929   4.928   1.260
 2779TIP3    H2 8344   6.017   5.003   1.163
 2780TIP3   OH2 8345   0.759   4.296   4.170
 2780TIP3    H1 8346   0.712   4.271   4.091
 2780TIP3    H2 8347   0.739   4.389   4.183
 2781TIP3   OH2 8348   3.841   5.625   4.006
 2781TIP3    H1 8349   3.883   5.556   3.954
 2781TIP3    H2 8350   3.747   5.611   3.994
 2782TIP3   OH2 8351   4.694   3.923   3.934
 2782TIP3    H1 8352   4.670   3.872   4.011
 2782TIP3    H2 8353   4.750   3.993   3.967
 2783TIP3   OH2 8354   1.686   1.439   3.889
 2783TIP3    H1 8355   1.607   1.470   3.932
 2783TIP3    H2 8356   1.691   1.490   3.808
 2784TIP3   OH2 8357   3.617   1.180   1.183
 2784TIP3    H1 8358   3.709   1.156   1.168
 2784TIP3    H2 8359   3.608   1.182   1.278
 2785TIP3   OH2 8360   2.820   4.609   0.594
 2785TIP3    H1 8361   2.770   4.659   0.659
 2785TIP3    H2 8362   2.910   4.608   0.629
 2786TIP3   OH2 8363   6.126   5.208   1.528
 2786TIP3    H1 8364   6.165   5.282   1.481
 2786TIP3    H2 8365   6.188   5.136   1.514
 2787TIP3   OH2 8366   3.032   1.661   4.092
 2787TIP3    H1 8367   2.992   1.748   4.082
 2787TIP3    H2 8368   2.968   1.600   4.057
 2788TIP3   OH2 8369   4.430   4.305   0.131
 2788TIP3    H1 8370   4.507   4.250   0.147
 2788TIP3    H2 8371   4.462   4.377   0.076
 2789TIP3   OH2 8372   4.018   3.698   1.219
 2789TIP3    H1 8373   3.933   3.681   1.259
 2789TIP3    H2 8374   3.999   3.709   1.126
 2790TIP3   OH2 8375   2.729   5.748   0.122
 2790TIP3    H1 8376   2.736   5.653   0.113
 2790TIP3    H2 8377   2.690   5.778   0.040
 2791TIP3   OH2 8378   5.248   1.274   3.770
 2791TIP3    H1 8379   5.196   1.196   3.749
 2791TIP3    H2 8380   5.266   1.313   3.684
 2792TIP3   OH2 8381   4.578   5.956   1.027
 2792TIP3    H1 8382   4.588   5.869   0.988
 2792TIP3    H2 8383   4.663   5.974   1.067
 2793TIP3   OH2 8384   6.349   0.637   1.963
 2793TIP3    H1 8385   6.341   0.690   2.042
 2793TIP3    H2 8386   6.313   0.552   1.988
 2794TIP3   OH2 8387   4.325   4.138   2.659
 2794TIP3    H1 8388   4.380   4.206   2.698
 2794TIP3    H2 8389   4.298   4.084   2.734
 2795TIP3   OH2 8390   0.701   1.257   0.639
 2795TIP3    H1 8391   0.764   1.257   0.568
 2795TIP3    H2 8392   0.617   1.276   0.597
 2796TIP3   OH2 8393   0.161   2.820   4.934
 2796TIP3    H1 8394   0.204   2.902   4.960
 2796TIP3    H2 8395   0.206   2.795   4.853
 2797TIP3   OH2 8396  -0.017   1.577   4.134
 2797TIP3    H1 8397   0.054   1.614   4.082
 2797TIP3    H2 8398   0.018   1.573   4.223
 2798TIP3   OH2 8399   0.052   2.538   2.544
 2798TIP3    H1 8400   0.056   2.616   2.600
 2798TIP3    H2 8401   0.005   2.473   2.597
 2799TIP3   OH2 8402   1.774   5.290   3.986
 2799TIP3    H1 8403   1.728   5.374   3.983
 2799TIP3    H2 8404   1.722   5.236   4.046
 2800TIP3   OH2 8405   5.310   4.983   4.088
 2800TIP3    H1 8406   5.283   5.047   4.154
 2800TIP3    H2 8407   5.241   4.918   4.087
 2801TIP3   OH2 8408   0.243   4.967   1.661
 2801TIP3    H1 8409   0.262   5.002   1.749
 2801TIP3    H2 8410   0.282   4.879   1.661
 2802TIP3   OH2 8411   5.971   0.920   1.843
 2802TIP3    H1 8412   5.985   1.007   1.805
 2802TIP3    H2 8413   6.016   0.861   1.783
 2803TIP3   OH2 8414   1.614   4.445   0.912
 2803TIP3    H1 8415   1.594   4.467   0.821
 2803TIP3    H2 8416   1.692   4.390   0.905
 2804TIP3   OH2 8417   5.402   5.908   1.247
 2804TIP3    H1 8418   5.494   5.916   1.273
 2804TIP3    H2 8419   5.357   5.976   1.298
 2805TIP3   OH2 8420   0.194   3.582   5.059
 2805TIP3    H1 8421   0.221   3.492   5.038
 2805TIP3    H2 8422   0.270   3.621   5.102
 2806TIP3   OH2 8423   0.579   0.729   1.179
 2806TIP3    H1 8424   0.515   0.665   1.210
 2806TIP3    H2 8425   0.622   0.761   1.259
 2807TIP3   OH2 8426   2.381   5.957   5.173
 2807TIP3    H1 8427   2.308   5.917   5.126
 2807TIP3    H2 8428   2.340   6.014   5.238
 2808TIP3   OH2 8429   3.738   3.204   1.422
 2808TIP3    H1 8430   3.819   3.248   1.397
 2808TIP3    H2 8431   3.733   3.214   1.517
 2809TIP3   OH2 8432   2.881   1.326   3.184
 2809TIP3    H1 8433   2.841   1.363   3.262
 2809TIP3    H2 8434   2.913   1.401   3.134
 2810TIP3   OH2 8435   2.462   4.654   4.757
 2810TIP3    H1 8436   2.387   4.713   4.765
 2810TIP3    H2 8437   2.436   4.574   4.803
 2811TIP3   OH2 8438   2.302   4.597   1.640
 2811TIP3    H1 8439   2.328   4.637   1.723
 2811TIP3    H2 8440   2.353   4.516   1.636
 2812TIP3   OH2 8441   0.401   4.473   1.952
 2812TIP3    H1 8442   0.437   4.550   1.995
 2812TIP3    H2 8443   0.310   4.470   1.980
 2813TIP3   OH2 8444   5.161   2.619   2.656
 2813TIP3    H1 8445   5.111   2.538   2.668
 2813TIP3    H2 8446   5.231   2.595   2.595
 2814TIP3   OH2 8447   1.273   5.667   1.549
 2814TIP3    H1 8448   1.221   5.732   1.502
 2814TIP3    H2 8449   1.225   5.585   1.537
 2815TIP3   OH2 8450   1.403   0.514   2.461
 2815TIP3    H1 8451   1.337   0.583   2.468
 2815TIP3    H2 8452   1.410   0.496   2.368
 2816TIP3   OH2 8453   0.778   1.152   0.298
 2816TIP3    H1 8454   0.787   1.110   0.384
 2816TIP3    H2 8455   0.684   1.147   0.279
 2817TIP3   OH2 8456   4.334   1.680   0.286
 2817TIP3    H1 8457   4.366   1.766   0.311
 2817TIP3    H2 8458   4.258   1.699   0.231
 2818TIP3   OH2 8459   3.130   3.173   3.075
 2818TIP3    H1 8460   3.100   3.119   3.147
 2818TIP3    H2 8461   3.207   3.219   3.108
 2819TIP3   OH2 8462   4.298   0.666   4.009
 2819TIP3    H1 8463   4.377   0.714   4.035
 2819TIP3    H2 8464   4.302   0.661   3.914
 2820TIP3   OH2 8465   1.160   3.620   3.309
 2820TIP3    H1 8466   1.126   3.576   3.386
 2820TIP3    H2 8467   1.149   3.713   3.328
 2821TIP3   OH2 8468   0.413   0.957   4.216
 2821TIP3    H1 8469   0.433   0.887   4.154
 2821TIP3    H2 8470   0.321   0.977   4.201
 2822TIP3   OH2 8471   1.127   2.844   3.738
 2822TIP3    H1 8472   1.064   2.796   3.685
 2822TIP3    H2 8473   1.200   2.783   3.750
 2823TIP3   OH2 8474   5.516   5.294   1.701
 2823TIP3    H1 8475   5.521   5.293   1.797
 2823TIP3    H2 8476   5.575   5.224   1.673
 2824TIP3   OH2 8477   3.224   0.506   2.785
 2824TIP3    H1 8478   3.217   0.500   2.881
 2824TIP3    H2 8479   3.230   0.600   2.768
 2825TIP3   OH2 8480   2.308   3.692   1.993
 2825TIP3    H1 8481   2.400   3.674   2.011
 2825TIP3    H2 8482   2.294   3.780   2.030
 2826TIP3   OH2 8483   2.936   2.645   0.611
 2826TIP3    H1 8484   2.990   2.676   0.538
 2826TIP3    H2 8485   2.866   2.709   0.618
 2827TIP3   OH2 8486   2.030   1.315   4.625
 2827TIP3    H1 8487   1.987   1.244   4.674
 2827TIP3    H2 8488   2.120   1.285   4.613
 2828TIP3   OH2 8489   6.207   2.679   3.630
 2828TIP3    H1 8490   6.227   2.645   3.543
 2828TIP3    H2 8491   6.226   2.606   3.689
 2829TIP3   OH2 8492   5.933   2.745   3.653
 2829TIP3    H1 8493   6.028   2.737   3.643
 2829TIP3    H2 8494   5.898   2.661   3.623
 2830TIP3   OH2 8495   3.801   4.153   0.674
 2830TIP3    H1 8496   3.895   4.146   0.689
 2830TIP3    H2 8497   3.787   4.110   0.590
 2831TIP3   OH2 8498   6.079   4.568   4.713
 2831TIP3    H1 8499   6.090   4.501   4.645
 2831TIP3    H2 8500   6.036   4.641   4.668
 2832TIP3   OH2 8501   6.090   1.684   1.060
 2832TIP3    H1 8502   6.039   1.689   0.980
 2832TIP3    H2 8503   6.123   1.594   1.062
 2833TIP3   OH2 8504   0.370   3.588   3.428
 2833TIP3    H1 8505   0.324   3.633   3.499
 2833TIP3    H2 8506   0.302   3.561   3.367
 2834TIP3   OH2 8507   0.506   0.138   3.387
 2834TIP3    H1 8508   0.529   0.052   3.422
 2834TIP3    H2 8509   0.418   0.127   3.351
 2835TIP3   OH2 8510   0.557   3.453   2.286
 2835TIP3    H1 8511   0.577   3.389   2.218
 2835TIP3    H2 8512   0.582   3.537   2.248
 2836TIP3   OH2 8513   2.030   0.039   1.478
 2836TIP3    H1 8514   2.031   0.046   1.574
 2836TIP3    H2 8515   1.938   0.049   1.455
 2837TIP3   OH2 8516   0.929   3.946   1.116
 2837TIP3    H1 8517   0.922   3.851   1.107
 2837TIP3    H2 8518   0.974   3.975   1.036
 2838TIP3   OH2 8519   2.376   2.371   1.860
 2838TIP3    H1 8520   2.347   2.460   1.842
 2838TIP3    H2 8521   2.370   2.363   1.955
 2839TIP3   OH2 8522   2.142   0.673   0.222
 2839TIP3    H1 8523   2.183   0.754   0.194
 2839TIP3    H2 8524   2.215   0.620   0.255
 2840TIP3   OH2 8525   2.278   2.102   4.371
 2840TIP3    H1 8526   2.322   2.027   4.333
 2840TIP3    H2 8527   2.246   2.071   4.456
 2841TIP3   OH2 8528   5.228   3.167   1.936
 2841TIP3    H1 8529   5.199   3.182   1.846
 2841TIP3    H2 8530   5.179   3.231   1.988
 2842TIP3   OH2 8531   5.986   5.893   2.538
 2842TIP3    H1 8532   5.960   5.983   2.554
 2842TIP3    H2 8533   5.905   5.847   2.519
 2843TIP3   OH2 8534   4.450   0.456   0.144
 2843TIP3    H1 8535   4.407   0.383   0.099
 2843TIP3    H2 8536   4.531   0.470   0.095
 2844TIP3   OH2 8537   0.003   1.618   0.047
 2844TIP3    H1 8538   0.095   1.593   0.037
 2844TIP3    H2 8539   0.006   1.703   0.091
 2845TIP3   OH2 8540   2.460   5.338   3.591
 2845TIP3    H1 8541   2.379   5.303   3.553
 2845TIP3    H2 8542   2.429   5.403   3.655
 2846TIP3   OH2 8543   0.754   5.073   3.132
 2846TIP3    H1 8544   0.776   5.144   3.071
 2846TIP3    H2 8545   0.817   5.004   3.111
 2847TIP3   OH2 8546   2.084   3.063   0.549
 2847TIP3    H1 8547   2.052   3.003   0.616
 2847TIP3    H2 8548   2.016   3.130   0.543
 2848TIP3   OH2 8549   3.814   3.945   3.792
 2848TIP3    H1 8550   3.812   4.038   3.770
 2848TIP3    H2 8551   3.891   3.935   3.849
 2849TIP3   OH2 8552   2.528   2.120   1.832
 2849TIP3    H1 8553   2.581   2.098   1.756
 2849TIP3    H2 8554   2.476   2.195   1.804
 2850TIP3   OH2 8555   0.209   0.792   5.078
 2850TIP3    H1 8556   0.289   0.833   5.110
 2850TIP3    H2 8557   0.142   0.816   5.142
 2851TIP3   OH2 8558   5.877   5.623   0.217
 2851TIP3    H1 8559   5.849   5.571   0.292
 2851TIP3    H2 8560   5.809   5.609   0.151
 2852TIP3   OH2 8561   5.883   3.104   1.539
 2852TIP3    H1 8562   5.801   3.081   1.495
 2852TIP3    H2 8563   5.913   3.183   1.495
 2853TIP3   OH2 8564   3.063   4.141   3.275
 2853TIP3    H1 8565   3.107   4.062   3.244
 2853TIP3    H2 8566   3.135   4.204   3.288
 2854TIP3   OH2 8567   2.244   1.508   1.785
 2854TIP3    H1 8568   2.314   1.514   1.721
 2854TIP3    H2 8569   2.286   1.523   1.869
 2855TIP3   OH2 8570   6.157   0.584   1.323
 2855TIP3    H1 8571   6.230   0.639   1.349
 2855TIP3    H2 8572   6.084   0.614   1.378
 2856TIP3   OH2 8573   5.665   0.459   2.254
 2856TIP3    H1 8574   5.703   0.515   2.187
 2856TIP3    H2 8575   5.658   0.373   2.212
 2857TIP3   OH2 8576   4.475   1.451   4.728
 2857TIP3    H1 8577   4.474   1.411   4.815
 2857TIP3    H2 8578   4.551   1.413   4.684
 2858TIP3   OH2 8579   5.135   1.610   2.149
 2858TIP3    H1 8580   5.210   1.638   2.096
 2858TIP3    H2 8581   5.172   1.591   2.235
 2859TIP3   OH2 8582   1.241   0.720   1.500
 2859TIP3    H1 8583   1.209   0.799   1.456
 2859TIP3    H2 8584   1.193   0.718   1.583
 2860TIP3   OH2 8585   3.671   3.262   1.688
 2860TIP3    H1 8586   3.701   3.340   1.735
 2860TIP3    H2 8587   3.577   3.258   1.705
 2861TIP3   OH2 8588   5.854   2.730   3.981
 2861TIP3    H1 8589   5.915   2.762   4.047
 2861TIP3    H2 8590   5.883   2.770   3.900
 2862TIP3   OH2 8591   1.444   5.487   0.906
 2862TIP3    H1 8592   1.372   5.550   0.902
 2862TIP3    H2 8593   1.473   5.490   0.997
 2863TIP3   OH2 8594   5.094   3.221   1.700
 2863TIP3    H1 8595   5.125   3.255   1.616
 2863TIP3    H2 8596   5.028   3.284   1.729
 2864TIP3   OH2 8597   2.146   2.632   2.513
 2864TIP3    H1 8598   2.121   2.571   2.443
 2864TIP3    H2 8599   2.088   2.610   2.586
 2865TIP3   OH2 8600   5.363   5.466   4.414
 2865TIP3    H1 8601   5.445   5.507   4.388
 2865TIP3    H2 8602   5.307   5.539   4.439
 2866TIP3   OH2 8603   1.846   1.990   2.453
 2866TIP3    H1 8604   1.750   1.993   2.460
 2866TIP3    H2 8605   1.875   1.975   2.543
 2867TIP3   OH2 8606   3.969   1.733   5.183
 2867TIP3    H1 8607   3.991   1.646   5.215
 2867TIP3    H2 8608   4.053   1.769   5.153
 2868TIP3   OH2 8609   0.800   4.775   3.416
 2868TIP3    H1 8610   0.742   4.707   3.450
 2868TIP3    H2 8611   0.788   4.771   3.321
 2869TIP3   OH2 8612   2.847   0.992   0.474
 2869TIP3    H1 8613   2.862   0.987   0.379
 2869TIP3    H2 8614   2.823   1.083   0.490
 2870TIP3   OH2 8615   0.364   2.373   1.294
 2870TIP3    H1 8616   0.311   2.294   1.283
 2870TIP3    H2 8617   0.385   2.400   1.205
 2871TIP3   OH2 8618   6.285   1.765   3.808
 2871TIP3    H1 8619   6.268   1.747   3.901
 2871TIP3    H2 8620   6.380   1.776   3.803
 2872TIP3   OH2 8621   0.897   4.874   3.695
 2872TIP3    H1 8622   0.890   4.893   3.601
 2872TIP3    H2 8623   0.950   4.945   3.730
 2873TIP3   OH2 8624   3.456   5.468   0.482
 2873TIP3    H1 8625   3.541   5.497   0.449
 2873TIP3    H2 8626   3.472   5.443   0.573
 2874TIP3   OH2 8627   2.257   2.789   4.523
 2874TIP3    H1 8628   2.283   2.767   4.433
 2874TIP3    H2 8629   2.184   2.730   4.542
 2875TIP3   OH2 8630   5.120   3.735   2.968
 2875TIP3    H1 8631   5.189   3.771   2.913
 2875TIP3    H2 8632   5.127   3.784   3.050
 2876TIP3   OH2 8633   5.097   0.211   3.685
 2876TIP3    H1 8634   5.114   0.274   3.616
 2876TIP3    H2 8635   5.055   0.137   3.641
 2877TIP3   OH2 8636   4.044   5.738   3.084
 2877TIP3    H1 8637   3.964   5.791   3.073
 2877TIP3    H2 8638   4.021   5.675   3.153
 2878TIP3   OH2 8639   3.283   1.544   0.201
 2878TIP3    H1 8640   3.352   1.493   0.243
 2878TIP3    H2 8641   3.207   1.531   0.257
 2879TIP3   OH2 8642   1.433   1.639   3.714
 2879TIP3    H1 8643   1.408   1.641   3.806
 2879TIP3    H2 8644   1.522   1.677   3.713
 2880TIP3   OH2 8645   5.405   4.000   2.257
 2880TIP3    H1 8646   5.337   3.934   2.268
 2880TIP3    H2 8647   5.453   3.973   2.179
 2881TIP3   OH2 8648   4.465   2.917   2.312
 2881TIP3    H1 8649   4.556   2.928   2.283
 2881TIP3    H2 8650   4.413   2.938   2.234
 2882TIP3   OH2 8651   1.160   5.466   4.200
 2882TIP3    H1 8652   1.199   5.550   4.227
 2882TIP3    H2 8653   1.210   5.439   4.123
 2883TIP3   OH2 8654   0.497   2.338   2.527
 2883TIP3    H1 8655   0.434   2.291   2.472
 2883TIP3    H2 8656   0.508   2.422   2.483
 2884TIP3   OH2 8657   4.543   2.886   1.660
 2884TIP3    H1 8658   4.570   2.831   1.733
 2884TIP3    H2 8659   4.622   2.901   1.609
 2885TIP3   OH2 8660   2.240   3.476   3.504
 2885TIP3    H1 8661   2.300   3.420   3.455
 2885TIP3    H2 8662   2.162   3.423   3.516
 2886TIP3   OH2 8663   1.828   1.369   2.513
 2886TIP3    H1 8664   1.756   1.409   2.563
 2886TIP3    H2 8665   1.846   1.287   2.559
 2887TIP3   OH2 8666   3.709   1.310   0.224
 2887TIP3    H1 8667   3.646   1.380   0.240
 2887TIP3    H2 8668   3.657   1.237   0.189
 2888TIP3   OH2 8669   1.355   2.778   3.551
 2888TIP3    H1 8670   1.396   2.712   3.494
 2888TIP3    H2 8671   1.428   2.811   3.604
 2889TIP3   OH2 8672   5.357   2.328   1.789
 2889TIP3    H1 8673   5.337   2.421   1.776
 2889TIP3    H2 8674   5.431   2.327   1.849
 2890TIP3   OH2 8675   3.973   3.631   2.204
 2890TIP3    H1 8676   3.966   3.603   2.113
 2890TIP3    H2 8677   3.925   3.714   2.208
 2891TIP3   OH2 8678   5.387   0.576   1.137
 2891TIP3    H1 8679   5.298   0.605   1.159
 2891TIP3    H2 8680   5.441   0.653   1.147
 2892TIP3   OH2 8681   1.795   5.543   1.792
 2892TIP3    H1 8682   1.847   5.513   1.719
 2892TIP3    H2 8683   1.705   5.542   1.760
 2893TIP3   OH2 8684   6.126   3.940   4.850
 2893TIP3    H1 8685   6.211   3.895   4.852
 2893TIP3    H2 8686   6.099   3.945   4.942
 2894TIP3   OH2 8687   3.561   5.699   2.708
 2894TIP3    H1 8688   3.527   5.755   2.777
 2894TIP3    H2 8689   3.655   5.714   2.708
 2895TIP3   OH2 8690   5.006   3.385   0.281
 2895TIP3    H1 8691   5.093   3.418   0.258
 2895TIP3    H2 8692   4.982   3.432   0.361
 2896TIP3   OH2 8693   3.564   3.589   0.506
 2896TIP3    H1 8694   3.506   3.551   0.440
 2896TIP3    H2 8695   3.505   3.636   0.566
 2897TIP3   OH2 8696   0.380   4.586   2.816
 2897TIP3    H1 8697   0.419   4.665   2.853
 2897TIP3    H2 8698   0.444   4.517   2.833
 2898TIP3   OH2 8699   3.709   5.006   4.807
 2898TIP3    H1 8700   3.803   5.018   4.819
 2898TIP3    H2 8701   3.696   5.012   4.713
 2899TIP3   OH2 8702   1.832   2.983   4.729
 2899TIP3    H1 8703   1.888   3.039   4.675
 2899TIP3    H2 8704   1.850   2.894   4.697
 2900TIP3   OH2 8705   4.061   2.337   0.925
 2900TIP3    H1 8706   4.070   2.383   1.008
 2900TIP3    H2 8707   4.011   2.258   0.947
 2901TIP3   OH2 8708   4.450   3.714   4.955
 2901TIP3    H1 8709   4.483   3.787   4.902
 2901TIP3    H2 8710   4.383   3.753   5.011
 2902TIP3   OH2 8711   1.957   1.444   5.079
 2902TIP3    H1 8712   1.913   1.503   5.017
 2902TIP3    H2 8713   1.934   1.356   5.049
 2903TIP3   OH2 8714   4.521   2.354   1.311
 2903TIP3    H1 8715   4.433   2.389   1.316
 2903TIP3    H2 8716   4.545   2.358   1.219
 2904TIP3   OH2 8717   1.933   3.215   1.039
 2904TIP3    H1 8718   1.880   3.288   1.071
 2904TIP3    H2 8719   1.978   3.183   1.117
 2905TIP3   OH2 8720   4.575   0.700   2.883
 2905TIP3    H1 8721   4.576   0.773   2.946
 2905TIP3    H2 8722   4.484   0.696   2.853
 2906TIP3   OH2 8723   5.287   0.712   5.121
 2906TIP3    H1 8724   5.320   0.756   5.199
 2906TIP3    H2 8725   5.268   0.623   5.151
 2907TIP3   OH2 8726   6.243   2.687   0.624
 2907TIP3    H1 8727   6.209   2.614   0.574
 2907TIP3    H2 8728   6.336   2.691   0.602
 2908TIP3   OH2 8729   2.109   3.284   3.148
 2908TIP3    H1 8730   2.157   3.362   3.118
 2908TIP3    H2 8731   2.079   3.242   3.068
 2909TIP3   OH2 8732   4.760   1.238   1.516
 2909TIP3    H1 8733   4.818   1.313   1.507
 2909TIP3    H2 8734   4.743   1.232   1.610
 2910TIP3   OH2 8735   2.189   3.481   2.184
 2910TIP3    H1 8736   2.104   3.515   2.156
 2910TIP3    H2 8737   2.252   3.546   2.154
 2911TIP3   OH2 8738   2.478   1.457   1.289
 2911TIP3    H1 8739   2.526   1.523   1.239
 2911TIP3    H2 8740   2.404   1.434   1.233
 2912TIP3   OH2 8741   1.610   1.110   3.595
 2912TIP3    H1 8742   1.671   1.173   3.634
 2912TIP3    H2 8743   1.547   1.164   3.547
 2913TIP3   OH2 8744   1.090   5.608   1.959
 2913TIP3    H1 8745   1.040   5.656   1.893
 2913TIP3    H2 8746   1.112   5.525   1.916
 2914TIP3   OH2 8747   2.243   3.823   1.728
 2914TIP3    H1 8748   2.233   3.758   1.797
 2914TIP3    H2 8749   2.166   3.812   1.673
 2915TIP3   OH2 8750   5.117   4.376   3.503
 2915TIP3    H1 8751   5.185   4.365   3.437
 2915TIP3    H2 8752   5.147   4.325   3.578
 2916TIP3   OH2 8753   4.188   5.725   4.186
 2916TIP3    H1 8754   4.246   5.795   4.218
 2916TIP3    H2 8755   4.107   5.737   4.235
 2917TIP3   OH2 8756   4.261   5.561   2.332
 2917TIP3    H1 8757   4.356   5.556   2.319
 2917TIP3    H2 8758   4.225   5.530   2.249
 2918TIP3   OH2 8759   3.363   5.327   1.317
 2918TIP3    H1 8760   3.341   5.264   1.248
 2918TIP3    H2 8761   3.453   5.304   1.342
 2919TIP3   OH2 8762   4.335   5.752   4.862
 2919TIP3    H1 8763   4.344   5.845   4.885
 2919TIP3    H2 8764   4.292   5.712   4.938
 2920TIP3   OH2 8765   5.397   3.492   2.290
 2920TIP3    H1 8766   5.407   3.576   2.335
 2920TIP3    H2 8767   5.420   3.510   2.199
 2921TIP3   OH2 8768   4.249   0.058   4.530
 2921TIP3    H1 8769   4.178   0.040   4.592
 2921TIP3    H2 8770   4.205   0.093   4.453
 2922TIP3   OH2 8771   5.044   1.831   1.273
 2922TIP3    H1 8772   5.032   1.812   1.180
 2922TIP3    H2 8773   4.991   1.909   1.289
 2923TIP3   OH2 8774   0.523   1.168   3.948
 2923TIP3    H1 8775   0.564   1.252   3.971
 2923TIP3    H2 8776   0.555   1.107   4.014
 2924TIP3   OH2 8777   0.464   5.305   2.182
 2924TIP3    H1 8778   0.526   5.376   2.201
 2924TIP3    H2 8779   0.380   5.350   2.167
 2925TIP3   OH2 8780   0.702   1.877   2.391
 2925TIP3    H1 8781   0.618   1.855   2.350
 2925TIP3    H2 8782   0.715   1.969   2.370
 2926TIP3   OH2 8783   4.603   5.178   0.517
 2926TIP3    H1 8784   4.604   5.273   0.532
 2926TIP3    H2 8785   4.683   5.146   0.559
 2927TIP3   OH2 8786   4.159   3.439   3.469
 2927TIP3    H1 8787   4.081   3.465   3.420
 2927TIP3    H2 8788   4.125   3.403   3.551
 2928TIP3   OH2 8789   4.734   4.052   4.921
 2928TIP3    H1 8790   4.760   3.982   4.981
 2928TIP3    H2 8791   4.671   4.011   4.862
 2929TIP3   OH2 8792   5.081   3.161   3.616
 2929TIP3    H1 8793   5.031   3.236   3.648
 2929TIP3    H2 8794   5.024   3.120   3.551
 2930TIP3   OH2 8795   3.032   1.581   2.786
 2930TIP3    H1 8796   3.123   1.558   2.808
 2930TIP3    H2 8797   3.040   1.637   2.709
 2931TIP3   OH2 8798   3.832   5.819   5.002
 2931TIP3    H1 8799   3.758   5.843   5.058
 2931TIP3    H2 8800   3.909   5.845   5.053
 2932TIP3   OH2 8801   0.448   2.336   4.985
 2932TIP3    H1 8802   0.523   2.314   5.041
 2932TIP3    H2 8803   0.387   2.263   4.998
 2933TIP3   OH2 8804   1.626   1.369   4.210
 2933TIP3    H1 8805   1.553   1.322   4.168
 2933TIP3    H2 8806   1.650   1.313   4.285
 2934TIP3   OH2 8807   1.465   3.438   0.586
 2934TIP3    H1 8808   1.376   3.454   0.554
 2934TIP3    H2 8809   1.458   3.358   0.637
 2935TIP3   OH2 8810   1.926   1.771   3.437
 2935TIP3    H1 8811   1.846   1.742   3.394
 2935TIP3    H2 8812   1.902   1.854   3.478
 2936TIP3   OH2 8813   4.541   0.661   3.451
 2936TIP3    H1 8814   4.457   0.673   3.406
 2936TIP3    H2 8815   4.556   0.743   3.497
 2937TIP3   OH2 8816   3.511   4.690   4.134
 2937TIP3    H1 8817   3.490   4.610   4.182
 2937TIP3    H2 8818   3.606   4.700   4.143
 2938TIP3   OH2 8819   1.970   5.687   5.117
 2938TIP3    H1 8820   1.965   5.615   5.179
 2938TIP3    H2 8821   1.986   5.646   5.032
 2939TIP3   OH2 8822   0.350   1.308   4.426
 2939TIP3    H1 8823   0.267   1.261   4.422
 2939TIP3    H2 8824   0.416   1.243   4.403
 2940TIP3   OH2 8825   4.150   4.718   4.312
 2940TIP3    H1 8826   4.143   4.810   4.287
 2940TIP3    H2 8827   4.144   4.670   4.229
 2941TIP3   OH2 8828   3.200   5.927   4.467
 2941TIP3    H1 8829   3.154   5.945   4.549
 2941TIP3    H2 8830   3.195   5.832   4.457
 2942TIP3   OH2 8831   1.213   2.709   4.234
 2942TIP3    H1 8832   1.192   2.743   4.321
 2942TIP3    H2 8833   1.185   2.778   4.174
 2943TIP3   OH2 8834   1.263   4.485   0.257
 2943TIP3    H1 8835   1.289   4.515   0.170
 2943TIP3    H2 8836   1.171   4.461   0.248
 2944TIP3   OH2 8837   3.456   1.316   4.652
 2944TIP3    H1 8838   3.469   1.228   4.689
 2944TIP3    H2 8839   3.364   1.335   4.667
 2945TIP3   OH2 8840   4.875   4.832   3.576
 2945TIP3    H1 8841   4.870   4.838   3.671
 2945TIP3    H2 8842   4.788   4.858   3.546
 2946TIP3   OH2 8843   2.894   5.028   4.255
 2946TIP3    H1 8844   2.895   4.968   4.329
 2946TIP3    H2 8845   2.807   5.016   4.216
 2947TIP3   OH2 8846   4.391   0.260   1.553
 2947TIP3    H1 8847   4.320   0.211   1.595
 2947TIP3    H2 8848   4.455   0.273   1.622
 2948TIP3   OH2 8849   0.401   3.969   0.373
 2948TIP3    H1 8850   0.390   4.051   0.420
 2948TIP3    H2 8851   0.436   3.995   0.287
 2949TIP3   OH2 8852   5.904   1.109   0.504
 2949TIP3    H1 8853   5.838   1.072   0.563
 2949TIP3    H2 8854   5.863   1.187   0.467
 2950TIP3   OH2 8855   5.406   2.496   2.467
 2950TIP3    H1 8856   5.392   2.584   2.433
 2950TIP3    H2 8857   5.434   2.445   2.391
 2951TIP3   OH2 8858   3.244   2.723   1.063
 2951TIP3    H1 8859   3.187   2.709   1.138
 2951TIP3    H2 8860   3.184   2.730   0.989
 2952TIP3   OH2 8861   3.594   2.463   4.988
 2952TIP3    H1 8862   3.687   2.463   4.964
 2952TIP3    H2 8863   3.548   2.480   4.906
 2953TIP3   OH2 8864   0.357   4.397   0.044
 2953TIP3    H1 8865   0.432   4.384   0.102
 2953TIP3    H2 8866   0.281   4.375   0.097
 2954TIP3   OH2 8867   5.790   3.075   0.219
 2954TIP3    H1 8868   5.794   3.132   0.142
 2954TIP3    H2 8869   5.881   3.067   0.247
 2955TIP3   OH2 8870   2.604   2.312   2.495
 2955TIP3    H1 8871   2.530   2.352   2.449
 2955TIP3    H2 8872   2.577   2.311   2.587
 2956TIP3   OH2 8873   2.123   4.619   2.297
 2956TIP3    H1 8874   2.043   4.567   2.312
 2956TIP3    H2 8875   2.096   4.709   2.314
 2957TIP3   OH2 8876   3.876   4.035   2.331
 2957TIP3    H1 8877   3.876   4.070   2.241
 2957TIP3    H2 8878   3.783   4.036   2.356
 2958TIP3   OH2 8879   1.918   4.059   0.860
 2958TIP3    H1 8880   1.833   4.103   0.871
 2958TIP3    H2 8881   1.977   4.107   0.919
 2959TIP3   OH2 8882   0.444   3.850   4.882
 2959TIP3    H1 8883   0.411   3.905   4.953
 2959TIP3    H2 8884   0.534   3.831   4.906
 2960TIP3   OH2 8885   5.613   5.262   0.783
 2960TIP3    H1 8886   5.547   5.259   0.852
 2960TIP3    H2 8887   5.682   5.319   0.817
 2961TIP3   OH2 8888   0.372   3.242   3.103
 2961TIP3    H1 8889   0.280   3.226   3.125
 2961TIP3    H2 8890   0.380   3.337   3.098
 2962TIP3   OH2 8891   5.770   5.578   1.084
 2962TIP3    H1 8892   5.676   5.563   1.073
 2962TIP3    H2 8893   5.786   5.562   1.177
 2963TIP3   OH2 8894   5.086   2.920   0.344
 2963TIP3    H1 8895   5.167   2.970   0.350
 2963TIP3    H2 8896   5.112   2.837   0.304
 2964TIP3   OH2 8897   4.081   4.256   2.490
 2964TIP3    H1 8898   4.089   4.243   2.395
 2964TIP3    H2 8899   4.149   4.320   2.511
 2965TIP3   OH2 8900   1.241   2.717   2.678
 2965TIP3    H1 8901   1.204   2.714   2.589
 2965TIP3    H2 8902   1.219   2.805   2.709
 2966TIP3   OH2 8903   3.717   0.563   1.858
 2966TIP3    H1 8904   3.724   0.471   1.883
 2966TIP3    H2 8905   3.680   0.606   1.935
 2967TIP3   OH2 8906   2.420   4.192   1.344
 2967TIP3    H1 8907   2.389   4.190   1.254
 2967TIP3    H2 8908   2.360   4.251   1.389
 2968TIP3   OH2 8909   4.994   4.527   2.985
 2968TIP3    H1 8910   5.087   4.510   2.964
 2968TIP3    H2 8911   4.996   4.582   3.063
 2969TIP3   OH2 8912   2.405   0.437   3.398
 2969TIP3    H1 8913   2.342   0.397   3.458
 2969TIP3    H2 8914   2.451   0.502   3.450
 2970TIP3   OH2 8915   4.720   0.281   3.794
 2970TIP3    H1 8916   4.742   0.355   3.736
 2970TIP3    H2 8917   4.631   0.301   3.825
 2971TIP3   OH2 8918   6.203   0.109   0.988
 2971TIP3    H1 8919   6.151   0.187   1.006
 2971TIP3    H2 8920   6.141   0.048   0.947
 2972TIP3   OH2 8921   4.308   0.173   2.785
 2972TIP3    H1 8922   4.390   0.198   2.828
 2972TIP3    H2 8923   4.254   0.140   2.857
 2973TIP3   OH2 8924   5.318   1.037   0.764
 2973TIP3    H1 8925   5.360   0.968   0.712
 2973TIP3    H2 8926   5.232   1.049   0.724
 2974TIP3   OH2 8927   2.618   0.439   1.918
 2974TIP3    H1 8928   2.530   0.453   1.885
 2974TIP3    H2 8929   2.641   0.350   1.889
 2975TIP3   OH2 8930   3.721   0.191   2.648
 2975TIP3    H1 8931   3.772   0.241   2.584
 2975TIP3    H2 8932   3.678   0.258   2.701
 2976TIP3   OH2 8933   2.191   0.476   1.312
 2976TIP3    H1 8934   2.142   0.407   1.267
 2976TIP3    H2 8935   2.271   0.433   1.342
 2977TIP3   OH2 8936   1.365   5.354   0.631
 2977TIP3    H1 8937   1.446   5.393   0.598
 2977TIP3    H2 8938   1.384   5.335   0.723
 2978TIP3   OH2 8939   2.153   5.424   0.670
 2978TIP3    H1 8940   2.062   5.454   0.662
 2978TIP3    H2 8941   2.158   5.349   0.611
 2979TIP3   OH2 8942   3.542   1.319   2.119
 2979TIP3    H1 8943   3.629   1.323   2.081
 2979TIP3    H2 8944   3.515   1.410   2.128
 2980TIP3   OH2 8945   3.451   2.224   0.302
 2980TIP3    H1 8946   3.379   2.187   0.251
 2980TIP3    H2 8947   3.514   2.152   0.309
 2981TIP3   OH2 8948   3.298   2.838   4.011
 2981TIP3    H1 8949   3.218   2.794   4.041
 2981TIP3    H2 8950   3.320   2.898   4.082
 2982TIP3   OH2 8951   4.795   4.266   5.110
 2982TIP3    H1 8952   4.843   4.335   5.063
 2982TIP3    H2 8953   4.783   4.197   5.044
 2983TIP3   OH2 8954   4.837   4.818   0.825
 2983TIP3    H1 8955   4.774   4.857   0.886
 2983TIP3    H2 8956   4.898   4.888   0.805
 2984TIP3   OH2 8957   3.898   1.814   0.304
 2984TIP3    H1 8958   3.953   1.799   0.228
 2984TIP3    H2 8959   3.812   1.837   0.267
 2985TIP3   OH2 8960   4.387   5.359   3.596
 2985TIP3    H1 8961   4.461   5.342   3.654
 2985TIP3    H2 8962   4.423   5.354   3.508
 2986TIP3   OH2 8963   1.750   2.094   1.259
 2986TIP3    H1 8964   1.809   2.023   1.234
 2986TIP3    H2 8965   1.674   2.051   1.297
 2987TIP3   OH2 8966   1.843   1.509   0.035
 2987TIP3    H1 8967   1.926   1.545   0.067
 2987TIP3    H2 8968   1.821   1.564  -0.041
 2988TIP3   OH2 8969   2.359   3.477   2.616
 2988TIP3    H1 8970   2.434   3.424   2.643
 2988TIP3    H2 8971   2.286   3.446   2.669
 2989TIP3   OH2 8972   1.322   1.264   3.244
 2989TIP3    H1 8973   1.234   1.247   3.209
 2989TIP3    H2 8974   1.379   1.263   3.168
 2990TIP3   OH2 8975   5.043   1.449   4.680
 2990TIP3    H1 8976   5.122   1.462   4.731
 2990TIP3    H2 8977   4.972   1.482   4.736
 2991TIP3   OH2 8978   0.145   2.455   0.108
 2991TIP3    H1 8979   0.082   2.383   0.097
 2991TIP3    H2 8980   0.179   2.443   0.196
 2992TIP3   OH2 8981   0.340   2.418   3.148
 2992TIP3    H1 8982   0.360   2.506   3.117
 2992TIP3    H2 8983   0.261   2.428   3.201
 2993TIP3   OH2 8984   2.382   1.535   3.774
 2993TIP3    H1 8985   2.443   1.521   3.701
 2993TIP3    H2 8986   2.434   1.515   3.852
 2994TIP3   OH2 8987   1.461   2.603   5.011
 2994TIP3    H1 8988   1.502   2.682   4.976
 2994TIP3    H2 8989   1.384   2.590   4.955
 2995TIP3   OH2 8990   4.976   5.420   3.539
 2995TIP3    H1 8991   5.067   5.390   3.536
 2995TIP3    H2 8992   4.931   5.354   3.592
 2996TIP3   OH2 8993   3.203   2.089   4.824
 2996TIP3    H1 8994   3.183   2.027   4.754
 2996TIP3    H2 8995   3.121   2.136   4.840
 2997TIP3   OH2 8996   2.029   1.242   3.274
 2997TIP3    H1 8997   1.991   1.221   3.359
 2997TIP3    H2 8998   2.106   1.296   3.294
 2998TIP3   OH2 8999   0.400   5.183   1.024
 2998TIP3    H1 9000   0.473   5.213   1.079
 2998TIP3    H2 9001   0.404   5.088   1.028
 2999TIP3   OH2 9002   1.388   3.876   4.245
 2999TIP3    H1 9003   1.397   3.966   4.214
 2999TIP3    H2 9004   1.343   3.884   4.329
 3000TIP3   OH2 9005   5.557   2.752   1.959
 3000TIP3    H1 9006   5.611   2.796   1.894
 3000TIP3    H2 9007   5.493   2.818   1.987
 3001TIP3   OH2 9008   0.005   3.971   0.828
 3001TIP3    H1 9009   0.012   4.039   0.760
 3001TIP3    H2 9010   0.060   4.003   0.899
 3002TIP3   OH2 9011   1.385   3.863   3.186
 3002TIP3    H1 9012   1.292   3.878   3.203
 3002TIP3    H2 9013   1.428   3.944   3.214
 3003TIP3   OH2 9014   4.807   3.675   4.365
 3003TIP3    H1 9015   4.879   3.717   4.412
 3003TIP3    H2 9016   4.848   3.601   4.320
 3004TIP3   OH2 9017   5.025   1.277   1.637
 3004TIP3    H1 9018   5.097   1.258   1.697
 3004TIP3    H2 9019   4.978   1.350   1.678
 3005TIP3   OH2 9020   1.174   5.242   1.296
 3005TIP3    H1 9021   1.167   5.149   1.318
 3005TIP3    H2 9022   1.084   5.272   1.284
 3006TIP3   OH2 9023   3.477   4.505   4.328
 3006TIP3    H1 9024   3.469   4.410   4.332
 3006TIP3    H2 9025   3.496   4.532   4.417
 3007TIP3   OH2 9026   2.973   1.122   2.309
 3007TIP3    H1 9027   3.046   1.185   2.304
 3007TIP3    H2 9028   2.901   1.172   2.346
 3008TIP3   OH2 9029   2.956   4.421   5.036
 3008TIP3    H1 9030   2.885   4.478   5.007
 3008TIP3    H2 9031   3.035   4.474   5.026
 3009TIP3   OH2 9032   4.854   4.614   0.645
 3009TIP3    H1 9033   4.847   4.653   0.732
 3009TIP3    H2 9034   4.853   4.689   0.585
 3010TIP3   OH2 9035   5.860   3.645   4.613
 3010TIP3    H1 9036   5.802   3.571   4.597
 3010TIP3    H2 9037   5.946   3.606   4.626
 3011TIP3   OH2 9038   0.209   3.477   3.750
 3011TIP3    H1 9039   0.193   3.388   3.782
 3011TIP3    H2 9040   0.164   3.480   3.666
 3012TIP3   OH2 9041   2.028   3.292   3.975
 3012TIP3    H1 9042   1.968   3.329   3.910
 3012TIP3    H2 9043   2.015   3.346   4.053
 3013TIP3   OH2 9044   2.527   0.219   2.686
 3013TIP3    H1 9045   2.473   0.290   2.651
 3013TIP3    H2 9046   2.610   0.227   2.639
 3014TIP3   OH2 9047   2.366   4.500   5.161
 3014TIP3    H1 9048   2.368   4.405   5.169
 3014TIP3    H2 9049   2.425   4.532   5.229
 3015TIP3   OH2 9050   3.578   0.689   3.578
 3015TIP3    H1 9051   3.497   0.718   3.538
 3015TIP3    H2 9052   3.552   0.618   3.637
 3016TIP3   OH2 9053   2.601   0.134   2.133
 3016TIP3    H1 9054   2.667   0.195   2.165
 3016TIP3    H2 9055   2.580   0.166   2.045
 3017TIP3   OH2 9056   3.396   0.015   4.290
 3017TIP3    H1 9057   3.355   0.005   4.376
 3017TIP3    H2 9058   3.331   0.063   4.239
 3018TIP3   OH2 9059   5.284   3.227   4.592
 3018TIP3    H1 9060   5.377   3.247   4.597
 3018TIP3    H2 9061   5.262   3.234   4.499
 3019TIP3   OH2 9062   5.313   5.038   1.072
 3019TIP3    H1 9063   5.257   4.989   1.011
 3019TIP3    H2 9064   5.251   5.081   1.132
 3020TIP3   OH2 9065   5.780   5.338   5.071
 3020TIP3    H1 9066   5.686   5.351   5.073
 3020TIP3    H2 9067   5.814   5.416   5.025
 3021TIP3   OH2 9068   0.159   1.332   0.295
 3021TIP3    H1 9069   0.169   1.274   0.370
 3021TIP3    H2 9070   0.064   1.345   0.287
 3022TIP3   OH2 9071   2.059   0.595   4.616
 3022TIP3    H1 9072   2.100   0.617   4.533
 3022TIP3    H2 9073   2.068   0.675   4.668
 3023TIP3   OH2 9074   2.713   1.750   0.140
 3023TIP3    H1 9075   2.753   1.707   0.216
 3023TIP3    H2 9076   2.783   1.751   0.074
 3024TIP3   OH2 9077   1.642   1.335   4.889
 3024TIP3    H1 9078   1.583   1.401   4.926
 3024TIP3    H2 9079   1.643   1.354   4.795
 3025TIP3   OH2 9080   3.587   4.333   0.582
 3025TIP3    H1 9081   3.672   4.377   0.588
 3025TIP3    H2 9082   3.594   4.277   0.504
 3026TIP3   OH2 9083   1.615   3.376   4.451
 3026TIP3    H1 9084   1.623   3.287   4.415
 3026TIP3    H2 9085   1.670   3.374   4.530
 3027TIP3   OH2 9086   2.210   1.901   2.698
 3027TIP3    H1 9087   2.225   1.864   2.785
 3027TIP3    H2 9088   2.115   1.898   2.687
 3028TIP3   OH2 9089   3.212   1.582   3.165
 3028TIP3    H1 9090   3.139   1.639   3.141
 3028TIP3    H2 9091   3.193   1.556   3.255
 3029TIP3   OH2 9092   0.622   0.562   3.616
 3029TIP3    H1 9093   0.541   0.564   3.667
 3029TIP3    H2 9094   0.601   0.505   3.541
 3030TIP3   OH2 9095   3.593   5.335   0.203
 3030TIP3    H1 9096   3.577   5.324   0.110
 3030TIP3    H2 9097   3.508   5.316   0.244
 3031TIP3   OH2 9098   2.467   2.387   3.273
 3031TIP3    H1 9099   2.514   2.373   3.191
 3031TIP3    H2 9100   2.449   2.481   3.275
 3032TIP3   OH2 9101   1.641   2.074   4.072
 3032TIP3    H1 9102   1.618   1.991   4.114
 3032TIP3    H2 9103   1.718   2.054   4.019
 3033TIP3   OH2 9104   3.990   2.020   3.362
 3033TIP3    H1 9105   4.000   2.023   3.458
 3033TIP3    H2 9106   3.934   2.095   3.342
 3034TIP3   OH2 9107   3.618   5.000   3.742
 3034TIP3    H1 9108   3.607   5.073   3.803
 3034TIP3    H2 9109   3.612   5.040   3.655
 3035TIP3   OH2 9110   2.482   3.767   2.632
 3035TIP3    H1 9111   2.477   3.673   2.650
 3035TIP3    H2 9112   2.478   3.774   2.536
 3036TIP3   OH2 9113   2.533   4.241   4.139
 3036TIP3    H1 9114   2.623   4.238   4.107
 3036TIP3    H2 9115   2.479   4.215   4.064
 3037TIP3   OH2 9116   1.175   1.436   1.953
 3037TIP3    H1 9117   1.226   1.364   1.990
 3037TIP3    H2 9118   1.086   1.422   1.986
 3038TIP3   OH2 9119   4.707   3.809   0.093
 3038TIP3    H1 9120   4.742   3.808   0.182
 3038TIP3    H2 9121   4.767   3.865   0.044
 3039TIP3   OH2 9122   5.325   0.651   4.041
 3039TIP3    H1 9123   5.388   0.686   3.978
 3039TIP3    H2 9124   5.271   0.591   3.989
 3040TIP3   OH2 9125   4.224   5.292   2.173
 3040TIP3    H1 9126   4.245   5.221   2.113
 3040TIP3    H2 9127   4.302   5.303   2.227
 3041TIP3   OH2 9128   5.994   2.143   4.297
 3041TIP3    H1 9129   5.919   2.202   4.297
 3041TIP3    H2 9130   5.957   2.057   4.280
 3042TIP3   OH2 9131   0.580   4.454   0.896
 3042TIP3    H1 9132   0.598   4.449   0.990
 3042TIP3    H2 9133   0.486   4.439   0.888
 3043TIP3   OH2 9134   0.657   5.293   2.443
 3043TIP3    H1 9135   0.746   5.264   2.463
 3043TIP3    H2 9136   0.605   5.264   2.518
 3044TIP3   OH2 9137   2.386   5.071   2.201
 3044TIP3    H1 9138   2.297   5.062   2.233
 3044TIP3    H2 9139   2.420   4.982   2.196
 3045TIP3   OH2 9140   0.202   4.237   4.602
 3045TIP3    H1 9141   0.192   4.230   4.508
 3045TIP3    H2 9142   0.210   4.146   4.632
 3046TIP3   OH2 9143   2.267   1.465   1.117
 3046TIP3    H1 9144   2.304   1.491   1.033
 3046TIP3    H2 9145   2.239   1.375   1.104
 3047TIP3   OH2 9146   3.666   1.543   1.569
 3047TIP3    H1 9147   3.599   1.546   1.501
 3047TIP3    H2 9148   3.660   1.455   1.604
 3048TIP3   OH2 9149   2.367   1.498   2.042
 3048TIP3    H1 9150   2.324   1.542   2.116
 3048TIP3    H2 9151   2.453   1.473   2.076
 3049TIP3   OH2 9152   5.054   4.257   1.965
 3049TIP3    H1 9153   5.096   4.172   1.953
 3049TIP3    H2 9154   4.961   4.236   1.976
 3050TIP3   OH2 9155   6.208   0.601   1.045
 3050TIP3    H1 9156   6.184   0.629   1.133
 3050TIP3    H2 9157   6.272   0.532   1.059
 3051TIP3   OH2 9158   5.519   1.486   5.007
 3051TIP3    H1 9159   5.578   1.504   5.081
 3051TIP3    H2 9160   5.539   1.554   4.943
 3052TIP3   OH2 9161   4.391   0.223   1.287
 3052TIP3    H1 9162   4.303   0.200   1.258
 3052TIP3    H2 9163   4.382   0.235   1.382
 3053TIP3   OH2 9164   2.721   2.649   2.260
 3053TIP3    H1 9165   2.742   2.738   2.229
 3053TIP3    H2 9166   2.640   2.627   2.213
 3054TIP3   OH2 9167   5.243   1.650   4.766
 3054TIP3    H1 9168   5.269   1.712   4.834
 3054TIP3    H2 9169   5.229   1.568   4.813
 3055TIP3   OH2 9170   4.524   0.520   1.814
 3055TIP3    H1 9171   4.551   0.431   1.789
 3055TIP3    H2 9172   4.599   0.575   1.792
 3056TIP3   OH2 9173   0.746   1.578   1.723
 3056TIP3    H1 9174   0.813   1.646   1.730
 3056TIP3    H2 9175   0.673   1.621   1.677
 3057TIP3   OH2 9176   5.978   0.842   0.063
 3057TIP3    H1 9177   6.024   0.760   0.081
 3057TIP3    H2 9178   6.014   0.904   0.126
 3058TIP3   OH2 9179   2.260   5.589   4.743
 3058TIP3    H1 9180   2.212   5.659   4.786
 3058TIP3    H2 9181   2.200   5.514   4.743
 3059TIP3   OH2 9182   5.719   5.768   2.505
 3059TIP3    H1 9183   5.711   5.714   2.583
 3059TIP3    H2 9184   5.657   5.840   2.518
 3060TIP3   OH2 9185   2.152   1.248   1.367
 3060TIP3    H1 9186   2.080   1.310   1.356
 3060TIP3    H2 9187   2.165   1.210   1.279
 3061TIP3   OH2 9188   0.031   1.584   1.719
 3061TIP3    H1 9189   0.045   1.493   1.693
 3061TIP3    H2 9190   0.119   1.621   1.723
 3062TIP3   OH2 9191   2.818   5.848   3.837
 3062TIP3    H1 9192   2.834   5.931   3.882
 3062TIP3    H2 9193   2.859   5.782   3.894
 3063TIP3   OH2 9194   5.161   5.385   2.284
 3063TIP3    H1 9195   5.172   5.293   2.311
 3063TIP3    H2 9196   5.213   5.434   2.347
 3064TIP3   OH2 9197   1.946   5.043   4.195
 3064TIP3    H1 9198   1.862   5.014   4.160
 3064TIP3    H2 9199   1.925   5.086   4.278
 3065TIP3   OH2 9200   0.222   0.599   2.685
 3065TIP3    H1 9201   0.253   0.516   2.722
 3065TIP3    H2 9202   0.287   0.621   2.619
 3066TIP3   OH2 9203   6.192   5.563   4.053
 3066TIP3    H1 9204   6.244   5.641   4.076
 3066TIP3    H2 9205   6.190   5.564   3.957
 3067TIP3   OH2 9206   5.025   2.277   1.032
 3067TIP3    H1 9207   4.984   2.341   0.974
 3067TIP3    H2 9208   4.986   2.293   1.118
 3068TIP3   OH2 9209   0.063   4.793   0.492
 3068TIP3    H1 9210   0.014   4.862   0.536
 3068TIP3    H2 9211   0.132   4.839   0.445
 3069TIP3   OH2 9212   5.612   4.144   2.015
 3069TIP3    H1 9213   5.543   4.170   1.953
 3069TIP3    H2 9214   5.684   4.205   1.997
 3070TIP3   OH2 9215   6.290   5.499   5.141
 3070TIP3    H1 9216   6.321   5.549   5.066
 3070TIP3    H2 9217   6.268   5.564   5.207
 3071TIP3   OH2 9218   0.888   0.184   3.295
 3071TIP3    H1 9219   0.902   0.160   3.387
 3071TIP3    H2 9220   0.900   0.103   3.247
 3072TIP3   OH2 9221   0.097   3.693   4.220
 3072TIP3    H1 9222   0.125   3.602   4.208
 3072TIP3    H2 9223   0.053   3.715   4.137
 3073TIP3   OH2 9224   5.275   0.968   2.376
 3073TIP3    H1 9225   5.354   0.923   2.347
 3073TIP3    H2 9226   5.301   1.012   2.457
 3074TIP3   OH2 9227   3.391   2.330   5.160
 3074TIP3    H1 9228   3.369   2.368   5.075
 3074TIP3    H2 9229   3.464   2.271   5.142
 3075TIP3   OH2 9230   2.597   1.892   0.404
 3075TIP3    H1 9231   2.504   1.896   0.430
 3075TIP3    H2 9232   2.628   1.810   0.442
 3076TIP3   OH2 9233   0.139   2.227   1.802
 3076TIP3    H1 9234   0.145   2.233   1.897
 3076TIP3    H2 9235   0.225   2.252   1.770
 3077TIP3   OH2 9236   1.657   3.716   3.961
 3077TIP3    H1 9237   1.747   3.687   3.976
 3077TIP3    H2 9238   1.626   3.661   3.889
 3078TIP3   OH2 9239   5.742   4.063   4.135
 3078TIP3    H1 9240   5.714   3.994   4.195
 3078TIP3    H2 9241   5.832   4.082   4.161
 3079TIP3   OH2 9242   5.643   4.033   4.777
 3079TIP3    H1 9243   5.720   3.988   4.743
 3079TIP3    H2 9244   5.574   3.967   4.777
 3080TIP3   OH2 9245   1.897   4.161   4.623
 3080TIP3    H1 9246   1.876   4.072   4.595
 3080TIP3    H2 9247   1.993   4.162   4.631
 3081TIP3   OH2 9248   0.516   3.809   0.129
 3081TIP3    H1 9249   0.428   3.836   0.153
 3081TIP3    H2 9250   0.569   3.888   0.139
 3082TIP3   OH2 9251   0.710   3.780   4.955
 3082TIP3    H1 9252   0.760   3.831   5.018
 3082TIP3    H2 9253   0.763   3.782   4.875
 3083TIP3   OH2 9254   0.178   4.138   3.703
 3083TIP3    H1 9255   0.258   4.100   3.668
 3083TIP3    H2 9256   0.171   4.223   3.659
 3084TIP3   OH2 9257   5.452   5.577   3.204
 3084TIP3    H1 9258   5.387   5.581   3.134
 3084TIP3    H2 9259   5.504   5.500   3.184
 3085TIP3   OH2 9260   2.872   2.938   3.718
 3085TIP3    H1 9261   2.941   2.921   3.653
 3085TIP3    H2 9262   2.917   2.986   3.788
 3086TIP3   OH2 9263   1.514   4.837   1.580
 3086TIP3    H1 9264   1.485   4.812   1.492
 3086TIP3    H2 9265   1.592   4.891   1.565
 3087TIP3   OH2 9266   3.421   0.270   4.101
 3087TIP3    H1 9267   3.373   0.326   4.162
 3087TIP3    H2 9268   3.353   0.220   4.056
 3088TIP3   OH2 9269   1.975   1.749   4.061
 3088TIP3    H1 9270   2.038   1.693   4.016
 3088TIP3    H2 9271   1.897   1.693   4.072
 3089TIP3   OH2 9272   2.335   2.715   3.543
 3089TIP3    H1 9273   2.243   2.741   3.556
 3089TIP3    H2 9274   2.336   2.673   3.457
 3090TIP3   OH2 9275   5.590   2.111   4.439
 3090TIP3    H1 9276   5.665   2.171   4.443
 3090TIP3    H2 9277   5.542   2.138   4.361
 3091TIP3   OH2 9278   4.366   1.457   4.465
 3091TIP3    H1 9279   4.388   1.457   4.558
 3091TIP3    H2 9280   4.440   1.412   4.423
 3092TIP3   OH2 9281   4.145   4.972   4.217
 3092TIP3    H1 9282   4.161   5.062   4.244
 3092TIP3    H2 9283   4.118   4.979   4.126
 3093TIP3   OH2 9284   2.666   4.035   3.939
 3093TIP3    H1 9285   2.580   4.073   3.918
 3093TIP3    H2 9286   2.727   4.082   3.882
 3094TIP3   OH2 9287   2.648   1.907   0.887
 3094TIP3    H1 9288   2.679   1.989   0.924
 3094TIP3    H2 9289   2.552   1.914   0.890
 3095TIP3   OH2 9290   3.352   5.331   4.618
 3095TIP3    H1 9291   3.439   5.309   4.586
 3095TIP3    H2 9292   3.365   5.352   4.711
 3096TIP3   OH2 9293   0.866   2.060   1.038
 3096TIP3    H1 9294   0.806   2.126   1.004
 3096TIP3    H2 9295   0.808   1.994   1.078
 3097TIP3   OH2 9296   0.491   4.128   4.464
 3097TIP3    H1 9297   0.442   4.048   4.446
 3097TIP3    H2 9298   0.529   4.153   4.380
 3098TIP3   OH2 9299   5.013   0.318   2.036
 3098TIP3    H1 9300   4.979   0.240   1.994
 3098TIP3    H2 9301   4.970   0.321   2.122
 3099TIP3   OH2 9302   1.785   4.576   3.117
 3099TIP3    H1 9303   1.692   4.598   3.116
 3099TIP3    H2 9304   1.826   4.643   3.062
 3100TIP3   OH2 9305   1.811   1.091   0.105
 3100TIP3    H1 9306   1.775   1.002   0.098
 3100TIP3    H2 9307   1.902   1.082   0.078
 3101TIP3   OH2 9308   1.878   2.694   5.183
 3101TIP3    H1 9309   1.932   2.655   5.115
 3101TIP3    H2 9310   1.822   2.757   5.138
 3102TIP3   OH2 9311   2.049   1.407   0.602
 3102TIP3    H1 9312   2.077   1.317   0.583
 3102TIP3    H2 9313   1.967   1.418   0.554
 3103TIP3   OH2 9314   0.353   3.838   2.801
 3103TIP3    H1 9315   0.289   3.884   2.747
 3103TIP3    H2 9316   0.321   3.847   2.890
 3104TIP3   OH2 9317   3.646   2.343   0.804
 3104TIP3    H1 9318   3.733   2.342   0.765
 3104TIP3    H2 9319   3.597   2.407   0.752
 3105TIP3   OH2 9320   5.104   5.927   4.290
 3105TIP3    H1 9321   5.011   5.947   4.295
 3105TIP3    H2 9322   5.147   6.012   4.285
 3106TIP3   OH2 9323   4.800   3.839   5.151
 3106TIP3    H1 9324   4.888   3.807   5.170
 3106TIP3    H2 9325   4.749   3.760   5.134
 3107TIP3   OH2 9326   1.830   1.603   2.052
 3107TIP3    H1 9327   1.919   1.635   2.039
 3107TIP3    H2 9328   1.779   1.643   1.981
 3108TIP3   OH2 9329   0.374   3.903   1.962
 3108TIP3    H1 9330   0.402   3.994   1.970
 3108TIP3    H2 9331   0.330   3.884   2.045
 3109TIP3   OH2 9332   3.970   0.295   1.872
 3109TIP3    H1 9333   4.006   0.351   1.941
 3109TIP3    H2 9334   3.876   0.295   1.889
 3110TIP3   OH2 9335   0.265   3.293   1.580
 3110TIP3    H1 9336   0.336   3.293   1.644
 3110TIP3    H2 9337   0.310   3.297   1.495
 3111TIP3   OH2 9338   3.481   1.416   2.745
 3111TIP3    H1 9339   3.575   1.430   2.730
 3111TIP3    H2 9340   3.449   1.501   2.775
 3112TIP3   OH2 9341   2.332   2.620   1.106
 3112TIP3    H1 9342   2.267   2.574   1.054
 3112TIP3    H2 9343   2.380   2.673   1.043
 3113TIP3   OH2 9344   6.101   3.736   3.406
 3113TIP3    H1 9345   6.115   3.828   3.431
 3113TIP3    H2 9346   6.166   3.721   3.338
 3114TIP3   OH2 9347   3.857   3.364   4.202
 3114TIP3    H1 9348   3.781   3.321   4.164
 3114TIP3    H2 9349   3.901   3.294   4.252
 3115TIP3   OH2 9350   0.872   2.397   3.797
 3115TIP3    H1 9351   0.799   2.400   3.734
 3115TIP3    H2 9352   0.916   2.315   3.778
 3116TIP3   OH2 9353   4.095   3.787   0.584
 3116TIP3    H1 9354   4.147   3.822   0.657
 3116TIP3    H2 9355   4.116   3.844   0.511
 3117TIP3   OH2 9356   1.815   3.888   4.518
 3117TIP3    H1 9357   1.761   3.868   4.442
 3117TIP3    H2 9358   1.793   3.820   4.581
 3118TIP3   OH2 9359   5.063   3.102   4.016
 3118TIP3    H1 9360   5.036   3.040   3.949
 3118TIP3    H2 9361   5.157   3.113   4.002
 3119TIP3   OH2 9362   1.272   5.057   3.124
 3119TIP3    H1 9363   1.311   5.084   3.207
 3119TIP3    H2 9364   1.184   5.028   3.148
 3120TIP3   OH2 9365   4.865   4.074   1.090
 3120TIP3    H1 9366   4.880   4.047   1.000
 3120TIP3    H2 9367   4.896   4.165   1.093
 3121TIP3   OH2 9368   4.945   1.125   0.298
 3121TIP3    H1 9369   4.941   1.205   0.351
 3121TIP3    H2 9370   4.950   1.054   0.363
 3122TIP3   OH2 9371   2.300   3.586   4.558
 3122TIP3    H1 9372   2.357   3.641   4.611
 3122TIP3    H2 9373   2.339   3.588   4.471
 3123TIP3   OH2 9374   0.851   1.768   0.211
 3123TIP3    H1 9375   0.787   1.705   0.179
 3123TIP3    H2 9376   0.898   1.796   0.132
 3124TIP3   OH2 9377   5.260   3.376   3.720
 3124TIP3    H1 9378   5.252   3.412   3.632
 3124TIP3    H2 9379   5.192   3.309   3.725
 3125TIP3   OH2 9380   3.879   1.313   4.156
 3125TIP3    H1 9381   3.961   1.355   4.132
 3125TIP3    H2 9382   3.905   1.243   4.216
 3126TIP3   OH2 9383   0.115   3.109   0.153
 3126TIP3    H1 9384   0.180   3.135   0.220
 3126TIP3    H2 9385   0.068   3.190   0.134
 3127TIP3   OH2 9386   4.254   3.287   0.100
 3127TIP3    H1 9387   4.269   3.204   0.056
 3127TIP3    H2 9388   4.330   3.341   0.077
 3128TIP3   OH2 9389   1.370   1.244   4.101
 3128TIP3    H1 9390   1.288   1.204   4.132
 3128TIP3    H2 9391   1.395   1.190   4.026
 3129TIP3   OH2 9392   1.494   0.158   3.139
 3129TIP3    H1 9393   1.418   0.217   3.136
 3129TIP3    H2 9394   1.460   0.074   3.111
 3130TIP3   OH2 9395   1.777   4.735   1.283
 3130TIP3    H1 9396   1.861   4.695   1.304
 3130TIP3    H2 9397   1.800   4.822   1.248
 3131TIP3   OH2 9398   1.555   1.074   4.846
 3131TIP3    H1 9399   1.572   1.163   4.876
 3131TIP3    H2 9400   1.498   1.036   4.913
 3132TIP3   OH2 9401   0.932   0.192   4.554
 3132TIP3    H1 9402   0.839   0.171   4.559
 3132TIP3    H2 9403   0.951   0.195   4.460
 3133TIP3   OH2 9404   2.731   3.364   0.613
 3133TIP3    H1 9405   2.766   3.312   0.686
 3133TIP3    H2 9406   2.761   3.317   0.535
 3134TIP3   OH2 9407   2.227   5.552   0.446
 3134TIP3    H1 9408   2.263   5.640   0.456
 3134TIP3    H2 9409   2.239   5.511   0.532
 3135TIP3   OH2 9410   4.931   5.628   1.000
 3135TIP3    H1 9411   5.021   5.596   1.000
 3135TIP3    H2 9412   4.927   5.688   0.926
 3136TIP3   OH2 9413   4.372   4.407   2.518
 3136TIP3    H1 9414   4.366   4.443   2.607
 3136TIP3    H2 9415   4.441   4.340   2.524
 3137TIP3   OH2 9416   0.819   3.590   3.122
 3137TIP3    H1 9417   0.905   3.562   3.091
 3137TIP3    H2 9418   0.793   3.659   3.060
 3138TIP3   OH2 9419   6.120   4.462   0.067
 3138TIP3    H1 9420   6.181   4.399   0.029
 3138TIP3    H2 9421   6.168   4.500   0.140
 3139TIP3   OH2 9422   3.461   4.001   0.508
 3139TIP3    H1 9423   3.380   4.045   0.535
 3139TIP3    H2 9424   3.444   3.973   0.418
 3140TIP3   OH2 9425   4.648   3.561   3.545
 3140TIP3    H1 9426   4.634   3.568   3.639
 3140TIP3    H2 9427   4.560   3.568   3.507
 3141TIP3   OH2 9428   0.616   5.803   4.032
 3141TIP3    H1 9429   0.585   5.810   4.122
 3141TIP3    H2 9430   0.653   5.889   4.013
 3142TIP3   OH2 9431   4.150   3.998   4.166
 3142TIP3    H1 9432   4.109   3.925   4.120
 3142TIP3    H2 9433   4.080   4.033   4.222
 3143TIP3   OH2 9434   6.107   1.068   0.712
 3143TIP3    H1 9435   6.115   1.071   0.617
 3143TIP3    H2 9436   6.141   1.153   0.742
 3144TIP3   OH2 9437   5.789   4.761   3.880
 3144TIP3    H1 9438   5.725   4.785   3.813
 3144TIP3    H2 9439   5.772   4.669   3.897
 3145TIP3   OH2 9440   4.222   1.023   3.689
 3145TIP3    H1 9441   4.195   1.084   3.757
 3145TIP3    H2 9442   4.210   1.072   3.607
 3146TIP3   OH2 9443   2.316   1.528   0.525
 3146TIP3    H1 9444   2.240   1.577   0.556
 3146TIP3    H2 9445   2.329   1.460   0.592
 3147TIP3   OH2 9446   0.335   2.556   5.124
 3147TIP3    H1 9447   0.352   2.511   5.041
 3147TIP3    H2 9448   0.355   2.648   5.107
 3148TIP3   OH2 9449   5.447   0.362   1.914
 3148TIP3    H1 9450   5.455   0.272   1.947
 3148TIP3    H2 9451   5.512   0.367   1.844
 3149TIP3   OH2 9452   1.726   4.218   0.014
 3149TIP3    H1 9453   1.669   4.151   0.050
 3149TIP3    H2 9454   1.810   4.173   0.000
 3150TIP3   OH2 9455   1.302   3.657   2.759
 3150TIP3    H1 9456   1.352   3.614   2.828
 3150TIP3    H2 9457   1.318   3.750   2.771
 3151TIP3   OH2 9458   2.127   1.888   3.301
 3151TIP3    H1 9459   2.072   1.822   3.342
 3151TIP3    H2 9460   2.206   1.890   3.354
 3152TIP3   OH2 9461   1.073   3.407   1.129
 3152TIP3    H1 9462   1.108   3.372   1.047
 3152TIP3    H2 9463   1.141   3.391   1.194
 3153TIP3   OH2 9464   4.573   4.691   1.453
 3153TIP3    H1 9465   4.649   4.632   1.458
 3153TIP3    H2 9466   4.536   4.688   1.542
 3154TIP3   OH2 9467   0.662   1.316   4.619
 3154TIP3    H1 9468   0.630   1.280   4.702
 3154TIP3    H2 9469   0.643   1.249   4.554
 3155TIP3   OH2 9470   6.213   3.387   1.305
 3155TIP3    H1 9471   6.253   3.303   1.326
 3155TIP3    H2 9472   6.263   3.451   1.355
 3156TIP3   OH2 9473   5.216   3.085   2.373
 3156TIP3    H1 9474   5.297   3.059   2.330
 3156TIP3    H2 9475   5.150   3.023   2.340
 3157TIP3   OH2 9476   5.379   4.286   1.231
 3157TIP3    H1 9477   5.419   4.245   1.154
 3157TIP3    H2 9478   5.424   4.370   1.239
 3158TIP3   OH2 9479   0.449   1.661   0.941
 3158TIP3    H1 9480   0.394   1.642   0.864
 3158TIP3    H2 9481   0.462   1.576   0.983
 3159TIP3   OH2 9482   5.895   1.569   1.582
 3159TIP3    H1 9483   5.923   1.660   1.583
 3159TIP3    H2 9484   5.814   1.569   1.532
 3160TIP3   OH2 9485   1.808   1.590   4.911
 3160TIP3    H1 9486   1.830   1.577   4.819
 3160TIP3    H2 9487   1.769   1.677   4.914
 3161TIP3   OH2 9488   5.814   4.550   2.096
 3161TIP3    H1 9489   5.819   4.630   2.147
 3161TIP3    H2 9490   5.903   4.515   2.097
 3162TIP3   OH2 9491   1.902   4.157   5.039
 3162TIP3    H1 9492   1.831   4.208   5.076
 3162TIP3    H2 9493   1.881   4.151   4.946
 3163TIP3   OH2 9494   4.243   0.779   2.841
 3163TIP3    H1 9495   4.277   0.706   2.789
 3163TIP3    H2 9496   4.307   0.849   2.830
 3164TIP3   OH2 9497   3.576   2.152   3.546
 3164TIP3    H1 9498   3.632   2.126   3.473
 3164TIP3    H2 9499   3.635   2.195   3.608
 3165TIP3   OH2 9500   6.150   4.823   0.270
 3165TIP3    H1 9501   6.115   4.880   0.202
 3165TIP3    H2 9502   6.119   4.861   0.352
 3166TIP3   OH2 9503   5.885   3.365   2.659
 3166TIP3    H1 9504   5.922   3.432   2.716
 3166TIP3    H2 9505   5.852   3.298   2.718
 3167TIP3   OH2 9506   3.749   5.941   2.724
 3167TIP3    H1 9507   3.745   6.037   2.716
 3167TIP3    H2 9508   3.837   5.919   2.694
 3168TIP3   OH2 9509   1.346   4.246   4.892
 3168TIP3    H1 9510   1.387   4.316   4.941
 3168TIP3    H2 9511   1.377   4.257   4.803
 3169TIP3   OH2 9512   0.702   5.567   3.745
 3169TIP3    H1 9513   0.619   5.611   3.760
 3169TIP3    H2 9514   0.692   5.526   3.659
 3170TIP3   OH2 9515   5.868   0.554   4.431
 3170TIP3    H1 9516   5.793   0.595   4.388
 3170TIP3    H2 9517   5.829   0.498   4.498
 3171TIP3   OH2 9518   2.709   0.860   4.278
 3171TIP3    H1 9519   2.715   0.788   4.341
 3171TIP3    H2 9520   2.797   0.865   4.240
 3172TIP3   OH2 9521   4.456   0.973   2.754
 3172TIP3    H1 9522   4.476   1.009   2.667
 3172TIP3    H2 9523   4.472   1.046   2.814
 3173TIP3   OH2 9524   1.088   3.961   0.854
 3173TIP3    H1 9525   1.166   3.912   0.879
 3173TIP3    H2 9526   1.044   3.906   0.789
 3174TIP3   OH2 9527   0.769   1.274   2.615
 3174TIP3    H1 9528   0.787   1.201   2.556
 3174TIP3    H2 9529   0.674   1.284   2.612
 3175TIP3   OH2 9530   2.447   1.382   4.784
 3175TIP3    H1 9531   2.399   1.441   4.842
 3175TIP3    H2 9532   2.407   1.296   4.799
 3176TIP3   OH2 9533   5.905   3.473   3.423
 3176TIP3    H1 9534   5.938   3.561   3.403
 3176TIP3    H2 9535   5.856   3.484   3.504
 3177TIP3   OH2 9536   6.248   2.120   5.181
 3177TIP3    H1 9537   6.322   2.059   5.186
 3177TIP3    H2 9538   6.236   2.135   5.087
 3178TIP3   OH2 9539   4.557   0.844   4.020
 3178TIP3    H1 9540   4.573   0.898   3.943
 3178TIP3    H2 9541   4.579   0.900   4.094
 3179TIP3   OH2 9542   4.615   5.397   1.221
 3179TIP3    H1 9543   4.535   5.449   1.212
 3179TIP3    H2 9544   4.633   5.397   1.315
 3180TIP3   OH2 9545   4.420   4.878   0.603
 3180TIP3    H1 9546   4.504   4.869   0.558
 3180TIP3    H2 9547   4.396   4.970   0.590
 3181TIP3   OH2 9548   5.680   5.823   0.654
 3181TIP3    H1 9549   5.745   5.762   0.688
 3181TIP3    H2 9550   5.602   5.807   0.707
 3182TIP3   OH2 9551   5.389   2.205   4.285
 3182TIP3    H1 9552   5.312   2.242   4.328
 3182TIP3    H2 9553   5.413   2.270   4.219
 3183TIP3   OH2 9554   0.809   1.838   0.455
 3183TIP3    H1 9555   0.879   1.793   0.503
 3183TIP3    H2 9556   0.838   1.834   0.363
 3184TIP3   OH2 9557   3.016   2.688   1.238
 3184TIP3    H1 9558   2.989   2.597   1.247
 3184TIP3    H2 9559   2.992   2.729   1.321
 3185TIP3   OH2 9560   1.101   0.322   3.212
 3185TIP3    H1 9561   1.138   0.239   3.183
 3185TIP3    H2 9562   1.013   0.299   3.243
 3186TIP3   OH2 9563   5.850   0.192   0.489
 3186TIP3    H1 9564   5.908   0.135   0.540
 3186TIP3    H2 9565   5.822   0.259   0.551
 3187TIP3   OH2 9566   2.189   0.804   0.708
 3187TIP3    H1 9567   2.094   0.796   0.715
 3187TIP3    H2 9568   2.214   0.735   0.647
 3188TIP3   OH2 9569   0.895   2.416   1.026
 3188TIP3    H1 9570   0.854   2.486   0.975
 3188TIP3    H2 9571   0.825   2.352   1.037
 3189TIP3   OH2 9572   1.128   1.870   0.695
 3189TIP3    H1 9573   1.056   1.920   0.735
 3189TIP3    H2 9574   1.205   1.925   0.708
 3190TIP3   OH2 9575   5.753   1.214   4.004
 3190TIP3    H1 9576   5.830   1.253   3.964
 3190TIP3    H2 9577   5.699   1.288   4.030
 3191TIP3   OH2 9578   2.739   5.620   3.614
 3191TIP3    H1 9579   2.671   5.660   3.669
 3191TIP3    H2 9580   2.712   5.639   3.524
 3192TIP3   OH2 9581   4.343   1.479   2.933
 3192TIP3    H1 9582   4.318   1.427   2.856
 3192TIP3    H2 9583   4.273   1.464   2.996
 3193TIP3   OH2 9584   6.133   4.536   0.561
 3193TIP3    H1 9585   6.069   4.607   0.565
 3193TIP3    H2 9586   6.130   4.497   0.648
 3194TIP3   OH2 9587   2.555   0.565   3.637
 3194TIP3    H1 9588   2.567   0.632   3.569
 3194TIP3    H2 9589   2.643   0.534   3.656
 3195TIP3   OH2 9590   1.517   5.548   1.655
 3195TIP3    H1 9591   1.452   5.529   1.587
 3195TIP3    H2 9592   1.467   5.591   1.724
 3196TIP3   OH2 9593   4.608   3.232   4.080
 3196TIP3    H1 9594   4.686   3.224   4.025
 3196TIP3    H2 9595   4.598   3.327   4.095
 3197TIP3   OH2 9596   1.603   2.773   0.184
 3197TIP3    H1 9597   1.621   2.861   0.219
 3197TIP3    H2 9598   1.586   2.720   0.262
 3198TIP3   OH2 9599   2.166   3.118   0.891
 3198TIP3    H1 9600   2.100   3.125   0.959
 3198TIP3    H2 9601   2.157   3.028   0.858
 3199TIP3   OH2 9602   4.793   4.187   4.590
 3199TIP3    H1 9603   4.758   4.248   4.525
 3199TIP3    H2 9604   4.810   4.241   4.667
 3200TIP3   OH2 9605   0.605   3.484   0.794
 3200TIP3    H1 9606   0.592   3.403   0.746
 3200TIP3    H2 9607   0.615   3.456   0.885
 3201TIP3   OH2 9608   5.984   3.754   2.170
 3201TIP3    H1 9609   6.032   3.683   2.128
 3201TIP3    H2 9610   5.963   3.814   2.098
 3202TIP3   OH2 9611   2.851   0.469   3.392
 3202TIP3    H1 9612   2.864   0.464   3.487
 3202TIP3    H2 9613   2.924   0.419   3.355
 3203TIP3   OH2 9614   3.254   5.833   1.449
 3203TIP3    H1 9615   3.335   5.789   1.423
 3203TIP3    H2 9616   3.282   5.906   1.504
 3204TIP3   OH2 9617   4.980   3.133   2.672
 3204TIP3    H1 9618   4.924   3.116   2.597
 3204TIP3    H2 9619   5.000   3.046   2.708
 3205TIP3   OH2 9620   2.829   2.160  -0.029
 3205TIP3    H1 9621   2.872   2.076  -0.012
 3205TIP3    H2 9622   2.768   2.171   0.044
 3206TIP3   OH2 9623   5.760   2.960   2.278
 3206TIP3    H1 9624   5.743   3.023   2.208
 3206TIP3    H2 9625   5.855   2.949   2.277
 3207TIP3   OH2 9626   4.654   4.725   0.443
 3207TIP3    H1 9627   4.722   4.792   0.451
 3207TIP3    H2 9628   4.700   4.647   0.412
 3208TIP3   OH2 9629   4.319   4.237   1.057
 3208TIP3    H1 9630   4.349   4.185   0.983
 3208TIP3    H2 9631   4.229   4.208   1.072
 3209TIP3   OH2 9632   3.653   2.893   2.913
 3209TIP3    H1 9633   3.692   2.970   2.871
 3209TIP3    H2 9634   3.589   2.928   2.974
 3210TIP3   OH2 9635   4.109   1.295   1.952
 3210TIP3    H1 9636   4.163   1.221   1.924
 3210TIP3    H2 9637   4.123   1.361   1.885
 3211TIP3   OH2 9638   6.118   5.626   0.092
 3211TIP3    H1 9639   6.035   5.615   0.137
 3211TIP3    H2 9640   6.151   5.538   0.079
 3212TIP3   OH2 9641   5.968   0.084   4.812
 3212TIP3    H1 9642   6.004   0.004   4.852
 3212TIP3    H2 9643   5.968   0.148   4.884
 3213TIP3   OH2 9644   5.785   2.668   2.320
 3213TIP3    H1 9645   5.861   2.704   2.274
 3213TIP3    H2 9646   5.718   2.736   2.313
 3214TIP3   OH2 9647   1.148   0.827   5.185
 3214TIP3    H1 9648   1.056   0.810   5.208
 3214TIP3    H2 9649   1.166   0.765   5.114
 3215TIP3   OH2 9650   4.516   2.121   4.414
 3215TIP3    H1 9651   4.568   2.190   4.456
 3215TIP3    H2 9652   4.579   2.073   4.361
 3216TIP3   OH2 9653   2.849   5.730   1.288
 3216TIP3    H1 9654   2.769   5.753   1.241
 3216TIP3    H2 9655   2.903   5.809   1.283
 3217TIP3   OH2 9656   4.158   2.645   4.759
 3217TIP3    H1 9657   4.183   2.676   4.846
 3217TIP3    H2 9658   4.230   2.675   4.702
 3218TIP3   OH2 9659   2.650   4.695   0.170
 3218TIP3    H1 9660   2.708   4.684   0.245
 3218TIP3    H2 9661   2.595   4.769   0.193
 3219TIP3   OH2 9662   0.743   3.177   4.163
 3219TIP3    H1 9663   0.752   3.224   4.246
 3219TIP3    H2 9664   0.655   3.140   4.166
 3220TIP3   OH2 9665   0.564   0.515   2.669
 3220TIP3    H1 9666   0.498   0.453   2.701
 3220TIP3    H2 9667   0.618   0.534   2.745
 3221TIP3   OH2 9668   5.643   3.674   5.128
 3221TIP3    H1 9669   5.554   3.702   5.106
 3221TIP3    H2 9670   5.685   3.660   5.043
 3222TIP3   OH2 9671   4.351   4.948   1.734
 3222TIP3    H1 9672   4.396   4.874   1.692
 3222TIP3    H2 9673   4.270   4.958   1.685
 3223TIP3   OH2 9674   5.023   5.482   3.168
 3223TIP3    H1 9675   5.097   5.526   3.128
 3223TIP3    H2 9676   4.989   5.545   3.231
 3224TIP3   OH2 9677   0.985   1.818   1.189
 3224TIP3    H1 9678   0.915   1.755   1.170
 3224TIP3    H2 9679   0.965   1.893   1.134
 3225TIP3   OH2 9680   0.218   3.545   2.410
 3225TIP3    H1 9681   0.132   3.586   2.400
 3225TIP3    H2 9682   0.276   3.618   2.434
 3226TIP3   OH2 9683   5.903   5.792   1.393
 3226TIP3    H1 9684   5.915   5.739   1.314
 3226TIP3    H2 9685   5.842   5.741   1.447
 3227TIP3   OH2 9686   4.768   0.138   0.001
 3227TIP3    H1 9687   4.785   0.228   0.029
 3227TIP3    H2 9688   4.739   0.093   0.080
 3228TIP3   OH2 9689   2.249   2.207   0.006
 3228TIP3    H1 9690   2.336   2.215  -0.032
 3228TIP3    H2 9691   2.249   2.268   0.081
 3229TIP3   OH2 9692   3.618   3.412   1.104
 3229TIP3    H1 9693   3.536   3.441   1.065
 3229TIP3    H2 9694   3.662   3.493   1.130
 3230TIP3   OH2 9695   0.095   3.183   4.866
 3230TIP3    H1 9696   0.175   3.162   4.915
 3230TIP3    H2 9697   0.031   3.120   4.896
 3231TIP3   OH2 9698   2.531   3.045   3.296
 3231TIP3    H1 9699   2.499   2.970   3.245
 3231TIP3    H2 9700   2.576   3.099   3.231
 3232TIP3   OH2 9701   2.140   2.147   4.142
 3232TIP3    H1 9702   2.191   2.155   4.223
 3232TIP3    H2 9703   2.133   2.236   4.109
 3233TIP3   OH2 9704   2.460   5.755   0.192
 3233TIP3    H1 9705   2.462   5.733   0.285
 3233TIP3    H2 9706   2.552   5.756   0.166
 3234TIP3   OH2 9707  -0.009   4.775   1.254
 3234TIP3    H1 9708  -0.082   4.780   1.191
 3234TIP3    H2 9709   0.000   4.865   1.286
 3235TIP3   OH2 9710   5.872   3.438   5.027
 3235TIP3    H1 9711   5.783   3.406   5.019
 3235TIP3    H2 9712   5.876   3.515   4.971
 3236TIP3   OH2 9713   4.368   2.039   0.631
 3236TIP3    H1 9714   4.273   2.041   0.644
 3236TIP3    H2 9715   4.383   2.087   0.550
 3237TIP3   OH2 9716   2.725   0.452   0.110
 3237TIP3    H1 9717   2.671   0.410   0.176
 3237TIP3    H2 9718   2.662   0.499   0.054
 3238TIP3   OH2 9719   3.865   4.923   0.674
 3238TIP3    H1 9720   3.865   4.938   0.579
 3238TIP3    H2 9721   3.883   5.009   0.712
 3239TIP3   OH2 9722   2.650   5.611   4.249
 3239TIP3    H1 9723   2.687   5.651   4.328
 3239TIP3    H2 9724   2.725   5.589   4.194
 3240TIP3   OH2 9725   1.991   3.072   4.352
 3240TIP3    H1 9726   1.902   3.060   4.318
 3240TIP3    H2 9727   2.042   3.002   4.311
 3241TIP3   OH2 9728   1.157   2.515   1.137
 3241TIP3    H1 9729   1.066   2.486   1.137
 3241TIP3    H2 9730   1.207   2.437   1.163
 3242TIP3   OH2 9731   4.601   5.697   2.850
 3242TIP3    H1 9732   4.636   5.712   2.938
 3242TIP3    H2 9733   4.506   5.701   2.861
 3243TIP3   OH2 9734   3.033   0.233   3.074
 3243TIP3    H1 9735   2.994   0.284   3.144
 3243TIP3    H2 9736   3.091   0.171   3.118
 3244TIP3   OH2 9737   1.764   5.665   1.433
 3244TIP3    H1 9738   1.818   5.743   1.426
 3244TIP3    H2 9739   1.674   5.696   1.425
 3245TIP3   OH2 9740   3.767   3.051   3.339
 3245TIP3    H1 9741   3.677   3.020   3.326
 3245TIP3    H2 9742   3.821   2.979   3.307
 3246TIP3   OH2 9743   3.093   3.298   2.083
 3246TIP3    H1 9744   3.048   3.237   2.142
 3246TIP3    H2 9745   3.061   3.384   2.109
 3247TIP3   OH2 9746   0.694   1.715   0.755
 3247TIP3    H1 9747   0.735   1.633   0.727
 3247TIP3    H2 9748   0.624   1.687   0.815
 3248TIP3   OH2 9749   2.969   0.101   5.011
 3248TIP3    H1 9750   2.946   0.141   5.095
 3248TIP3    H2 9751   3.057   0.134   4.993
 3249TIP3   OH2 9752   4.764   3.174   2.474
 3249TIP3    H1 9753   4.808   3.166   2.389
 3249TIP3    H2 9754   4.791   3.260   2.507
 3250TIP3   OH2 9755   4.120   2.374   4.137
 3250TIP3    H1 9756   4.159   2.330   4.212
 3250TIP3    H2 9757   4.027   2.382   4.159
 3251TIP3   OH2 9758   5.998   5.314   3.198
 3251TIP3    H1 9759   5.925   5.323   3.259
 3251TIP3    H2 9760   5.966   5.355   3.117
 3252TIP3   OH2 9761   3.955   4.127   4.662
 3252TIP3    H1 9762   4.033   4.176   4.639
 3252TIP3    H2 9763   3.885   4.192   4.665
 3253TIP3   OH2 9764   0.350   3.143   0.304
 3253TIP3    H1 9765   0.354   3.047   0.300
 3253TIP3    H2 9766   0.376   3.165   0.393
 3254TIP3   OH2 9767   0.281   2.177   0.373
 3254TIP3    H1 9768   0.225   2.254   0.364
 3254TIP3    H2 9769   0.334   2.176   0.293
 3255TIP3   OH2 9770   3.984   0.613   1.817
 3255TIP3    H1 9771   4.026   0.586   1.898
 3255TIP3    H2 9772   3.891   0.596   1.830
 3256TIP3   OH2 9773   4.088   1.534   0.372
 3256TIP3    H1 9774   4.053   1.623   0.377
 3256TIP3    H2 9775   4.180   1.546   0.346
 3257TIP3   OH2 9776   3.342   4.706   0.534
 3257TIP3    H1 9777   3.377   4.769   0.597
 3257TIP3    H2 9778   3.415   4.686   0.477
 3258TIP3   OH2 9779   3.493   1.630   3.276
 3258TIP3    H1 9780   3.437   1.654   3.350
 3258TIP3    H2 9781   3.433   1.623   3.202
 3259TIP3   OH2 9782   4.719   3.260   0.463
 3259TIP3    H1 9783   4.770   3.198   0.410
 3259TIP3    H2 9784   4.783   3.325   0.491
 3260TIP3   OH2 9785   3.460   1.360   1.063
 3260TIP3    H1 9786   3.538   1.318   1.098
 3260TIP3    H2 9787   3.479   1.453   1.065
 3261TIP3   OH2 9788   2.703   1.133   4.562
 3261TIP3    H1 9789   2.652   1.084   4.497
 3261TIP3    H2 9790   2.759   1.190   4.511
 3262TIP3   OH2 9791   2.299   0.867   2.838
 3262TIP3    H1 9792   2.223   0.926   2.843
 3262TIP3    H2 9793   2.349   0.898   2.763
 3263TIP3   OH2 9794   2.675   2.945   5.097
 3263TIP3    H1 9795   2.608   2.995   5.143
 3263TIP3    H2 9796   2.697   2.999   5.021
 3264TIP3   OH2 9797   3.665   1.106   1.741
 3264TIP3    H1 9798   3.731   1.130   1.807
 3264TIP3    H2 9799   3.606   1.047   1.787
 3265TIP3   OH2 9800   0.148   5.258   1.108
 3265TIP3    H1 9801   0.234   5.227   1.080
 3265TIP3    H2 9802   0.101   5.276   1.026
 3266TIP3   OH2 9803   0.171   1.292   1.015
 3266TIP3    H1 9804   0.210   1.378   1.033
 3266TIP3    H2 9805   0.244   1.230   1.025
 3267TIP3   OH2 9806   3.833   2.470   3.972
 3267TIP3    H1 9807   3.818   2.539   3.908
 3267TIP3    H2 9808   3.830   2.514   4.057
 3268TIP3   OH2 9809   0.186   0.916   4.810
 3268TIP3    H1 9810   0.193   0.900   4.903
 3268TIP3    H2 9811   0.175   1.011   4.803
 3269TIP3   OH2 9812   6.004   0.587   2.154
 3269TIP3    H1 9813   5.966   0.571   2.068
 3269TIP3    H2 9814   6.084   0.535   2.155
 3270TIP3   OH2 9815   0.276   3.361   0.116
 3270TIP3    H1 9816   0.253   3.348   0.208
 3270TIP3    H2 9817   0.210   3.421   0.082
 3271TIP3   OH2 9818   6.215   3.499   4.997
 3271TIP3    H1 9819   6.259   3.494   4.913
 3271TIP3    H2 9820   6.171   3.414   5.007
 3272TIP3   OH2 9821   5.510   5.150   4.761
 3272TIP3    H1 9822   5.440   5.205   4.727
 3272TIP3    H2 9823   5.472   5.062   4.763
 3273TIP3   OH2 9824   1.480   0.248   5.019
 3273TIP3    H1 9825   1.507   0.156   5.030
 3273TIP3    H2 9826   1.536   0.281   4.949
 3274TIP3   OH2 9827   5.757   2.683   0.899
 3274TIP3    H1 9828   5.801   2.669   0.983
 3274TIP3    H2 9829   5.729   2.774   0.901
 3275TIP3   OH2 9830   0.841   4.252   0.290
 3275TIP3    H1 9831   0.841   4.189   0.362
 3275TIP3    H2 9832   0.748   4.270   0.274
 3276TIP3   OH2 9833   2.278   4.136   3.674
 3276TIP3    H1 9834   2.194   4.177   3.690
 3276TIP3    H2 9835   2.262   4.078   3.599
 3277TIP3   OH2 9836   6.184   3.918   4.195
 3277TIP3    H1 9837   6.181   3.894   4.288
 3277TIP3    H2 9838   6.155   3.839   4.149
 3278TIP3   OH2 9839   3.131   4.066   1.114
 3278TIP3    H1 9840   3.215   4.067   1.067
 3278TIP3    H2 9841   3.077   4.003   1.066
 3279TIP3   OH2 9842   5.541   0.539   2.851
 3279TIP3    H1 9843   5.572   0.601   2.918
 3279TIP3    H2 9844   5.558   0.583   2.768
 3280TIP3   OH2 9845   2.981   4.742   2.860
 3280TIP3    H1 9846   3.062   4.696   2.837
 3280TIP3    H2 9847   2.976   4.734   2.955
 3281TIP3   OH2 9848   3.912   5.669   2.365
 3281TIP3    H1 9849   3.917   5.574   2.350
 3281TIP3    H2 9850   3.824   5.693   2.336
 3282TIP3   OH2 9851   1.942   2.019   4.012
 3282TIP3    H1 9852   1.942   1.924   4.028
 3282TIP3    H2 9853   2.023   2.050   4.053
 3283TIP3   OH2 9854   0.349   1.268   1.410
 3283TIP3    H1 9855   0.298   1.207   1.358
 3283TIP3    H2 9856   0.406   1.213   1.464
 3284TIP3   OH2 9857   0.045   1.521   4.392
 3284TIP3    H1 9858   0.093   1.573   4.457
 3284TIP3    H2 9859   0.050   1.431   4.425
 3285TIP3   OH2 9860   4.013   3.686   0.937
 3285TIP3    H1 9861   3.960   3.704   0.859
 3285TIP3    H2 9862   4.094   3.734   0.922
 3286TIP3   OH2 9863   5.107   5.680   0.580
 3286TIP3    H1 9864   5.122   5.604   0.636
 3286TIP3    H2 9865   5.064   5.645   0.502
 3287TIP3   OH2 9866   1.053   4.876   3.400
 3287TIP3    H1 9867   0.967   4.835   3.403
 3287TIP3    H2 9868   1.112   4.804   3.377
 3288TIP3   OH2 9869   3.165   2.267   4.164
 3288TIP3    H1 9870   3.187   2.352   4.124
 3288TIP3    H2 9871   3.181   2.203   4.094
 3289TIP3   OH2 9872   0.233   5.436   4.063
 3289TIP3    H1 9873   0.295   5.431   4.136
 3289TIP3    H2 9874   0.154   5.392   4.096
 3290TIP3   OH2 9875   2.790   4.856   4.485
 3290TIP3    H1 9876   2.882   4.853   4.512
 3290TIP3    H2 9877   2.773   4.770   4.447
 3291TIP3   OH2 9878   0.179   4.433   2.092
 3291TIP3    H1 9879   0.149   4.477   2.172
 3291TIP3    H2 9880   0.101   4.431   2.036
 3292TIP3   OH2 9881   2.919   1.998   2.336
 3292TIP3    H1 9882   2.954   2.020   2.422
 3292TIP3    H2 9883   2.825   2.014   2.344
 3293TIP3   OH2 9884   4.863   1.409   2.302
 3293TIP3    H1 9885   4.795   1.468   2.270
 3293TIP3    H2 9886   4.865   1.424   2.397
 3294TIP3   OH2 9887   0.654   1.816   3.338
 3294TIP3    H1 9888   0.677   1.841   3.428
 3294TIP3    H2 9889   0.703   1.735   3.323
 3295TIP3   OH2 9890   0.756   4.636   4.576
 3295TIP3    H1 9891   0.822   4.573   4.547
 3295TIP3    H2 9892   0.673   4.588   4.571
 3296TIP3   OH2 9893   5.103   2.018   0.411
 3296TIP3    H1 9894   5.126   1.931   0.445
 3296TIP3    H2 9895   5.156   2.078   0.462
 3297TIP3   OH2 9896   0.052   4.426   2.905
 3297TIP3    H1 9897   0.063   4.500   2.845
 3297TIP3    H2 9898   0.142   4.396   2.923
 3298TIP3   OH2 9899   3.618   2.596   0.344
 3298TIP3    H1 9900   3.616   2.510   0.300
 3298TIP3    H2 9901   3.710   2.608   0.368
 3299TIP3   OH2 9902   1.408   4.991   1.907
 3299TIP3    H1 9903   1.442   4.961   1.822
 3299TIP3    H2 9904   1.446   5.079   1.917
 3300TIP3   OH2 9905   6.028   2.714   1.739
 3300TIP3    H1 9906   6.089   2.787   1.727
 3300TIP3    H2 9907   6.083   2.641   1.766
 3301TIP3   OH2 9908   1.887   2.705   3.771
 3301TIP3    H1 9909   1.966   2.659   3.741
 3301TIP3    H2 9910   1.905   2.727   3.862
 3302TIP3   OH2 9911   6.202   3.334   2.900
 3302TIP3    H1 9912   6.264   3.396   2.861
 3302TIP3    H2 9913   6.121   3.384   2.911
 3303TIP3   OH2 9914   1.831   1.968   0.651
 3303TIP3    H1 9915   1.883   1.951   0.572
 3303TIP3    H2 9916   1.895   1.993   0.718
 3304TIP3   OH2 9917   0.267   3.307   2.276
 3304TIP3    H1 9918   0.330   3.334   2.209
 3304TIP3    H2 9919   0.235   3.389   2.312
 3305TIP3   OH2 9920   5.788   5.965   4.461
 3305TIP3    H1 9921   5.715   5.963   4.524
 3305TIP3    H2 9922   5.838   5.886   4.481
 3306TIP3   OH2 9923   2.894   3.733   3.671
 3306TIP3    H1 9924   2.960   3.681   3.716
 3306TIP3    H2 9925   2.926   3.823   3.677
 3307TIP3   OH2 9926   5.300   3.176   1.224
 3307TIP3    H1 9927   5.266   3.142   1.141
 3307TIP3    H2 9928   5.352   3.252   1.199
 3308TIP3   OH2 9929   5.803   5.028   3.850
 3308TIP3    H1 9930   5.775   5.047   3.939
 3308TIP3    H2 9931   5.814   4.933   3.847
 3309TIP3   OH2 9932   5.568   3.256   0.820
 3309TIP3    H1 9933   5.639   3.287   0.876
 3309TIP3    H2 9934   5.611   3.231   0.738
 3310TIP3   OH2 9935   4.311   2.830   4.580
 3310TIP3    H1 9936   4.405   2.815   4.568
 3310TIP3    H2 9937   4.305   2.881   4.661
 3311TIP3   OH2 9938   0.918   3.236   3.351
 3311TIP3    H1 9939   0.886   3.243   3.261
 3311TIP3    H2 9940   0.844   3.201   3.400
 3312TIP3   OH2 9941   5.488   5.643   0.317
 3312TIP3    H1 9942   5.523   5.564   0.360
 3312TIP3    H2 9943   5.405   5.614   0.280
 3313TIP3   OH2 9944   4.814   1.508   0.397
 3313TIP3    H1 9945   4.838   1.592   0.357
 3313TIP3    H2 9946   4.741   1.476   0.343
 3314TIP3   OH2 9947   5.830   3.435   3.057
 3314TIP3    H1 9948   5.862   3.345   3.059
 3314TIP3    H2 9949   5.779   3.444   3.137
 3315TIP3   OH2 9950   1.695   2.193   0.701
 3315TIP3    H1 9951   1.685   2.202   0.796
 3315TIP3    H2 9952   1.751   2.116   0.689
 3316TIP3   OH2 9953   1.351   0.127   1.589
 3316TIP3    H1 9954   1.307   0.117   1.504
 3316TIP3    H2 9955   1.300   0.195   1.634
 3317TIP3   OH2 9956   4.523   4.291   4.857
 3317TIP3    H1 9957   4.588   4.229   4.890
 3317TIP3    H2 9958   4.463   4.303   4.930
 3318TIP3   OH2 9959   0.609   5.366   4.803
 3318TIP3    H1 9960   0.670   5.359   4.876
 3318TIP3    H2 9961   0.632   5.293   4.746
 3319TIP3   OH2 9962   5.708   5.844   1.985
 3319TIP3    H1 9963   5.699   5.872   2.076
 3319TIP3    H2 9964   5.775   5.775   1.988
 3320TIP3   OH2 9965   2.168   5.766   3.763
 3320TIP3    H1 9966   2.159   5.725   3.677
 3320TIP3    H2 9967   2.094   5.826   3.769
 3321TIP3   OH2 9968   5.429   3.428   4.332
 3321TIP3    H1 9969   5.489   3.463   4.266
 3321TIP3    H2 9970   5.420   3.335   4.310
 3322TIP3   OH2 9971   4.351   0.801   1.032
 3322TIP3    H1 9972   4.380   0.726   0.979
 3322TIP3    H2 9973   4.300   0.762   1.103
 3323TIP3   OH2 9974   0.385   4.226   0.764
 3323TIP3    H1 9975   0.435   4.231   0.846
 3323TIP3    H2 9976   0.293   4.232   0.793
 3324TIP3   OH2 9977   5.479   5.120   2.919
 3324TIP3    H1 9978   5.426   5.045   2.947
 3324TIP3    H2 9979   5.460   5.129   2.826
 3325TIP3   OH2 9980   5.055   0.332   4.291
 3325TIP3    H1 9981   5.120   0.358   4.225
 3325TIP3    H2 9982   4.971   0.337   4.245
 3326TIP3   OH2 9983   4.046   1.529   1.151
 3326TIP3    H1 9984   3.979   1.592   1.178
 3326TIP3    H2 9985   4.056   1.470   1.226
 3327TIP3   OH2 9986   5.247   2.440   2.897
 3327TIP3    H1 9987   5.178   2.428   2.832
 3327TIP3    H2 9988   5.326   2.457   2.846
 3328TIP3   OH2 9989   6.038   3.119   3.186
 3328TIP3    H1 9990   5.947   3.140   3.203
 3328TIP3    H2 9991   6.071   3.083   3.268
 3329TIP3   OH2 9992   1.486   4.282   2.048
 3329TIP3    H1 9993   1.405   4.270   1.998
 3329TIP3    H2 9994   1.550   4.228   2.002
 3330TIP3   OH2 9995   3.168   2.101   0.516
 3330TIP3    H1 9996   3.247   2.055   0.488
 3330TIP3    H2 9997   3.098   2.060   0.465
 3331TIP3   OH2 9998   2.233   4.484   0.523
 3331TIP3    H1 9999   2.270   4.484   0.435
 3331TIP3    H210000   2.294   4.539   0.574
 3332TIP3   OH210001   1.485   0.842   0.547
 3332TIP3    H110002   1.546   0.903   0.587
 3332TIP3    H210003   1.439   0.893   0.481
 3333TIP3   OH210004   5.687   3.009   5.077
 3333TIP3    H110005   5.665   2.956   5.000
 3333TIP3    H210006   5.633   3.088   5.067
 3334TIP3   OH210007   5.198   3.991   1.998
 3334TIP3    H110008   5.141   3.923   2.034
 3334TIP3    H210009   5.265   3.944   1.950
 3335TIP3   OH210010   5.342   1.713   1.967
 3335TIP3    H110011   5.396   1.744   2.040
 3335TIP3    H210012   5.399   1.718   1.891
 3336TIP3   OH210013   3.754   4.562   1.218
 3336TIP3    H110014   3.818   4.625   1.253
 3336TIP3    H210015   3.684   4.617   1.183
 3337TIP3   OH210016   4.210   3.291   4.124
 3337TIP3    H110017   4.219   3.382   4.152
 3337TIP3    H210018   4.146   3.254   4.185
 3338TIP3   OH210019   2.404   2.131   0.297
 3338TIP3    H110020   2.351   2.071   0.245
 3338TIP3    H210021   2.366   2.128   0.384
 3339TIP3   OH210022   2.378   0.975   2.597
 3339TIP3    H110023   2.343   1.045   2.542
 3339TIP3    H210024   2.473   0.981   2.587
 3340TIP3   OH210025   5.230   5.156   4.289
 3340TIP3    H110026   5.136   5.173   4.299
 3340TIP3    H210027   5.270   5.196   4.366
 3341TIP3   OH210028   0.183   2.165   1.306
 3341TIP3    H110029   0.111   2.120   1.350
 3341TIP3    H210030   0.229   2.096   1.258
 3342TIP3   OH210031   5.723   0.709   0.658
 3342TIP3    H110032   5.778   0.698   0.581
 3342TIP3    H210033   5.749   0.639   0.717
 3343TIP3   OH210034   2.047   0.110   4.130
 3343TIP3    H110035   1.954   0.109   4.155
 3343TIP3    H210036   2.045   0.111   4.034
 3344TIP3   OH210037   4.881   2.045   0.578
 3344TIP3    H110038   4.963   2.065   0.533
 3344TIP3    H210039   4.895   2.073   0.668
 3345TIP3   OH210040   4.336   3.003   0.056
 3345TIP3    H110041   4.407   2.995   0.120
 3345TIP3    H210042   4.365   2.952  -0.019
 3346TIP3   OH210043   4.179   2.871   2.739
 3346TIP3    H110044   4.253   2.923   2.707
 3346TIP3    H210045   4.218   2.813   2.805
 3347TIP3   OH210046   0.599   2.326   4.749
 3347TIP3    H110047   0.598   2.230   4.757
 3347TIP3    H210048   0.544   2.357   4.821
 3348TIP3   OH210049   0.261   5.084   2.918
 3348TIP3    H110050   0.218   5.153   2.868
 3348TIP3    H210051   0.191   5.020   2.934
 3349TIP3   OH210052   5.273   4.187   4.333
 3349TIP3    H110053   5.366   4.165   4.332
 3349TIP3    H210054   5.243   4.160   4.420
 3350TIP3   OH210055   4.013   4.550   4.817
 3350TIP3    H110056   3.929   4.515   4.787
 3350TIP3    H210057   4.055   4.584   4.739
 3351TIP3   OH210058   4.565   3.522   2.457
 3351TIP3    H110059   4.568   3.501   2.364
 3351TIP3    H210060   4.498   3.589   2.465
 3352TIP3   OH210061   3.324   1.190   2.730
 3352TIP3    H110062   3.388   1.261   2.740
 3352TIP3    H210063   3.261   1.205   2.801
 3353TIP3   OH210064   1.265   4.362   4.325
 3353TIP3    H110065   1.220   4.423   4.385
 3353TIP3    H210066   1.204   4.289   4.316
 3354TIP3   OH210067   3.067   3.219   4.293
 3354TIP3    H110068   3.002   3.289   4.298
 3354TIP3    H210069   3.019   3.144   4.257
 3355TIP3   OH210070   0.525   0.187   1.683
 3355TIP3    H110071   0.554   0.104   1.645
 3355TIP3    H210072   0.604   0.226   1.720
 3356TIP3   OH210073   5.690   4.517   0.583
 3356TIP3    H110074   5.611   4.550   0.541
 3356TIP3    H210075   5.760   4.538   0.523
 3357TIP3   OH210076   2.524   1.020   4.387
 3357TIP3    H110077   2.586   0.966   4.339
 3357TIP3    H210078   2.441   0.974   4.380
 3358TIP3   OH210079   3.424   0.973   4.296
 3358TIP3    H110080   3.372   1.052   4.282
 3358TIP3    H210081   3.509   1.005   4.326
 3359TIP3   OH210082   1.788   3.497   2.436
 3359TIP3    H110083   1.815   3.586   2.414
 3359TIP3    H210084   1.728   3.507   2.509
 3360TIP3   OH210085   1.433   0.036   4.683
 3360TIP3    H110086   1.364   0.083   4.730
 3360TIP3    H210087   1.513   0.085   4.701
 3361TIP3   OH210088   2.176   5.794   0.608
 3361TIP3    H110089   2.147   5.885   0.615
 3361TIP3    H210090   2.158   5.756   0.694
 3362TIP3   OH210091   5.595   3.123   3.436
 3362TIP3    H110092   5.590   3.037   3.394
 3362TIP3    H210093   5.547   3.112   3.518
 3363TIP3   OH210094   4.179   2.636   4.032
 3363TIP3    H110095   4.134   2.569   4.084
 3363TIP3    H210096   4.150   2.621   3.942
 3364TIP3   OH210097   2.946   1.604   4.447
 3364TIP3    H110098   2.888   1.646   4.510
 3364TIP3    H210099   2.887   1.565   4.382
 3365TIP3   OH210100   5.454   0.192   1.304
 3365TIP3    H110101   5.484   0.151   1.385
 3365TIP3    H210102   5.510   0.269   1.294
 3366TIP3   OH210103   2.417   5.918   4.885
 3366TIP3    H110104   2.499   5.909   4.934
 3366TIP3    H210105   2.422   5.851   4.817
 3367TIP3   OH210106   4.770   2.324   2.582
 3367TIP3    H110107   4.787   2.364   2.497
 3367TIP3    H210108   4.730   2.239   2.560
 3368TIP3   OH210109   1.084   2.121   2.429
 3368TIP3    H110110   1.107   2.064   2.503
 3368TIP3    H210111   1.032   2.191   2.469
 3369TIP3   OH210112   5.817   3.155   3.676
 3369TIP3    H110113   5.812   3.246   3.704
 3369TIP3    H210114   5.732   3.118   3.698
 3370TIP3   OH210115   4.190   5.048   2.810
 3370TIP3    H110116   4.124   5.016   2.873
 3370TIP3    H210117   4.147   5.041   2.725
 3371TIP3   OH210118   4.617   0.724   0.022
 3371TIP3    H110119   4.700   0.698   0.060
 3371TIP3    H210120   4.633   0.812  -0.013
 3372TIP3   OH210121   1.462   2.201   2.182
 3372TIP3    H110122   1.474   2.106   2.183
 3372TIP3    H210123   1.528   2.233   2.121
 3373TIP3   OH210124   5.650   2.741   2.900
 3373TIP3    H110125   5.595   2.787   2.963
 3373TIP3    H210126   5.730   2.793   2.896
 3374TIP3   OH210127   2.656   3.058   2.926
 3374TIP3    H110128   2.569   3.057   2.886
 3374TIP3    H210129   2.673   2.967   2.949
 3375TIP3   OH210130   0.071   2.924   3.092
 3375TIP3    H110131   0.062   2.931   2.997
 3375TIP3    H210132   0.013   2.853   3.118
 3376TIP3   OH210133   6.024   5.796   1.749
 3376TIP3    H110134   5.940   5.804   1.704
 3376TIP3    H210135   6.049   5.886   1.770
 3377TIP3   OH210136   3.438   2.686   3.588
 3377TIP3    H110137   3.416   2.675   3.496
 3377TIP3    H210138   3.409   2.774   3.610
 3378TIP3   OH210139   3.239   2.557   1.634
 3378TIP3    H110140   3.327   2.565   1.596
 3378TIP3    H210141   3.211   2.468   1.612
 3379TIP3   OH210142   0.062   0.962   3.386
 3379TIP3    H110143  -0.008   0.899   3.369
 3379TIP3    H210144   0.028   1.045   3.352
 3380TIP3   OH210145   2.571   0.935   3.693
 3380TIP3    H110146   2.638   0.869   3.707
 3380TIP3    H210147   2.576   0.955   3.600
 3381TIP3   OH210148   5.198   2.484   2.110
 3381TIP3    H110149   5.288   2.517   2.102
 3381TIP3    H210150   5.144   2.550   2.066
 3382TIP3   OH210151   4.140   2.050   4.197
 3382TIP3    H110152   4.165   2.131   4.243
 3382TIP3    H210153   4.220   1.997   4.197
 3383TIP3   OH210154   1.630   1.796   1.316
 3383TIP3    H110155   1.709   1.767   1.361
 3383TIP3    H210156   1.595   1.716   1.275
 3384TIP3   OH210157   0.720   2.133   3.850
 3384TIP3    H110158   0.805   2.122   3.806
 3384TIP3    H210159   0.742   2.129   3.943
 3385TIP3   OH210160   4.779   0.411   0.421
 3385TIP3    H110161   4.716   0.346   0.390
 3385TIP3    H210162   4.783   0.476   0.350
 3386TIP3   OH210163   2.496   0.160   0.614
 3386TIP3    H110164   2.563   0.180   0.680
 3386TIP3    H210165   2.483   0.065   0.622
 3387TIP3   OH210166   0.561   1.815   1.910
 3387TIP3    H110167   0.498   1.867   1.960
 3387TIP3    H210168   0.521   1.728   1.904
 3388TIP3   OH210169   6.157   3.676   1.050
 3388TIP3    H110170   6.200   3.682   0.964
 3388TIP3    H210171   6.153   3.766   1.081
 3389TIP3   OH210172   2.722   5.906   4.710
 3389TIP3    H110173   2.793   5.843   4.698
 3389TIP3    H210174   2.702   5.903   4.803
 3390TIP3   OH210175   0.749   3.332   2.122
 3390TIP3    H110176   0.753   3.350   2.216
 3390TIP3    H210177   0.764   3.417   2.080
 3391TIP3   OH210178   5.794   0.894   2.558
 3391TIP3    H110179   5.873   0.947   2.568
 3391TIP3    H210180   5.798   0.862   2.468
 3392TIP3   OH210181   3.518   4.387   5.201
 3392TIP3    H110182   3.514   4.382   5.106
 3392TIP3    H210183   3.480   4.472   5.223
 3393TIP3   OH210184   3.329   3.248   5.045
 3393TIP3    H110185   3.252   3.210   5.085
 3393TIP3    H210186   3.403   3.217   5.098
 3394TIP3   OH210187   5.069   1.930   3.919
 3394TIP3    H110188   5.005   1.997   3.893
 3394TIP3    H210189   5.116   1.970   3.992
 3395TIP3   OH210190   0.115   3.917   0.245
 3395TIP3    H110191   0.198   3.965   0.243
 3395TIP3    H210192   0.138   3.831   0.279
 3396TIP3   OH210193   0.928   4.368   1.659
 3396TIP3    H110194   1.009   4.413   1.682
 3396TIP3    H210195   0.948   4.321   1.578
 3397TIP3   OH210196   5.709   0.933   4.997
 3397TIP3    H110197   5.665   0.978   4.925
 3397TIP3    H210198   5.777   0.881   4.955
 3398TIP3   OH210199   1.672   1.743   4.383
 3398TIP3    H110200   1.634   1.674   4.437
 3398TIP3    H210201   1.623   1.822   4.408
 3399TIP3   OH210202   0.245   1.566   2.597
 3399TIP3    H110203   0.166   1.615   2.574
 3399TIP3    H210204   0.212   1.483   2.631
 3400TIP3   OH210205   0.399   5.934   1.003
 3400TIP3    H110206   0.484   5.977   0.996
 3400TIP3    H210207   0.382   5.901   0.915
 3401TIP3   OH210208   1.728   2.572   4.719
 3401TIP3    H110209   1.636   2.593   4.705
 3401TIP3    H210210   1.751   2.617   4.800
 3402TIP3   OH210211   1.473   1.158   2.551
 3402TIP3    H110212   1.478   1.081   2.608
 3402TIP3    H210213   1.542   1.144   2.485
 3403TIP3   OH210214   5.245   1.502   0.396
 3403TIP3    H110215   5.309   1.463   0.337
 3403TIP3    H210216   5.288   1.501   0.482
 3404TIP3   OH210217   4.642   4.813   3.402
 3404TIP3    H110218   4.590   4.753   3.347
 3404TIP3    H210219   4.632   4.898   3.360
 3405TIP3   OH210220   2.793   2.330   3.299
 3405TIP3    H110221   2.744   2.366   3.224
 3405TIP3    H210222   2.804   2.237   3.278
 3406TIP3   OH210223   1.318   0.076   0.491
 3406TIP3    H110224   1.341  -0.002   0.542
 3406TIP3    H210225   1.333   0.051   0.400
 3407TIP3   OH210226   4.210   5.879   1.528
 3407TIP3    H110227   4.221   5.815   1.598
 3407TIP3    H210228   4.277   5.945   1.545
 3408TIP3   OH210229   1.560   4.024   0.138
 3408TIP3    H110230   1.510   4.011   0.058
 3408TIP3    H210231   1.509   3.980   0.206
 3409TIP3   OH210232   2.271   0.148   4.535
 3409TIP3    H110233   2.362   0.175   4.525
 3409TIP3    H210234   2.233   0.160   4.447
 3410TIP3   OH210235   2.236   2.201   2.722
 3410TIP3    H110236   2.202   2.156   2.799
 3410TIP3    H210237   2.232   2.137   2.652
 3411TIP3   OH210238   5.576   2.931   0.952
 3411TIP3    H110239   5.580   3.022   0.921
 3411TIP3    H210240   5.565   2.939   1.046
 3412TIP3   OH210241   3.354   4.375   1.921
 3412TIP3    H110242   3.441   4.335   1.912
 3412TIP3    H210243   3.373   4.467   1.938
 3413TIP3   OH210244   4.641   0.105   3.579
 3413TIP3    H110245   4.582   0.073   3.647
 3413TIP3    H210246   4.715   0.143   3.626
 3414TIP3   OH210247   3.772   3.813   2.138
 3414TIP3    H110248   3.798   3.899   2.105
 3414TIP3    H210249   3.718   3.831   2.215
 3415TIP3   OH210250   5.340   1.736   4.184
 3415TIP3    H110251   5.313   1.724   4.093
 3415TIP3    H210252   5.365   1.649   4.214
 3416TIP3   OH210253   4.104   5.820   2.230
 3416TIP3    H110254   4.109   5.801   2.136
 3416TIP3    H210255   4.034   5.764   2.262
 3417TIP3   OH210256   2.775   2.634   2.541
 3417TIP3    H110257   2.750   2.641   2.449
 3417TIP3    H210258   2.861   2.675   2.546
 3418TIP3   OH210259   4.788   1.387   1.878
 3418TIP3    H110260   4.710   1.409   1.929
 3418TIP3    H210261   4.770   1.300   1.842
 3419TIP3   OH210262   1.685   3.131   3.321
 3419TIP3    H110263   1.609   3.073   3.319
 3419TIP3    H210264   1.739   3.103   3.247
 3420TIP3   OH210265   0.692   1.803   2.678
 3420TIP3    H110266   0.710   1.863   2.606
 3420TIP3    H210267   0.608   1.762   2.655
 3421TIP3   OH210268   5.357   1.234   5.155
 3421TIP3    H110269   5.342   1.143   5.131
 3421TIP3    H210270   5.450   1.249   5.135
 3422TIP3   OH210271   4.307   2.651   3.151
 3422TIP3    H110272   4.380   2.712   3.160
 3422TIP3    H210273   4.338   2.571   3.194
 3423TIP3   OH210274   0.683   0.302   4.913
 3423TIP3    H110275   0.667   0.248   4.990
 3423TIP3    H210276   0.661   0.391   4.941
 3424TIP3   OH210277   6.266   3.687   2.920
 3424TIP3    H110278   6.254   3.729   2.835
 3424TIP3    H210279   6.180   3.691   2.962
 3425TIP3   OH210280   1.546   4.683   4.563
 3425TIP3    H110281   1.506   4.713   4.481
 3425TIP3    H210282   1.640   4.699   4.550
 3426TIP3   OH210283   4.718   1.883   2.280
 3426TIP3    H110284   4.670   1.883   2.362
 3426TIP3    H210285   4.677   1.952   2.228
 3427TIP3   OH210286   4.884   2.520   0.652
 3427TIP3    H110287   4.972   2.491   0.627
 3427TIP3    H210288   4.878   2.500   0.745
 3428TIP3   OH210289   3.804   1.070   2.006
 3428TIP3    H110290   3.746   1.018   2.061
 3428TIP3    H210291   3.868   1.008   1.972
 3429TIP3   OH210292   2.347   0.454   5.166
 3429TIP3    H110293   2.318   0.530   5.116
 3429TIP3    H210294   2.435   0.476   5.197
 3430TIP3   OH210295   3.116   0.205   3.665
 3430TIP3    H110296   3.021   0.202   3.677
 3430TIP3    H210297   3.146   0.273   3.726
 3431TIP3   OH210298   6.063   0.379   0.882
 3431TIP3    H110299   6.094   0.467   0.903
 3431TIP3    H210300   6.119   0.350   0.810
 3432TIP3   OH210301   1.621   5.932   1.714
 3432TIP3    H110302   1.624   5.923   1.618
 3432TIP3    H210303   1.530   5.912   1.736
 3433TIP3   OH210304   1.313   0.186   4.468
 3433TIP3    H110305   1.317   0.091   4.479
 3433TIP3    H210306   1.405   0.213   4.462
 3434TIP3   OH210307   1.447   4.490   3.344
 3434TIP3    H110308   1.464   4.430   3.272
 3434TIP3    H210309   1.519   4.474   3.406
 3435TIP3   OH210310   2.395   5.224   1.382
 3435TIP3    H110311   2.307   5.235   1.416
 3435TIP3    H210312   2.391   5.144   1.330
 3436TIP3   OH210313   3.864   4.960   0.372
 3436TIP3    H110314   3.897   4.943   0.284
 3436TIP3    H210315   3.769   4.964   0.361
 3437TIP3   OH210316   1.725   0.346   4.255
 3437TIP3    H110317   1.714   0.251   4.257
 3437TIP3    H210318   1.817   0.360   4.280
 3438TIP3   OH210319   2.147   4.286   4.295
 3438TIP3    H110320   2.133   4.243   4.210
 3438TIP3    H210321   2.195   4.221   4.346
 3439TIP3   OH210322   4.742   0.206   4.949
 3439TIP3    H110323   4.743   0.200   5.045
 3439TIP3    H210324   4.662   0.256   4.930
 3440TIP3   OH210325   1.988   5.436   2.813
 3440TIP3    H110326   1.905   5.401   2.845
 3440TIP3    H210327   1.966   5.518   2.770
 3441TIP3   OH210328   0.955   5.286   4.268
 3441TIP3    H110329   1.001   5.234   4.334
 3441TIP3    H210330   1.014   5.360   4.250
 3442TIP3   OH210331   3.040   3.463   3.201
 3442TIP3    H110332   2.951   3.485   3.230
 3442TIP3    H210333   3.043   3.367   3.204
 3443TIP3   OH210334   4.188   1.864   5.077
 3443TIP3    H110335   4.244   1.935   5.108
 3443TIP3    H210336   4.222   1.843   4.990
 3444TIP3   OH210337   1.116   3.341   4.458
 3444TIP3    H110338   1.110   3.330   4.363
 3444TIP3    H210339   1.131   3.253   4.492
 3445TIP3   OH210340   5.238   3.656   0.054
 3445TIP3    H110341   5.166   3.689   0.108
 3445TIP3    H210342   5.317   3.684   0.101
 3446TIP3   OH210343   0.320   0.610   4.872
 3446TIP3    H110344   0.359   0.678   4.817
 3446TIP3    H210345   0.244   0.652   4.913
 3447TIP3   OH210346   3.299   2.977   1.223
 3447TIP3    H110347   3.281   3.000   1.132
 3447TIP3    H210348   3.340   2.891   1.218
 3448TIP3   OH210349   5.461   0.417   0.055
 3448TIP3    H110350   5.392   0.371   0.102
 3448TIP3    H210351   5.426   0.429  -0.034
 3449TIP3   OH210352   1.986   2.434   3.228
 3449TIP3    H110353   2.017   2.352   3.190
 3449TIP3    H210354   2.054   2.458   3.291
 3450TIP3   OH210355   2.456   4.824   2.751
 3450TIP3    H110356   2.546   4.826   2.720
 3450TIP3    H210357   2.416   4.902   2.714
 3451TIP3   OH210358   1.348   4.101   5.133
 3451TIP3    H110359   1.359   4.116   5.039
 3451TIP3    H210360   1.254   4.087   5.143
 3452TIP3   OH210361   3.032   0.527   4.889
 3452TIP3    H110362   3.111   0.507   4.939
 3452TIP3    H210363   2.993   0.602   4.934
 3453TIP3   OH210364   0.986   1.845   1.496
 3453TIP3    H110365   0.931   1.909   1.451
 3453TIP3    H210366   0.982   1.767   1.442
 3454TIP3   OH210367   6.135   0.113   1.491
 3454TIP3    H110368   6.181   0.032   1.466
 3454TIP3    H210369   6.114   0.155   1.408
 3455TIP3   OH210370   4.811   3.832   0.624
 3455TIP3    H110371   4.730   3.826   0.674
 3455TIP3    H210372   4.870   3.882   0.681
 3456TIP3   OH210373   4.851   4.322   3.078
 3456TIP3    H110374   4.848   4.337   3.172
 3456TIP3    H210375   4.900   4.396   3.043
 3457TIP3   OH210376   1.773   3.517   0.102
 3457TIP3    H110377   1.770   3.604   0.143
 3457TIP3    H210378   1.837   3.527   0.032
 3458TIP3   OH210379   0.405   5.445   5.135
 3458TIP3    H110380   0.482   5.389   5.142
 3458TIP3    H210381   0.386   5.448   5.041
 3459TIP3   OH210382   4.900   2.011   2.941
 3459TIP3    H110383   4.978   2.041   2.893
 3459TIP3    H210384   4.872   1.933   2.893
 3460TIP3   OH210385   6.016   2.166   2.955
 3460TIP3    H110386   6.045   2.244   2.907
 3460TIP3    H210387   6.096   2.132   2.994
 3461TIP3   OH210388   4.344   3.622   3.509
 3461TIP3    H110389   4.333   3.697   3.451
 3461TIP3    H210390   4.265   3.570   3.496
 3462TIP3   OH210391   2.479   1.512   5.155
 3462TIP3    H110392   2.416   1.507   5.083
 3462TIP3    H210393   2.540   1.581   5.128
 3463TIP3   OH210394   4.095   1.397   3.838
 3463TIP3    H110395   4.062   1.404   3.749
 3463TIP3    H210396   4.076   1.481   3.878
 3464TIP3   OH210397   6.304   1.531   3.071
 3464TIP3    H110398   6.314   1.487   3.155
 3464TIP3    H210399   6.348   1.616   3.082
 3465TIP3   OH210400   0.530   1.780   4.942
 3465TIP3    H110401   0.590   1.830   4.997
 3465TIP3    H210402   0.587   1.727   4.886
 3466TIP3   OH210403   2.837   3.514   1.291
 3466TIP3    H110404   2.747   3.512   1.258
 3466TIP3    H210405   2.871   3.426   1.275
 3467TIP3   OH210406   5.554   5.214   4.240
 3467TIP3    H110407   5.479   5.258   4.200
 3467TIP3    H210408   5.571   5.264   4.321
 3468TIP3   OH210409   3.936   5.274   3.112
 3468TIP3    H110410   4.000   5.344   3.094
 3468TIP3    H210411   3.963   5.239   3.197
 3469TIP3   OH210412   2.028   5.321   4.169
 3469TIP3    H110413   2.033   5.241   4.221
 3469TIP3    H210414   1.980   5.296   4.090
 3470TIP3   OH210415   3.832   1.556   4.946
 3470TIP3    H110416   3.887   1.623   4.905
 3470TIP3    H210417   3.840   1.571   5.040
 3471TIP3   OH210418   3.311   3.332   4.760
 3471TIP3    H110419   3.218   3.327   4.739
 3471TIP3    H210420   3.316   3.306   4.852
 3472TIP3   OH210421   0.104   1.409   5.046
 3472TIP3    H110422   0.159   1.486   5.034
 3472TIP3    H210423   0.045   1.409   4.970
 3473TIP3   OH210424   0.549   4.553   4.913
 3473TIP3    H110425   0.544   4.468   4.871
 3473TIP3    H210426   0.503   4.612   4.854
 3474TIP3   OH210427   5.134   1.372   2.843
 3474TIP3    H110428   5.100   1.414   2.922
 3474TIP3    H210429   5.182   1.296   2.875
 3475TIP3   OH210430   3.181   2.153   4.403
 3475TIP3    H110431   3.193   2.229   4.461
 3475TIP3    H210432   3.196   2.188   4.315
 3476TIP3   OH210433   5.752   5.823   0.389
 3476TIP3    H110434   5.734   5.806   0.482
 3476TIP3    H210435   5.741   5.738   0.347
 3477TIP3   OH210436   4.447   0.722   1.586
 3477TIP3    H110437   4.478   0.781   1.518
 3477TIP3    H210438   4.403   0.651   1.538
 3478TIP3   OH210439   4.862   5.537   2.284
 3478TIP3    H110440   4.847   5.444   2.265
 3478TIP3    H210441   4.952   5.541   2.315
 3479TIP3   OH210442   0.147   3.201   2.849
 3479TIP3    H110443   0.169   3.272   2.909
 3479TIP3    H210444   0.065   3.164   2.884
 3480TIP3   OH210445   2.360   1.327   0.698
 3480TIP3    H110446   2.300   1.253   0.684
 3480TIP3    H210447   2.405   1.306   0.780
 3481TIP3   OH210448   1.253   2.401   0.246
 3481TIP3    H110449   1.167   2.389   0.286
 3481TIP3    H210450   1.253   2.492   0.216
 3482TIP3   OH210451   2.308   1.516   3.073
 3482TIP3    H110452   2.322   1.533   3.166
 3482TIP3    H210453   2.348   1.431   3.058
 3483TIP3   OH210454   0.655   2.867   0.193
 3483TIP3    H110455   0.645   2.931   0.123
 3483TIP3    H210456   0.602   2.902   0.265
 3484TIP3   OH210457   4.316   3.441   1.495
 3484TIP3    H110458   4.271   3.525   1.491
 3484TIP3    H210459   4.343   3.433   1.587
 3485TIP3   OH210460   3.513   0.532   3.793
 3485TIP3    H110461   3.468   0.514   3.875
 3485TIP3    H210462   3.569   0.456   3.779
 3486TIP3   OH210463   5.029   2.887   4.313
 3486TIP3    H110464   5.023   2.876   4.218
 3486TIP3    H210465   4.947   2.850   4.346
 3487TIP3   OH210466   1.605   4.017   0.627
 3487TIP3    H110467   1.590   4.083   0.560
 3487TIP3    H210468   1.562   4.052   0.705
 3488TIP3   OH210469   3.548   0.317   2.232
 3488TIP3    H110470   3.456   0.332   2.208
 3488TIP3    H210471   3.592   0.400   2.214
 3489TIP3   OH210472   1.957   2.312   4.409
 3489TIP3    H110473   1.890   2.246   4.391
 3489TIP3    H210474   1.970   2.308   4.504
 3490TIP3   OH210475   1.538   2.612   0.412
 3490TIP3    H110476   1.547   2.524   0.450
 3490TIP3    H210477   1.448   2.637   0.433
 3491TIP3   OH210478   1.341   1.649   1.900
 3491TIP3    H110479   1.286   1.726   1.885
 3491TIP3    H210480   1.280   1.578   1.916
 3492TIP3   OH210481   5.065   4.448   0.634
 3492TIP3    H110482   5.064   4.459   0.539
 3492TIP3    H210483   4.997   4.506   0.666
 3493TIP3   OH210484   1.895   2.730   1.743
 3493TIP3    H110485   1.961   2.670   1.780
 3493TIP3    H210486   1.919   2.738   1.651
 3494TIP3   OH210487   3.869   0.172   4.901
 3494TIP3    H110488   3.817   0.094   4.917
 3494TIP3    H210489   3.941   0.167   4.965
 3495TIP3   OH210490   2.261   2.660   3.279
 3495TIP3    H110491   2.172   2.695   3.284
 3495TIP3    H210492   2.300   2.705   3.204
 3496TIP3   OH210493   3.943   1.276   1.642
 3496TIP3    H110494   3.985   1.298   1.725
 3496TIP3    H210495   4.006   1.218   1.598
 3497TIP3   OH210496   1.348   1.885   4.139
 3497TIP3    H110497   1.440   1.900   4.161
 3497TIP3    H210498   1.342   1.905   4.045
 3498TIP3   OH210499   2.329   2.749   2.264
 3498TIP3    H110500   2.392   2.723   2.197
 3498TIP3    H210501   2.322   2.672   2.321
 3499TIP3   OH210502   1.616   3.465   5.088
 3499TIP3    H110503   1.657   3.428   5.167
 3499TIP3    H210504   1.676   3.535   5.061
 3500TIP3   OH210505   3.874   3.853   0.731
 3500TIP3    H110506   3.934   3.822   0.663
 3500TIP3    H210507   3.787   3.828   0.699
 3501TIP3   OH210508   3.581   4.235   1.865
 3501TIP3    H110509   3.543   4.184   1.794
 3501TIP3    H210510   3.639   4.174   1.910
 3502TIP3   OH210511   5.808   3.160   2.852
 3502TIP3    H110512   5.773   3.104   2.783
 3502TIP3    H210513   5.761   3.132   2.931
 3503TIP3   OH210514   0.157   0.993   4.208
 3503TIP3    H110515   0.091   1.062   4.195
 3503TIP3    H210516   0.107   0.920   4.245
 3504TIP3   OH210517   3.902   5.379   3.537
 3504TIP3    H110518   3.973   5.397   3.475
 3504TIP3    H210519   3.872   5.466   3.565
 3505TIP3   OH210520   4.402   0.765   2.462
 3505TIP3    H110521   4.482   0.811   2.488
 3505TIP3    H210522   4.332   0.827   2.481
 3506TIP3   OH210523   5.187   5.934   0.356
 3506TIP3    H110524   5.275   5.950   0.323
 3506TIP3    H210525   5.171   5.841   0.339
 3507TIP3   OH210526   1.940   1.318   0.223
 3507TIP3    H110527   1.923   1.353   0.136
 3507TIP3    H210528   1.940   1.223   0.211
 3508TIP3   OH210529   5.796   0.225   1.505
 3508TIP3    H110530   5.831   0.174   1.432
 3508TIP3    H210531   5.702   0.230   1.488
 3509TIP3   OH210532   3.879   5.409   2.502
 3509TIP3    H110533   3.810   5.380   2.442
 3509TIP3    H210534   3.921   5.328   2.530
 3510TIP3   OH210535   1.459   2.584   0.966
 3510TIP3    H110536   1.407   2.604   0.888
 3510TIP3    H210537   1.430   2.497   0.992
 3511TIP3   OH210538   0.586   1.728   2.929
 3511TIP3    H110539   0.604   1.767   2.844
 3511TIP3    H210540   0.671   1.719   2.971
 3512TIP3   OH210541   3.304   4.897   3.558
 3512TIP3    H110542   3.309   4.945   3.475
 3512TIP3    H210543   3.232   4.939   3.606
 3513TIP3   OH210544   2.630   0.750   2.182
 3513TIP3    H110545   2.645   0.820   2.118
 3513TIP3    H210546   2.653   0.790   2.267
 3514TIP3   OH210547   2.455   2.373   2.711
 3514TIP3    H110548   2.374   2.324   2.696
 3514TIP3    H210549   2.427   2.464   2.713
 3515TIP3   OH210550   0.439   3.332   2.038
 3515TIP3    H110551   0.474   3.291   1.959
 3515TIP3    H210552   0.407   3.417   2.008
 3516TIP3   OH210553   2.772   0.133   4.702
 3516TIP3    H110554   2.778   0.061   4.765
 3516TIP3    H210555   2.813   0.207   4.746
 3517TIP3   OH210556   3.005   2.158   1.409
 3517TIP3    H110557   3.093   2.183   1.437
 3517TIP3    H210558   2.950   2.173   1.486
 3518TIP3   OH210559   5.686   1.343   3.691
 3518TIP3    H110560   5.766   1.340   3.744
 3518TIP3    H210561   5.706   1.404   3.620
 3519TIP3   OH210562   2.311   0.577   4.777
 3519TIP3    H110563   2.398   0.537   4.778
 3519TIP3    H210564   2.255   0.511   4.736
 3520TIP3   OH210565   3.025   2.315   2.379
 3520TIP3    H110566   2.978   2.270   2.449
 3520TIP3    H210567   2.957   2.359   2.328
 3521TIP3   OH210568   2.573   2.827   0.129
 3521TIP3    H110569   2.600   2.811   0.038
 3521TIP3    H210570   2.582   2.921   0.140
 3522TIP3   OH210571   1.587   4.530   0.660
 3522TIP3    H110572   1.525   4.513   0.589
 3522TIP3    H210573   1.673   4.519   0.620
 3523TIP3   OH210574   0.673   4.762   3.784
 3523TIP3    H110575   0.631   4.843   3.813
 3523TIP3    H210576   0.761   4.790   3.756
 3524TIP3   OH210577   5.665   3.456   4.502
 3524TIP3    H110578   5.669   3.393   4.430
 3524TIP3    H210579   5.579   3.497   4.493
 3525TIP3   OH210580   4.191   2.540   3.736
 3525TIP3    H110581   4.136   2.462   3.744
 3525TIP3    H210582   4.134   2.607   3.699
 3526TIP3   OH210583   0.049   4.784   0.859
 3526TIP3    H110584   0.110   4.819   0.924
 3526TIP3    H210585   0.090   4.703   0.830
 3527TIP3   OH210586   6.082   2.878   0.751
 3527TIP3    H110587   6.115   2.895   0.839
 3527TIP3    H210588   6.131   2.801   0.721
 3528TIP3   OH210589   6.006   0.823   0.732
 3528TIP3    H110590   6.094   0.787   0.724
 3528TIP3    H210591   6.018   0.918   0.728
 3529TIP3   OH210592   4.049   0.810   3.705
 3529TIP3    H110593   4.125   0.868   3.711
 3529TIP3    H210594   4.081   0.724   3.734
 3530TIP3   OH210595   1.311   0.406   0.174
 3530TIP3    H110596   1.363   0.459   0.235
 3530TIP3    H210597   1.374   0.344   0.137
 3531TIP3   OH210598   6.106   0.993   2.617
 3531TIP3    H110599   6.117   0.939   2.696
 3531TIP3    H210600   6.160   0.949   2.551
 3532TIP3   OH210601   4.615   5.532   0.471
 3532TIP3    H110602   4.647   5.557   0.557
 3532TIP3    H210603   4.524   5.563   0.469
 3533TIP3   OH210604   5.422   5.112   2.294
 3533TIP3    H110605   5.347   5.052   2.299
 3533TIP3    H210606   5.406   5.164   2.215
 3534TIP3   OH210607   0.198   2.346   2.081
 3534TIP3    H110608   0.243   2.262   2.073
 3534TIP3    H210609   0.211   2.371   2.173
 3535TIP3   OH210610   1.594   3.102   4.379
 3535TIP3    H110611   1.504   3.096   4.349
 3535TIP3    H210612   1.601   3.037   4.449
 3536TIP3   OH210613   2.913   3.314   0.194
 3536TIP3    H110614   2.958   3.365   0.126
 3536TIP3    H210615   2.984   3.279   0.248
 3537TIP3   OH210616   0.676   2.392   4.000
 3537TIP3    H110617   0.614   2.453   3.958
 3537TIP3    H210618   0.723   2.353   3.926
 3538TIP3   OH210619   2.280   5.980   0.378
 3538TIP3    H110620   2.252   5.958   0.289
 3538TIP3    H210621   2.330   5.904   0.407
 3539TIP3   OH210622   3.538   4.694   0.314
 3539TIP3    H110623   3.630   4.680   0.292
 3539TIP3    H210624   3.527   4.789   0.312
 3540TIP3   OH210625   2.892   2.955   0.785
 3540TIP3    H110626   2.817   3.015   0.784
 3540TIP3    H210627   2.909   2.936   0.693
 3541TIP3   OH210628   3.170   4.111   2.614
 3541TIP3    H110629   3.093   4.136   2.665
 3541TIP3    H210630   3.173   4.175   2.543
 3542TIP3   OH210631   4.644   4.462   3.871
 3542TIP3    H110632   4.655   4.497   3.783
 3542TIP3    H210633   4.623   4.538   3.925
 3543TIP3   OH210634   4.165   2.399   0.298
 3543TIP3    H110635   4.219   2.456   0.244
 3543TIP3    H210636   4.181   2.428   0.388
 3544TIP3   OH210637   1.155   3.496   4.946
 3544TIP3    H110638   1.245   3.475   4.923
 3544TIP3    H210639   1.111   3.509   4.862
 3545TIP3   OH210640   6.317   3.976   3.791
 3545TIP3    H110641   6.368   4.042   3.745
 3545TIP3    H210642   6.236   3.968   3.741
 3546TIP3   OH210643   4.188   4.478   3.812
 3546TIP3    H110644   4.159   4.462   3.902
 3546TIP3    H210645   4.230   4.564   3.816
 3547TIP3   OH210646   4.539   2.359   2.719
 3547TIP3    H110647   4.474   2.340   2.652
 3547TIP3    H210648   4.622   2.361   2.672
 3548TIP3   OH210649   2.594   3.256   3.120
 3548TIP3    H110650   2.625   3.212   3.041
 3548TIP3    H210651   2.649   3.334   3.127
 3549TIP3   OH210652   5.818   4.608   2.391
 3549TIP3    H110653   5.737   4.559   2.376
 3549TIP3    H210654   5.788   4.694   2.421
 3550TIP3   OH210655   3.257   4.164   0.587
 3550TIP3    H110656   3.276   4.258   0.582
 3550TIP3    H210657   3.222   4.142   0.501
 3551TIP3   OH210658   3.311   3.171   0.944
 3551TIP3    H110659   3.379   3.104   0.939
 3551TIP3    H210660   3.356   3.252   0.917
 3552TIP3   OH210661   4.141   5.680   4.669
 3552TIP3    H110662   4.133   5.758   4.614
 3552TIP3    H210663   4.210   5.702   4.732
 3553TIP3   OH210664   6.273   0.297   1.297
 3553TIP3    H110665   6.216   0.365   1.334
 3553TIP3    H210666   6.339   0.345   1.248
 3554TIP3   OH210667   2.412   2.045   4.104
 3554TIP3    H110668   2.337   2.087   4.062
 3554TIP3    H210669   2.487   2.097   4.075
 3555TIP3   OH210670   0.973   3.970   1.702
 3555TIP3    H110671   0.929   4.022   1.635
 3555TIP3    H210672   0.929   3.885   1.699
 3556TIP3   OH210673   1.011   1.844   2.392
 3556TIP3    H110674   1.062   1.893   2.456
 3556TIP3    H210675   0.952   1.909   2.354
 3557TIP3   OH210676   0.742   3.590   2.068
 3557TIP3    H110677   0.828   3.619   2.100
 3557TIP3    H210678   0.687   3.668   2.074
 3558TIP3   OH210679   3.531   4.489   3.334
 3558TIP3    H110680   3.501   4.577   3.356
 3558TIP3    H210681   3.472   4.431   3.382
 3559TIP3   OH210682   4.671   2.493   2.006
 3559TIP3    H110683   4.672   2.532   2.094
 3559TIP3    H210684   4.756   2.449   1.999
 3560TIP3   OH210685   3.579   3.189   2.028
 3560TIP3    H110686   3.548   3.227   2.111
 3560TIP3    H210687   3.499   3.168   1.980
 3561TIP3   OH210688   5.051   4.074   3.643
 3561TIP3    H110689   5.008   4.096   3.725
 3561TIP3    H210690   5.136   4.118   3.648
 3562TIP3   OH210691   1.246   1.096   1.694
 3562TIP3    H110692   1.277   1.140   1.773
 3562TIP3    H210693   1.310   1.026   1.679
 3563TIP3   OH210694   1.787   2.933   5.098
 3563TIP3    H110695   1.811   2.978   5.179
 3563TIP3    H210696   1.719   2.988   5.060
 3564TIP3   OH210697   4.315   2.319   0.774
 3564TIP3    H110698   4.361   2.236   0.761
 3564TIP3    H210699   4.233   2.295   0.818
 3565TIP3   OH210700   0.479   2.791   5.064
 3565TIP3    H110701   0.475   2.761   4.974
 3565TIP3    H210702   0.433   2.874   5.064
 3566TIP3   OH210703   0.893   2.505   1.811
 3566TIP3    H110704   0.907   2.449   1.735
 3566TIP3    H210705   0.874   2.592   1.774
 3567TIP3   OH210706   5.389   0.114   1.753
 3567TIP3    H110707   5.424   0.082   1.837
 3567TIP3    H210708   5.295   0.098   1.760
 3568TIP3   OH210709   3.283   0.465   2.227
 3568TIP3    H110710   3.243   0.527   2.166
 3568TIP3    H210711   3.273   0.505   2.313
 3569TIP3   OH210712   5.754   0.888   1.341
 3569TIP3    H110713   5.726   0.934   1.262
 3569TIP3    H210714   5.766   0.958   1.406
 3570TIP3   OH210715   3.061   0.320   3.353
 3570TIP3    H110716   3.085   0.235   3.392
 3570TIP3    H210717   3.142   0.351   3.313
 3571TIP3   OH210718   5.708   2.066   0.603
 3571TIP3    H110719   5.739   2.011   0.674
 3571TIP3    H210720   5.788   2.099   0.561
 3572TIP3   OH210721   4.771   0.496   3.624
 3572TIP3    H110722   4.759   0.473   3.532
 3572TIP3    H210723   4.808   0.584   3.622
 3573TIP3   OH210724   0.642   3.546   4.650
 3573TIP3    H110725   0.659   3.535   4.556
 3573TIP3    H210726   0.577   3.479   4.670
 3574TIP3   OH210727   5.548   3.077   4.742
 3574TIP3    H110728   5.561   2.987   4.773
 3574TIP3    H210729   5.490   3.117   4.806
 3575TIP3   OH210730   4.972   1.514   5.140
 3575TIP3    H110731   5.038   1.558   5.086
 3575TIP3    H210732   4.912   1.584   5.165
 3576TIP3   OH210733   4.377   5.100   2.421
 3576TIP3    H110734   4.402   5.061   2.505
 3576TIP3    H210735   4.285   5.074   2.409
 3577TIP3   OH210736   5.736   5.786   4.905
 3577TIP3    H110737   5.723   5.838   4.826
 3577TIP3    H210738   5.776   5.847   4.967
 3578TIP3   OH210739   5.254   0.103   4.173
 3578TIP3    H110740   5.191   0.041   4.136
 3578TIP3    H210741   5.272   0.069   4.261
 3579TIP3   OH210742   0.766   3.737   3.749
 3579TIP3    H110743   0.785   3.644   3.763
 3579TIP3    H210744   0.676   3.748   3.778
 3580TIP3   OH210745   1.185   4.127   3.104
 3580TIP3    H110746   1.167   4.184   3.179
 3580TIP3    H210747   1.109   4.068   3.100
 3581TIP3   OH210748   0.569   0.847   2.948
 3581TIP3    H110749   0.630   0.785   2.988
 3581TIP3    H210750   0.601   0.858   2.859
 3582TIP3   OH210751   4.496   4.371   4.214
 3582TIP3    H110752   4.508   4.425   4.136
 3582TIP3    H210753   4.471   4.285   4.179
 3583TIP3   OH210754   2.660   2.979   1.771
 3583TIP3    H110755   2.710   2.905   1.808
 3583TIP3    H210756   2.726   3.034   1.730
 3584TIP3   OH210757   5.765   3.461   1.626
 3584TIP3    H110758   5.738   3.492   1.540
 3584TIP3    H210759   5.715   3.381   1.640
 3585TIP3   OH210760   5.400   3.552   1.958
 3585TIP3    H110761   5.476   3.608   1.940
 3585TIP3    H210762   5.348   3.556   1.879
 3586TIP3   OH210763   1.163   5.514   0.362
 3586TIP3    H110764   1.075   5.549   0.350
 3586TIP3    H210765   1.172   5.506   0.457
 3587TIP3   OH210766   0.041   2.650   1.494
 3587TIP3    H110767   0.048   2.555   1.481
 3587TIP3    H210768   0.056   2.662   1.588
 3588TIP3   OH210769   2.226   4.217   2.259
 3588TIP3    H110770   2.286   4.149   2.289
 3588TIP3    H210771   2.142   4.172   2.249
 3589TIP3   OH210772   3.884   3.823   0.153
 3589TIP3    H110773   3.838   3.740   0.142
 3589TIP3    H210774   3.943   3.808   0.226
 3590TIP3   OH210775   4.881   1.196   3.009
 3590TIP3    H110776   4.949   1.181   2.944
 3590TIP3    H210777   4.840   1.279   2.983
 3591TIP3   OH210778   6.264   2.971   4.927
 3591TIP3    H110779   6.202   2.918   4.976
 3591TIP3    H210780   6.341   2.915   4.917
 3592TIP3   OH210781   1.710   3.817   4.284
 3592TIP3    H110782   1.669   3.901   4.307
 3592TIP3    H210783   1.681   3.799   4.195
 3593TIP3   OH210784   0.419   3.768   2.419
 3593TIP3    H110785   0.454   3.856   2.407
 3593TIP3    H210786   0.496   3.711   2.423
 3594TIP3   OH210787   2.501   4.091   2.441
 3594TIP3    H110788   2.447   4.040   2.502
 3594TIP3    H210789   2.510   4.177   2.483
 3595TIP3   OH210790   0.577   3.372   0.007
 3595TIP3    H110791   0.606   3.379   0.098
 3595TIP3    H210792   0.488   3.409   0.007
 3596TIP3   OH210793   5.455   3.590   0.400
 3596TIP3    H110794   5.514   3.636   0.459
 3596TIP3    H210795   5.454   3.643   0.320
 3597TIP3   OH210796   5.160   3.745   3.941
 3597TIP3    H110797   5.136   3.838   3.941
 3597TIP3    H210798   5.104   3.706   3.875
 3598TIP3   OH210799   4.501   1.682   1.685
 3598TIP3    H110800   4.448   1.751   1.645
 3598TIP3    H210801   4.554   1.728   1.750
 3599TIP3   OH210802   0.067   4.059   2.995
 3599TIP3    H110803   0.005   4.047   2.923
 3599TIP3    H210804   0.115   3.976   3.000
 3600TIP3   OH210805   6.153   3.986   3.515
 3600TIP3    H110806   6.234   4.037   3.507
 3600TIP3    H210807   6.083   4.047   3.494
 3601TIP3   OH210808   5.711   1.745   1.391
 3601TIP3    H110809   5.671   1.826   1.358
 3601TIP3    H210810   5.714   1.687   1.316
 3602TIP3   OH210811   2.019   0.065   1.749
 3602TIP3    H110812   1.975   0.148   1.764
 3602TIP3    H210813   2.109   0.080   1.777
 3603TIP3   OH210814   2.155   5.303   4.718
 3603TIP3    H110815   2.181   5.290   4.627
 3603TIP3    H210816   2.182   5.223   4.763
 3604TIP3   OH210817   1.101   4.519   1.795
 3604TIP3    H110818   1.135   4.582   1.731
 3604TIP3    H210819   1.016   4.555   1.821
 3605TIP3   OH210820   0.577   4.497   1.524
 3605TIP3    H110821   0.642   4.566   1.520
 3605TIP3    H210822   0.580   4.467   1.615
 3606TIP3   OH210823   3.184   5.429   1.505
 3606TIP3    H110824   3.230   5.402   1.426
 3606TIP3    H210825   3.251   5.428   1.574
 3607TIP3   OH210826   5.801   4.932   3.025
 3607TIP3    H110827   5.751   4.860   2.989
 3607TIP3    H210828   5.805   4.997   2.954
 3608TIP3   OH210829   5.321   0.101   2.221
 3608TIP3    H110830   5.290   0.167   2.283
 3608TIP3    H210831   5.241   0.064   2.184
 3609TIP3   OH210832   5.756   5.911   1.695
 3609TIP3    H110833   5.756   5.908   1.791
 3609TIP3    H210834   5.693   5.979   1.673
 3610TIP3   OH210835   2.046   5.118   1.272
 3610TIP3    H110836   1.994   5.052   1.226
 3610TIP3    H210837   2.124   5.129   1.218
 3611TIP3   OH210838   0.934   3.640   1.090
 3611TIP3    H110839   0.978   3.555   1.091
 3611TIP3    H210840   0.903   3.651   1.180
 3612TIP3   OH210841   3.055   4.813   4.526
 3612TIP3    H110842   3.085   4.757   4.454
 3612TIP3    H210843   3.102   4.895   4.513
 3613TIP3   OH210844   4.928   3.451   0.548
 3613TIP3    H110845   4.996   3.407   0.599
 3613TIP3    H210846   4.889   3.515   0.608
 3614TIP3   OH210847   4.676   1.262   3.608
 3614TIP3    H110848   4.598   1.301   3.646
 3614TIP3    H210849   4.684   1.302   3.521
 3615TIP3   OH210850   4.156   2.259   4.636
 3615TIP3    H110851   4.222   2.319   4.671
 3615TIP3    H210852   4.154   2.278   4.542
 3616TIP3   OH210853   3.948   0.360   4.722
 3616TIP3    H110854   3.922   0.309   4.800
 3616TIP3    H210855   4.031   0.321   4.695
 3617TIP3   OH210856   0.446   0.011   2.139
 3617TIP3    H110857   0.480  -0.033   2.061
 3617TIP3    H210858   0.422   0.099   2.109
 3618TIP3   OH210859   3.434   2.840   5.170
 3618TIP3    H110860   3.404   2.809   5.085
 3618TIP3    H210861   3.495   2.772   5.200
 3619TIP3   OH210862   1.271   4.961   1.630
 3619TIP3    H110863   1.360   4.927   1.630
 3619TIP3    H210864   1.217   4.888   1.660
 3620TIP3   OH210865   4.407   1.341   3.840
 3620TIP3    H110866   4.321   1.350   3.798
 3620TIP3    H210867   4.418   1.247   3.853
 3621TIP3   OH210868   2.344   0.006   0.353
 3621TIP3    H110869   2.393   0.088   0.353
 3621TIP3    H210870   2.252   0.033   0.359
 3622TIP3   OH210871   1.275   4.267   1.616
 3622TIP3    H110872   1.355   4.250   1.566
 3622TIP3    H210873   1.250   4.356   1.591
 3623TIP3   OH210874   3.670   5.772   4.423
 3623TIP3    H110875   3.582   5.747   4.394
 3623TIP3    H210876   3.662   5.785   4.517
 3624TIP3   OH210877   3.837   0.624   0.796
 3624TIP3    H110878   3.841   0.626   0.701
 3624TIP3    H210879   3.789   0.544   0.817
 3625TIP3   OH210880   0.115   5.196   0.778
 3625TIP3    H110881   0.181   5.266   0.778
 3625TIP3    H210882   0.166   5.116   0.764
 3626TIP3   OH210883   5.313   0.776   0.206
 3626TIP3    H110884   5.377   0.710   0.234
 3626TIP3    H210885   5.310   0.767   0.111
 3627TIP3   OH210886   2.868   0.397   4.035
 3627TIP3    H110887   2.924   0.442   3.972
 3627TIP3    H210888   2.787   0.379   3.988
 3628TIP3   OH210889   6.293   2.050   1.382
 3628TIP3    H110890   6.220   2.109   1.368
 3628TIP3    H210891   6.257   1.963   1.364
 3629TIP3   OH210892   0.749   0.659   0.351
 3629TIP3    H110893   0.793   0.574   0.345
 3629TIP3    H210894   0.821   0.723   0.344
 3630TIP3   OH210895   0.064   5.923   2.708
 3630TIP3    H110896   0.050   5.871   2.629
 3630TIP3    H210897   0.020   6.006   2.690
 3631TIP3   OH210898   0.905   2.657   3.732
 3631TIP3    H110899   0.892   2.563   3.731
 3631TIP3    H210900   0.911   2.680   3.825
 3632TIP3   OH210901   3.884   4.341   4.385
 3632TIP3    H110902   3.863   4.359   4.477
 3632TIP3    H210903   3.968   4.385   4.371
 3633TIP3   OH210904   6.281   0.190   0.736
 3633TIP3    H110905   6.247   0.163   0.821
 3633TIP3    H210906   6.367   0.149   0.730
 3634TIP3   OH210907   3.212   5.606   0.513
 3634TIP3    H110908   3.299   5.569   0.526
 3634TIP3    H210909   3.175   5.556   0.441
 3635TIP3   OH210910   0.730   0.541   2.181
 3635TIP3    H110911   0.731   0.634   2.160
 3635TIP3    H210912   0.823   0.517   2.188
 3636TIP3   OH210913   2.988   3.158   2.557
 3636TIP3    H110914   3.078   3.124   2.564
 3636TIP3    H210915   2.999   3.248   2.526
 3637TIP3   OH210916   5.781   5.945   5.106
 3637TIP3    H110917   5.772   5.948   5.201
 3637TIP3    H210918   5.871   5.972   5.089
 3638TIP3   OH210919   1.537   5.995   2.446
 3638TIP3    H110920   1.558   5.922   2.504
 3638TIP3    H210921   1.523   6.069   2.505
 3639TIP3   OH210922   4.368   0.502   2.263
 3639TIP3    H110923   4.358   0.520   2.169
 3639TIP3    H210924   4.307   0.563   2.305
 3640TIP3   OH210925   1.045   0.386   2.931
 3640TIP3    H110926   1.075   0.369   3.021
 3640TIP3    H210927   0.960   0.342   2.925
 3641TIP3   OH210928   0.853   2.272   1.400
 3641TIP3    H110929   0.816   2.184   1.403
 3641TIP3    H210930   0.781   2.327   1.369
 3642TIP3   OH210931   5.190   0.766   4.271
 3642TIP3    H110932   5.207   0.691   4.214
 3642TIP3    H210933   5.192   0.842   4.212
 3643TIP3   OH210934   4.083   2.661   2.545
 3643TIP3    H110935   4.088   2.728   2.613
 3643TIP3    H210936   4.174   2.648   2.518
 3644TIP3   OH210937   2.236   4.573   4.131
 3644TIP3    H110938   2.289   4.531   4.199
 3644TIP3    H210939   2.221   4.503   4.067
 3645TIP3   OH210940   5.428   0.376   5.073
 3645TIP3    H110941   5.428   0.352   4.980
 3645TIP3    H210942   5.338   0.406   5.089
 3646TIP3   OH210943   0.636   0.764   3.394
 3646TIP3    H110944   0.608   0.854   3.382
 3646TIP3    H210945   0.615   0.744   3.485
 3647TIP3   OH210946   0.730   2.167   2.400
 3647TIP3    H110947   0.705   2.146   2.490
 3647TIP3    H210948   0.820   2.197   2.406
 3648TIP3   OH210949   2.224   3.508   3.045
 3648TIP3    H110950   2.212   3.551   2.960
 3648TIP3    H210951   2.318   3.486   3.047
 3649TIP3   OH210952   2.668   2.402   3.534
 3649TIP3    H110953   2.655   2.496   3.521
 3649TIP3    H210954   2.688   2.369   3.446
 3650TIP3   OH210955   3.968   3.413   0.951
 3650TIP3    H110956   3.993   3.505   0.961
 3650TIP3    H210957   4.029   3.378   0.886
 3651TIP3   OH210958   0.679   1.596   0.066
 3651TIP3    H110959   0.699   1.635  -0.019
 3651TIP3    H210960   0.733   1.517   0.069
 3652TIP3   OH210961   0.805   2.203   2.779
 3652TIP3    H110962   0.837   2.115   2.796
 3652TIP3    H210963   0.710   2.193   2.773
 3653TIP3   OH210964   2.786   0.379   0.756
 3653TIP3    H110965   2.735   0.413   0.683
 3653TIP3    H210966   2.800   0.287   0.735
 3654TIP3   OH210967   2.544   3.488   3.556
 3654TIP3    H110968   2.620   3.429   3.554
 3654TIP3    H210969   2.566   3.554   3.622
 3655TIP3   OH210970   1.687   4.274   1.208
 3655TIP3    H110971   1.681   4.365   1.177
 3655TIP3    H210972   1.644   4.275   1.293
 3656TIP3   OH210973   0.245   1.607   0.741
 3656TIP3    H110974   0.175   1.542   0.740
 3656TIP3    H210975   0.292   1.593   0.659
 3657TIP3   OH210976   2.581   2.217   3.966
 3657TIP3    H110977   2.524   2.292   3.950
 3657TIP3    H210978   2.668   2.256   3.981
 3658TIP3   OH210979   0.235   0.879   0.459
 3658TIP3    H110980   0.330   0.865   0.461
 3658TIP3    H210981   0.200   0.799   0.419
 3659TIP3   OH210982   0.178   0.146   2.302
 3659TIP3    H110983   0.084   0.129   2.306
 3659TIP3    H210984   0.191   0.221   2.359
 3660TIP3   OH210985   6.065   3.574   0.659
 3660TIP3    H110986   6.122   3.629   0.713
 3660TIP3    H210987   6.010   3.636   0.612
 3661TIP3   OH210988   4.698   3.250   4.956
 3661TIP3    H110989   4.628   3.311   4.933
 3661TIP3    H210990   4.779   3.297   4.936
 3662TIP3   OH210991   0.095   1.849   4.845
 3662TIP3    H110992   0.174   1.903   4.852
 3662TIP3    H210993   0.025   1.911   4.827
 3663TIP3   OH210994   3.120   5.304   3.958
 3663TIP3    H110995   3.031   5.272   3.971
 3663TIP3    H210996   3.174   5.247   4.014
 3664TIP3   OH210997   2.741   2.695   3.487
 3664TIP3    H110998   2.834   2.717   3.492
 3664TIP3    H210999   2.697   2.768   3.532
 3665TIP3   OH211000   3.663   2.298   1.697
 3665TIP3    H111001   3.658   2.220   1.753
 3665TIP3    H211002   3.735   2.279   1.637
 3666TIP3   OH211003   4.722   0.404   1.306
 3666TIP3    H111004   4.690   0.325   1.351
 3666TIP3    H211005   4.739   0.466   1.376
 3667TIP3   OH211006   3.275   3.117   3.666
 3667TIP3    H111007   3.242   3.176   3.734
 3667TIP3    H211008   3.303   3.039   3.715
 3668TIP3   OH211009   0.097   0.945   0.727
 3668TIP3    H111010   0.036   0.877   0.755
 3668TIP3    H211011   0.136   0.912   0.646
 3669TIP3   OH211012   4.774   5.636   4.861
 3669TIP3    H111013   4.811   5.678   4.784
 3669TIP3    H211014   4.688   5.604   4.832
 3670TIP3   OH211015   4.988   4.161   2.906
 3670TIP3    H111016   5.059   4.218   2.879
 3670TIP3    H211017   4.929   4.218   2.955
 3671TIP3   OH211018   5.379   1.639   3.215
 3671TIP3    H111019   5.322   1.671   3.285
 3671TIP3    H211020   5.353   1.690   3.138
 3672TIP3   OH211021   1.702   3.424   0.863
 3672TIP3    H111022   1.660   3.338   0.862
 3672TIP3    H211023   1.724   3.439   0.955
 3673TIP3   OH211024   1.098   4.154   4.824
 3673TIP3    H111025   1.062   4.216   4.761
 3673TIP3    H211026   1.185   4.189   4.846
 3674TIP3   OH211027   3.473   5.747   2.958
 3674TIP3    H111028   3.528   5.669   2.967
 3674TIP3    H211029   3.384   5.714   2.960
 3675TIP3   OH211030   6.074   3.267   5.049
 3675TIP3    H111031   6.003   3.329   5.061
 3675TIP3    H211032   6.032   3.181   5.057
 3676TIP3   OH211033   6.134   2.401   2.279
 3676TIP3    H111034   6.141   2.321   2.331
 3676TIP3    H211035   6.042   2.426   2.286
 3677TIP3   OH211036   5.228   3.449   3.474
 3677TIP3    H111037   5.246   3.380   3.410
 3677TIP3    H211038   5.174   3.512   3.426
 3678TIP3   OH211039   1.803   4.027   1.187
 3678TIP3    H111040   1.763   4.114   1.184
 3678TIP3    H211041   1.890   4.042   1.225
 3679TIP3   OH211042   5.014   0.833   3.017
 3679TIP3    H111043   5.031   0.904   2.954
 3679TIP3    H211044   5.078   0.765   2.993
 3680TIP3   OH211045   3.421   4.836   4.429
 3680TIP3    H111046   3.358   4.879   4.487
 3680TIP3    H211047   3.464   4.771   4.485
 3681TIP3   OH211048   5.930   2.131   0.474
 3681TIP3    H111049   5.995   2.123   0.544
 3681TIP3    H211050   5.970   2.087   0.399
 3682TIP3   OH211051   0.794   2.561   2.800
 3682TIP3    H111052   0.830   2.485   2.844
 3682TIP3    H211053   0.837   2.636   2.842
 3683TIP3   OH211054   1.507   0.729   2.766
 3683TIP3    H111055   1.540   0.646   2.733
 3683TIP3    H211056   1.461   0.768   2.692
 3684TIP3   OH211057   1.245   0.534   1.866
 3684TIP3    H111058   1.297   0.612   1.883
 3684TIP3    H211059   1.159   0.568   1.839
 3685TIP3   OH211060   5.269   3.397   0.152
 3685TIP3    H111061   5.269   3.479   0.102
 3685TIP3    H211062   5.359   3.387   0.182
 3686TIP3   OH211063   3.841   4.306   3.636
 3686TIP3    H111064   3.821   4.229   3.583
 3686TIP3    H211065   3.821   4.380   3.579
 3687TIP3   OH211066   0.597   3.409   3.453
 3687TIP3    H111067   0.519   3.463   3.443
 3687TIP3    H211068   0.580   3.332   3.398
 3688TIP3   OH211069   3.517   0.663   0.632
 3688TIP3    H111070   3.607   0.666   0.600
 3688TIP3    H211071   3.483   0.578   0.601
 3689TIP3   OH211072   0.268   3.606   4.002
 3689TIP3    H111073   0.354   3.565   4.010
 3689TIP3    H211074   0.226   3.560   3.929
 3690TIP3   OH211075   1.827   2.497   2.306
 3690TIP3    H111076   1.756   2.533   2.361
 3690TIP3    H211077   1.838   2.562   2.236
 3691TIP3   OH211078   4.415   3.279   2.454
 3691TIP3    H111079   4.473   3.261   2.380
 3691TIP3    H211080   4.456   3.353   2.499
 3692TIP3   OH211081   5.751   3.162   1.227
 3692TIP3    H111082   5.803   3.085   1.201
 3692TIP3    H211083   5.817   3.225   1.257
 3693TIP3   OH211084   3.611   1.239   0.540
 3693TIP3    H111085   3.700   1.210   0.560
 3693TIP3    H211086   3.562   1.158   0.526
 3694TIP3   OH211087   1.647   0.786   0.243
 3694TIP3    H111088   1.666   0.822   0.156
 3694TIP3    H211089   1.689   0.700   0.243
 3695TIP3   OH211090   3.150   4.047   0.341
 3695TIP3    H111091   3.186   4.073   0.256
 3695TIP3    H211092   3.166   3.953   0.346
 3696TIP3   OH211093   4.269   0.307   3.391
 3696TIP3    H111094   4.351   0.273   3.355
 3696TIP3    H211095   4.230   0.232   3.436
 3697TIP3   OH211096   2.995   3.546   2.161
 3697TIP3    H111097   3.045   3.620   2.197
 3697TIP3    H211098   2.916   3.587   2.126
 3698TIP3   OH211099   2.829   5.057   0.536
 3698TIP3    H111100   2.899   4.991   0.535
 3698TIP3    H211101   2.779   5.037   0.616
 3699TIP3   OH211102   3.276   2.475   2.919
 3699TIP3    H111103   3.361   2.450   2.956
 3699TIP3    H211104   3.280   2.444   2.829
 3700TIP3   OH211105   4.571   5.322   4.553
 3700TIP3    H111106   4.654   5.309   4.599
 3700TIP3    H211107   4.596   5.361   4.469
 3701TIP3   OH211108   4.195   1.233   5.176
 3701TIP3    H111109   4.112   1.188   5.157
 3701TIP3    H211110   4.218   1.275   5.094
 3702TIP3   OH211111   1.275   2.318   1.894
 3702TIP3    H111112   1.248   2.284   1.809
 3702TIP3    H211113   1.214   2.277   1.956
 3703TIP3   OH211114   6.287   3.327   3.877
 3703TIP3    H111115   6.234   3.322   3.797
 3703TIP3    H211116   6.373   3.295   3.851
 3704TIP3   OH211117   1.307   4.842   4.636
 3704TIP3    H111118   1.355   4.913   4.594
 3704TIP3    H211119   1.372   4.799   4.692
 3705TIP3   OH211120   2.648   1.908   3.227
 3705TIP3    H111121   2.687   1.947   3.305
 3705TIP3    H211122   2.643   1.980   3.164
 3706TIP3   OH211123   6.225   2.690   3.066
 3706TIP3    H111124   6.290   2.624   3.041
 3706TIP3    H211125   6.149   2.670   3.013
 3707TIP3   OH211126   4.880   5.259   3.357
 3707TIP3    H111127   4.905   5.336   3.409
 3707TIP3    H211128   4.957   5.241   3.303
 3708TIP3   OH211129   4.233   3.365   4.772
 3708TIP3    H111130   4.322   3.398   4.785
 3708TIP3    H211131   4.221   3.299   4.840
 3709TIP3   OH211132   3.442   3.829   4.363
 3709TIP3    H111133   3.378   3.778   4.414
 3709TIP3    H211134   3.503   3.862   4.428
 3710TIP3   OH211135   4.084   4.813   3.518
 3710TIP3    H111136   4.052   4.788   3.431
 3710TIP3    H211137   4.027   4.884   3.545
 3711TIP3   OH211138   2.557   1.191   1.791
 3711TIP3    H111139   2.533   1.245   1.716
 3711TIP3    H211140   2.623   1.242   1.837
 3712TIP3   OH211141   2.941   4.455   2.983
 3712TIP3    H111142   2.947   4.448   3.079
 3712TIP3    H211143   2.980   4.373   2.951
 3713TIP3   OH211144   5.834   0.163   1.007
 3713TIP3    H111145   5.746   0.168   0.971
 3713TIP3    H211146   5.889   0.209   0.942
 3714TIP3   OH211147   2.297   4.987   4.437
 3714TIP3    H111148   2.262   4.995   4.348
 3714TIP3    H211149   2.250   4.913   4.475
 3715TIP3   OH211150   0.439   2.824   2.697
 3715TIP3    H111151   0.422   2.915   2.719
 3715TIP3    H211152   0.392   2.774   2.764
 3716TIP3   OH211153   3.948   1.282   0.716
 3716TIP3    H111154   4.041   1.305   0.709
 3716TIP3    H211155   3.909   1.315   0.635
 3717TIP3   OH211156   1.629   2.548   0.034
 3717TIP3    H111157   1.710   2.509   0.066
 3717TIP3    H211158   1.609   2.618   0.096
 3718TIP3   OH211159   0.391   2.437   1.022
 3718TIP3    H111160   0.391   2.354   0.974
 3718TIP3    H211161   0.455   2.491   0.975
 3719TIP3   OH211162   0.601   1.001   0.960
 3719TIP3    H111163   0.691   0.983   0.989
 3719TIP3    H211164   0.574   0.921   0.915
 3720TIP3   OH211165   2.332   2.470   4.104
 3720TIP3    H111166   2.409   2.522   4.127
 3720TIP3    H211167   2.284   2.461   4.187
 3721TIP3   OH211168   2.030   0.634   3.562
 3721TIP3    H111169   2.051   0.577   3.635
 3721TIP3    H211170   2.014   0.574   3.488
 3722TIP3   OH211171   1.031   2.115   4.734
 3722TIP3    H111172   1.067   2.153   4.654
 3722TIP3    H211173   1.062   2.025   4.735
 3723TIP3   OH211174   3.596   1.810   1.450
 3723TIP3    H111175   3.535   1.861   1.502
 3723TIP3    H211176   3.542   1.741   1.410
 3724TIP3   OH211177   1.960   4.379   0.397
 3724TIP3    H111178   2.010   4.354   0.475
 3724TIP3    H211179   1.926   4.297   0.363
 3725TIP3   OH211180   0.685   2.029   0.188
 3725TIP3    H111181   0.778   2.011   0.203
 3725TIP3    H211182   0.673   2.016   0.094
 3726TIP3   OH211183   3.047   2.726   0.859
 3726TIP3    H111184   3.032   2.665   0.786
 3726TIP3    H211185   3.028   2.812   0.823
 3727TIP3   OH211186   3.199   0.854   1.154
 3727TIP3    H111187   3.134   0.903   1.203
 3727TIP3    H211188   3.270   0.917   1.138
 3728TIP3   OH211189   4.364   4.278   1.322
 3728TIP3    H111190   4.346   4.275   1.228
 3728TIP3    H211191   4.307   4.211   1.360
 3729TIP3   OH211192   5.858   5.380   0.885
 3729TIP3    H111193   5.845   5.466   0.925
 3729TIP3    H211194   5.858   5.319   0.958
 3730TIP3   OH211195   1.775   5.264   0.025
 3730TIP3    H111196   1.860   5.238  -0.012
 3730TIP3    H211197   1.712   5.205  -0.018
 3731TIP3   OH211198   4.837   5.245   4.135
 3731TIP3    H111199   4.833   5.336   4.107
 3731TIP3    H211200   4.880   5.248   4.221
 3732TIP3   OH211201   5.459   1.452   4.159
 3732TIP3    H111202   5.462   1.444   4.064
 3732TIP3    H211203   5.550   1.454   4.186
 3733TIP3   OH211204   1.115   1.945   2.641
 3733TIP3    H111205   1.053   1.990   2.698
 3733TIP3    H211206   1.194   1.935   2.695
 3734TIP3   OH211207   1.068   0.311   2.305
 3734TIP3    H111208   1.071   0.396   2.261
 3734TIP3    H211209   1.042   0.250   2.237
 3735TIP3   OH211210   5.501   1.258   0.810
 3735TIP3    H111211   5.504   1.294   0.898
 3735TIP3    H211212   5.514   1.164   0.822
 3736TIP3   OH211213   3.579   1.597   1.995
 3736TIP3    H111214   3.665   1.585   2.035
 3736TIP3    H211215   3.544   1.675   2.037
 3737TIP3   OH211216   4.013   0.639   3.945
 3737TIP3    H111217   3.970   0.712   3.989
 3737TIP3    H211218   4.096   0.629   3.992
 3738TIP3   OH211219   6.199   3.148   2.489
 3738TIP3    H111220   6.162   3.128   2.575
 3738TIP3    H211221   6.277   3.200   2.508
 3739TIP3   OH211222   2.300   4.446   3.221
 3739TIP3    H111223   2.236   4.517   3.211
 3739TIP3    H211224   2.283   4.412   3.309
 3740TIP3   OH211225   4.125   1.189   2.227
 3740TIP3    H111226   4.107   1.229   2.142
 3740TIP3    H211227   4.045   1.140   2.248
 3741TIP3   OH211228   6.101   1.083   3.631
 3741TIP3    H111229   6.040   1.055   3.700
 3741TIP3    H211230   6.185   1.045   3.656
 3742TIP3   OH211231   0.053   4.700   1.575
 3742TIP3    H111232   0.135   4.714   1.527
 3742TIP3    H211233   0.071   4.623   1.629
 3743TIP3   OH211234   4.397   1.318   0.062
 3743TIP3    H111235   4.318   1.362   0.093
 3743TIP3    H211236   4.463   1.337   0.129
 3744TIP3   OH211237   4.297   2.765   0.606
 3744TIP3    H111238   4.312   2.707   0.681
 3744TIP3    H211239   4.374   2.823   0.604
 3745TIP3   OH211240   3.111   1.730   2.375
 3745TIP3    H111241   3.016   1.733   2.386
 3745TIP3    H211242   3.139   1.821   2.390
 3746TIP3   OH211243   3.952   0.552   1.175
 3746TIP3    H111244   3.863   0.588   1.174
 3746TIP3    H211245   3.959   0.502   1.094
 3747TIP3   OH211246   2.082   1.336   1.975
 3747TIP3    H111247   2.137   1.335   1.897
 3747TIP3    H211248   2.045   1.424   1.976
 3748TIP3   OH211249   1.165   2.719   0.300
 3748TIP3    H111250   1.103   2.778   0.343
 3748TIP3    H211251   1.250   2.762   0.308
 3749TIP3   OH211252   0.242   1.958   0.099
 3749TIP3    H111253   0.296   2.037   0.108
 3749TIP3    H211254   0.305   1.887   0.089
 3750TIP3   OH211255   0.674   1.443   0.849
 3750TIP3    H111256   0.610   1.397   0.903
 3750TIP3    H211257   0.690   1.385   0.775
 3751TIP3   OH211258   0.809   0.242   1.528
 3751TIP3    H111259   0.863   0.258   1.451
 3751TIP3    H211260   0.835   0.155   1.559
 3752TIP3   OH211261   2.514   5.051   3.529
 3752TIP3    H111262   2.458   5.116   3.488
 3752TIP3    H211263   2.539   5.090   3.613
 3753TIP3   OH211264   6.111   3.460   2.154
 3753TIP3    H111265   6.152   3.422   2.076
 3753TIP3    H211266   6.178   3.516   2.192
 3754TIP3   OH211267   5.179   1.754   3.372
 3754TIP3    H111268   5.136   1.683   3.421
 3754TIP3    H211269   5.152   1.834   3.417
 3755TIP3   OH211270   4.111   1.898   3.830
 3755TIP3    H111271   4.147   1.945   3.905
 3755TIP3    H211272   4.064   1.824   3.869
 3756TIP3   OH211273   6.310   4.875   2.860
 3756TIP3    H111274   6.269   4.792   2.839
 3756TIP3    H211275   6.366   4.855   2.936
 3757TIP3   OH211276   5.976   4.761   5.074
 3757TIP3    H111277   5.921   4.786   5.000
 3757TIP3    H211278   5.916   4.758   5.149
 3758TIP3   OH211279   1.749   0.182   2.532
 3758TIP3    H111280   1.780   0.208   2.446
 3758TIP3    H211281   1.792   0.243   2.592
 3759TIP3   OH211282   2.839   0.256   0.495
 3759TIP3    H111283   2.787   0.208   0.431
 3759TIP3    H211284   2.915   0.200   0.510
 3760TIP3   OH211285   5.537   1.980   2.450
 3760TIP3    H111286   5.597   2.054   2.441
 3760TIP3    H211287   5.478   1.987   2.375
 3761TIP3   OH211288   1.891   0.965   1.069
 3761TIP3    H111289   1.968   0.910   1.056
 3761TIP3    H211290   1.866   0.949   1.160
 3762TIP3   OH211291   1.960   5.929   2.727
 3762TIP3    H111292   2.011   5.960   2.802
 3762TIP3    H211293   1.869   5.935   2.755
 3763TIP3   OH211294   5.028   0.036   3.126
 3763TIP3    H111295   5.098   0.060   3.187
 3763TIP3    H211296   5.032   0.103   3.058
 3764TIP3   OH211297   4.807   5.531   2.908
 3764TIP3    H111298   4.731   5.559   2.858
 3764TIP3    H211299   4.772   5.510   2.995
 3765TIP3   OH211300   6.012   4.947   3.597
 3765TIP3    H111301   6.033   5.013   3.531
 3765TIP3    H211302   5.927   4.912   3.569
 3766TIP3   OH211303   4.663   2.311   3.657
 3766TIP3    H111304   4.690   2.236   3.603
 3766TIP3    H211305   4.701   2.387   3.612
 3767TIP3   OH211306   5.358   0.648   1.951
 3767TIP3    H111307   5.434   0.661   2.008
 3767TIP3    H211308   5.335   0.556   1.962
 3768TIP3   OH211309   4.179   1.934   1.307
 3768TIP3    H111310   4.241   1.863   1.325
 3768TIP3    H211311   4.223   1.988   1.241
 3769TIP3   OH211312   2.387   3.356   4.221
 3769TIP3    H111313   2.392   3.269   4.261
 3769TIP3    H211314   2.379   3.339   4.128
 3770TIP3   OH211315   4.561   5.277   0.033
 3770TIP3    H111316   4.481   5.293  -0.018
 3770TIP3    H211317   4.530   5.255   0.120
 3771TIP3   OH211318   5.763   3.655   4.304
 3771TIP3    H111319   5.671   3.681   4.298
 3771TIP3    H211320   5.772   3.617   4.391
 3772TIP3   OH211321   5.873   4.965   0.422
 3772TIP3    H111322   5.813   5.023   0.376
 3772TIP3    H211323   5.829   4.948   0.506
 3773TIP3   OH211324   5.510   4.038   1.541
 3773TIP3    H111325   5.569   3.966   1.519
 3773TIP3    H211326   5.507   4.091   1.462
 3774TIP3   OH211327   3.467   3.138   3.508
 3774TIP3    H111328   3.388   3.140   3.562
 3774TIP3    H211329   3.518   3.066   3.544
 3775TIP3   OH211330   3.678   0.015   4.604
 3775TIP3    H111331   3.606   0.073   4.626
 3775TIP3    H211332   3.731   0.065   4.542
 3776TIP3   OH211333   0.460   5.716   2.283
 3776TIP3    H111334   0.507   5.775   2.341
 3776TIP3    H211335   0.389   5.769   2.246
 3777TIP3   OH211336   1.920   3.449   2.131
 3777TIP3    H111337   1.868   3.379   2.170
 3777TIP3    H211338   1.933   3.512   2.202
 3778TIP3   OH211339   4.770   1.795   2.822
 3778TIP3    H111340   4.781   1.700   2.814
 3778TIP3    H211341   4.709   1.805   2.895
 3779TIP3   OH211342   2.160   0.100   0.870
 3779TIP3    H111343   2.147   0.024   0.927
 3779TIP3    H211344   2.220   0.156   0.919
 3780TIP3   OH211345   1.016   3.109   4.322
 3780TIP3    H111346   0.995   3.058   4.401
 3780TIP3    H211347   0.957   3.074   4.255
 3781TIP3   OH211348   0.418   5.303   0.613
 3781TIP3    H111349   0.374   5.342   0.688
 3781TIP3    H211350   0.504   5.277   0.646
 3782TIP3   OH211351   4.583   4.020   2.151
 3782TIP3    H111352   4.489   4.000   2.155
 3782TIP3    H211353   4.589   4.113   2.170
 3783TIP3   OH211354   0.131   0.623   0.351
 3783TIP3    H111355   0.051   0.579   0.377
 3783TIP3    H211356   0.160   0.576   0.273
 3784TIP3   OH211357   3.335   3.183   4.215
 3784TIP3    H111358   3.249   3.195   4.255
 3784TIP3    H211359   3.373   3.109   4.263
 3785TIP3   OH211360   5.072   0.769   0.938
 3785TIP3    H111361   5.061   0.849   0.989
 3785TIP3    H211362   5.092   0.701   1.003
 3786TIP3   OH211363   4.724   2.296   4.849
 3786TIP3    H111364   4.803   2.348   4.835
 3786TIP3    H211365   4.693   2.322   4.936
 3787TIP3   OH211366   2.815   4.576   4.477
 3787TIP3    H111367   2.800   4.614   4.564
 3787TIP3    H211368   2.753   4.504   4.471
 3788TIP3   OH211369   5.605   0.608   4.855
 3788TIP3    H111370   5.594   0.653   4.771
 3788TIP3    H211371   5.530   0.637   4.907
 3789TIP3   OH211372   1.157   1.579   3.286
 3789TIP3    H111373   1.226   1.640   3.260
 3789TIP3    H211374   1.093   1.584   3.215
 3790TIP3   OH211375   4.557   4.819   3.759
 3790TIP3    H111376   4.469   4.808   3.793
 3790TIP3    H211377   4.546   4.818   3.664
 3791TIP3   OH211378   1.806   5.228   5.161
 3791TIP3    H111379   1.766   5.223   5.074
 3791TIP3    H211380   1.899   5.208   5.145
 3792TIP3   OH211381   3.007   1.815   0.260
 3792TIP3    H111382   3.023   1.739   0.316
 3792TIP3    H211383   2.953   1.873   0.314
 3793TIP3   OH211384   5.465   5.269   0.232
 3793TIP3    H111385   5.490   5.298   0.145
 3793TIP3    H211386   5.390   5.325   0.255
 3794TIP3   OH211387   4.769   1.778   4.841
 3794TIP3    H111388   4.837   1.711   4.848
 3794TIP3    H211389   4.815   1.860   4.855
 3795TIP3   OH211390   3.157   4.369   0.862
 3795TIP3    H111391   3.189   4.293   0.910
 3795TIP3    H211392   3.223   4.385   0.795
 3796TIP3   OH211393   1.073   0.625   0.154
 3796TIP3    H111394   1.122   0.607   0.235
 3796TIP3    H211395   1.042   0.539   0.126
 3797TIP3   OH211396   5.968   0.007   1.655
 3797TIP3    H111397   5.895   0.061   1.684
 3797TIP3    H211398   6.023   0.067   1.604
 3798TIP3   OH211399   0.870   5.087   0.837
 3798TIP3    H111400   0.923   5.022   0.883
 3798TIP3    H211401   0.916   5.101   0.754
 3799TIP3   OH211402   5.871   1.469   2.351
 3799TIP3    H111403   5.878   1.444   2.443
 3799TIP3    H211404   5.796   1.529   2.348
 3800TIP3   OH211405   3.707   1.716   4.355
 3800TIP3    H111406   3.746   1.745   4.437
 3800TIP3    H211407   3.714   1.620   4.358
 3801TIP3   OH211408   4.250   1.210   4.380
 3801TIP3    H111409   4.343   1.191   4.369
 3801TIP3    H211410   4.247   1.304   4.397
 3802TIP3   OH211411   3.043   5.604   4.888
 3802TIP3    H111412   3.135   5.616   4.867
 3802TIP3    H211413   3.024   5.513   4.864
 3803TIP3   OH211414   4.336   0.695   3.728
 3803TIP3    H111415   4.289   0.690   3.645
 3803TIP3    H211416   4.408   0.755   3.710
 3804TIP3   OH211417   3.853   1.204   2.629
 3804TIP3    H111418   3.807   1.286   2.609
 3804TIP3    H211419   3.908   1.225   2.705
 3805TIP3   OH211420   3.185   0.378   4.229
 3805TIP3    H111421   3.098   0.416   4.228
 3805TIP3    H211422   3.216   0.391   4.319
 3806TIP3   OH211423   3.337   1.904   2.312
 3806TIP3    H111424   3.300   1.972   2.369
 3806TIP3    H211425   3.280   1.905   2.235
 3807TIP3   OH211426   2.590   4.742   4.242
 3807TIP3    H111427   2.546   4.747   4.327
 3807TIP3    H211428   2.630   4.655   4.241
 3808TIP3   OH211429   3.566   3.926   3.669
 3808TIP3    H111430   3.630   3.943   3.738
 3808TIP3    H211431   3.486   3.903   3.715
 3809TIP3   OH211432   1.382   1.304   0.364
 3809TIP3    H111433   1.327   1.302   0.285
 3809TIP3    H211434   1.462   1.258   0.339
 3810TIP3   OH211435   3.833   4.518   3.048
 3810TIP3    H111436   3.848   4.541   3.140
 3810TIP3    H211437   3.883   4.437   3.036
 3811TIP3   OH211438   2.330   5.300   0.197
 3811TIP3    H111439   2.268   5.361   0.156
 3811TIP3    H211440   2.276   5.227   0.226
 3812TIP3   OH211441   2.913   2.081   3.289
 3812TIP3    H111442   2.961   2.106   3.369
 3812TIP3    H211443   2.979   2.038   3.235
 3813TIP3   OH211444   2.174   3.971   1.225
 3813TIP3    H111445   2.156   3.896   1.168
 3813TIP3    H211446   2.230   4.028   1.173
 3814TIP3   OH211447   1.806   3.451   1.125
 3814TIP3    H111448   1.727   3.461   1.179
 3814TIP3    H211449   1.873   3.503   1.171
 3815TIP3   OH211450   0.083   1.878   1.570
 3815TIP3    H111451   0.017   1.816   1.602
 3815TIP3    H211452   0.032   1.951   1.536
 3816TIP3   OH211453   1.235   2.075   3.152
 3816TIP3    H111454   1.253   2.061   3.245
 3816TIP3    H211455   1.168   2.010   3.131
 3817TIP3   OH211456   5.462   3.650   1.436
 3817TIP3    H111457   5.554   3.647   1.412
 3817TIP3    H211458   5.447   3.741   1.463
 3818TIP3   OH211459   0.024   3.698   4.673
 3818TIP3    H111460   0.064   3.611   4.668
 3818TIP3    H211461  -0.022   3.698   4.757
 3819TIP3   OH211462   0.045   2.159   0.618
 3819TIP3    H111463   0.135   2.127   0.614
 3819TIP3    H211464   0.054   2.252   0.639
 3820TIP3   OH211465   0.058   4.045   1.637
 3820TIP3    H111466  -0.019   4.091   1.605
 3820TIP3    H211467   0.055   3.959   1.595
 3821TIP3   OH211468   4.008   2.000   1.806
 3821TIP3    H111469   3.955   2.080   1.806
 3821TIP3    H211470   4.081   2.020   1.748
 3822TIP3   OH211471   6.257   3.329   0.758
 3822TIP3    H111472   6.295   3.306   0.843
 3822TIP3    H211473   6.210   3.410   0.773
 3823TIP3   OH211474   0.327   3.539   2.781
 3823TIP3    H111475   0.365   3.627   2.771
 3823TIP3    H211476   0.371   3.487   2.714
 3824TIP3   OH211477   6.032   3.778   1.739
 3824TIP3    H111478   6.018   3.847   1.804
 3824TIP3    H211479   6.004   3.698   1.782
 3825TIP3   OH211480   3.944   3.184   2.241
 3825TIP3    H111481   4.035   3.182   2.273
 3825TIP3    H211482   3.945   3.134   2.160
 3826TIP3   OH211483   5.832   4.481   0.821
 3826TIP3    H111484   5.802   4.493   0.730
 3826TIP3    H211485   5.859   4.389   0.825
 3827TIP3   OH211486   3.019   1.563   1.032
 3827TIP3    H111487   2.977   1.621   1.096
 3827TIP3    H211488   3.086   1.618   0.991
 3828TIP3   OH211489   0.492   5.255   3.468
 3828TIP3    H111490   0.404   5.218   3.477
 3828TIP3    H211491   0.539   5.192   3.414
 3829TIP3   OH211492   3.136   5.580   1.967
 3829TIP3    H111493   3.115   5.584   2.060
 3829TIP3    H211494   3.061   5.622   1.924
 3830TIP3   OH211495   0.308   5.029   1.919
 3830TIP3    H111496   0.348   5.115   1.934
 3830TIP3    H211497   0.214   5.044   1.924
 3831TIP3   OH211498   2.553   5.771   3.753
 3831TIP3    H111499   2.633   5.772   3.804
 3831TIP3    H211500   2.523   5.862   3.753
 3832TIP3   OH211501   1.263   4.705   0.489
 3832TIP3    H111502   1.240   4.613   0.478
 3832TIP3    H211503   1.255   4.743   0.402
 3833TIP3   OH211504   5.201   0.096   0.189
 3833TIP3    H111505   5.191   0.021   0.130
 3833TIP3    H211506   5.285   0.082   0.232
 3834TIP3   OH211507   4.361   1.922   4.275
 3834TIP3    H111508   4.367   1.839   4.321
 3834TIP3    H211509   4.447   1.963   4.287
 3835TIP3   OH211510   4.582   2.513   4.460
 3835TIP3    H111511   4.649   2.468   4.512
 3835TIP3    H211512   4.621   2.520   4.373
 3836TIP3   OH211513   5.909   1.600   3.608
 3836TIP3    H111514   5.984   1.635   3.655
 3836TIP3    H211515   5.929   1.507   3.597
 3837TIP3   OH211516   5.964   2.642   3.016
 3837TIP3    H111517   5.888   2.638   3.073
 3837TIP3    H211518   5.948   2.716   2.958
 3838TIP3   OH211519   3.134   1.419   4.333
 3838TIP3    H111520   3.130   1.470   4.252
 3838TIP3    H211521   3.148   1.484   4.401
 3839TIP3   OH211522   2.745   4.689   4.723
 3839TIP3    H111523   2.755   4.773   4.678
 3839TIP3    H211524   2.653   4.686   4.749
 3840TIP3   OH211525   1.490   4.834   4.033
 3840TIP3    H111526   1.518   4.754   4.076
 3840TIP3    H211527   1.460   4.806   3.947
 3841TIP3   OH211528   6.143   4.665   2.332
 3841TIP3    H111529   6.057   4.623   2.332
 3841TIP3    H211530   6.131   4.743   2.387
 3842TIP3   OH211531   3.522   0.979   0.603
 3842TIP3    H111532   3.545   1.000   0.694
 3842TIP3    H211533   3.600   0.935   0.568
 3843TIP3   OH211534   5.035   1.469   1.944
 3843TIP3    H111535   5.043   1.514   2.028
 3843TIP3    H211536   4.952   1.422   1.950
 3844TIP3   OH211537   2.407   3.076   2.795
 3844TIP3    H111538   2.316   3.105   2.804
 3844TIP3    H211539   2.400   2.990   2.753
 3845TIP3   OH211540   5.114   1.137   2.209
 3845TIP3    H111541   5.093   1.225   2.242
 3845TIP3    H211542   5.094   1.142   2.116
 3846TIP3   OH211543   5.496   4.351   4.602
 3846TIP3    H111544   5.576   4.343   4.654
 3846TIP3    H211545   5.497   4.276   4.544
 3847TIP3   OH211546   6.254   1.823   4.098
 3847TIP3    H111547   6.277   1.732   4.116
 3847TIP3    H211548   6.196   1.848   4.170
 3848TIP3   OH211549   0.576   1.934   4.413
 3848TIP3    H111550   0.587   1.925   4.318
 3848TIP3    H211551   0.662   1.913   4.450
 3849TIP3   OH211552   3.618   2.594   1.340
 3849TIP3    H111553   3.669   2.526   1.295
 3849TIP3    H211554   3.679   2.631   1.403
 3850TIP3   OH211555   3.068   1.847   3.141
 3850TIP3    H111556   3.145   1.904   3.147
 3850TIP3    H211557   3.014   1.888   3.074
 3851TIP3   OH211558   0.470   5.322   4.236
 3851TIP3    H111559   0.409   5.250   4.218
 3851TIP3    H211560   0.554   5.279   4.252
 3852TIP3   OH211561   5.623   2.458   1.919
 3852TIP3    H111562   5.589   2.545   1.942
 3852TIP3    H211563   5.706   2.452   1.967
 3853TIP3   OH211564   4.671   3.493   4.143
 3853TIP3    H111565   4.760   3.523   4.122
 3853TIP3    H211566   4.681   3.446   4.226
 3854TIP3   OH211567   0.456   0.362   4.483
 3854TIP3    H111568   0.522   0.413   4.531
 3854TIP3    H211569   0.467   0.273   4.515
 3855TIP3   OH211570   3.405   3.424   0.319
 3855TIP3    H111571   3.432   3.395   0.232
 3855TIP3    H211572   3.312   3.444   0.310
 3856TIP3   OH211573   0.944   0.479   5.204
 3856TIP3    H111574   1.006   0.445   5.139
 3856TIP3    H211575   0.904   0.555   5.161
 3857TIP3   OH211576   2.993   1.258   0.502
 3857TIP3    H111577   2.901   1.280   0.487
 3857TIP3    H211578   3.040   1.302   0.432
 3858TIP3   OH211579   2.575   5.434   2.285
 3858TIP3    H111580   2.597   5.343   2.306
 3858TIP3    H211581   2.480   5.434   2.277
 3859TIP3   OH211582   1.134   3.492   1.532
 3859TIP3    H111583   1.203   3.497   1.599
 3859TIP3    H211584   1.145   3.405   1.493
 3860TIP3   OH211585   5.035   2.570   1.088
 3860TIP3    H111586   4.976   2.573   1.013
 3860TIP3    H211587   4.980   2.543   1.162
 3861TIP3   OH211588   2.763   3.658   4.639
 3861TIP3    H111589   2.796   3.743   4.665
 3861TIP3    H211590   2.841   3.604   4.628
 3862TIP3   OH211591   3.929   2.082   2.665
 3862TIP3    H111592   3.949   2.069   2.757
 3862TIP3    H211593   3.883   2.166   2.662
 3863TIP3   OH211594   2.413   4.690   0.616
 3863TIP3    H111595   2.475   4.617   0.616
 3863TIP3    H211596   2.386   4.698   0.708
 3864TIP3   OH211597   0.897   3.341   4.891
 3864TIP3    H111598   0.982   3.301   4.909
 3864TIP3    H211599   0.858   3.352   4.978
 3865TIP3   OH211600   3.182   4.924   4.895
 3865TIP3    H111601   3.176   4.835   4.929
 3865TIP3    H211602   3.267   4.955   4.926
 3866TIP3   OH211603   4.941   1.209   4.442
 3866TIP3    H111604   5.035   1.227   4.448
 3866TIP3    H211605   4.935   1.136   4.380
 3867TIP3   OH211606   4.657   3.003   4.838
 3867TIP3    H111607   4.709   3.029   4.763
 3867TIP3    H211608   4.668   3.074   4.901
 3868TIP3   OH211609   2.146   4.107   4.704
 3868TIP3    H111610   2.200   4.067   4.636
 3868TIP3    H211611   2.174   4.063   4.785
 3869TIP3   OH211612   2.103   5.065   1.948
 3869TIP3    H111613   2.162   5.135   1.923
 3869TIP3    H211614   2.073   5.089   2.036
 3870TIP3   OH211615   5.133   3.669   4.204
 3870TIP3    H111616   5.202   3.609   4.175
 3870TIP3    H211617   5.123   3.731   4.131
 3871TIP3   OH211618   1.916   5.740   4.263
 3871TIP3    H111619   1.838   5.693   4.233
 3871TIP3    H211620   1.980   5.671   4.279
 3872TIP3   OH211621   3.059   1.103   3.067
 3872TIP3    H111622   3.072   1.173   3.003
 3872TIP3    H211623   3.007   1.144   3.136
 3873TIP3   OH211624   4.905   2.144   3.939
 3873TIP3    H111625   4.825   2.192   3.959
 3873TIP3    H211626   4.975   2.206   3.961
 3874TIP3   OH211627   5.460   5.925   0.253
 3874TIP3    H111628   5.477   5.925   0.158
 3874TIP3    H211629   5.485   5.837   0.281
 3875TIP3   OH211630   2.327   4.773   0.251
 3875TIP3    H111631   2.239   4.745   0.276
 3875TIP3    H211632   2.360   4.702   0.196
 3876TIP3   OH211633   1.428   3.777   1.782
 3876TIP3    H111634   1.517   3.744   1.769
 3876TIP3    H211635   1.416   3.844   1.715
 3877TIP3   OH211636   5.415   5.911   4.387
 3877TIP3    H111637   5.357   5.836   4.374
 3877TIP3    H211638   5.356   5.986   4.393
 3878TIP3   OH211639   5.575   3.712   2.290
 3878TIP3    H111640   5.668   3.713   2.311
 3878TIP3    H211641   5.567   3.767   2.212
 3879TIP3   OH211642   3.693   5.606   0.405
 3879TIP3    H111643   3.700   5.598   0.310
 3879TIP3    H211644   3.657   5.694   0.419
 3880TIP3   OH211645   4.846   3.759   3.770
 3880TIP3    H111646   4.938   3.783   3.759
 3880TIP3    H211647   4.809   3.826   3.827
 3881TIP3   OH211648   2.316   3.413   1.865
 3881TIP3    H111649   2.301   3.507   1.869
 3881TIP3    H211650   2.302   3.389   1.774
 3882TIP3   OH211651   0.956   1.048   3.543
 3882TIP3    H111652   1.008   1.123   3.573
 3882TIP3    H211653   0.970   1.046   3.448
 3883TIP3   OH211654   0.073   2.816   1.267
 3883TIP3    H111655   0.085   2.745   1.203
 3883TIP3    H211656   0.054   2.770   1.349
 3884TIP3   OH211657   1.323   1.700   2.933
 3884TIP3    H111658   1.313   1.762   2.861
 3884TIP3    H211659   1.345   1.617   2.891
 3885TIP3   OH211660   3.211   0.929   4.794
 3885TIP3    H111661   3.288   0.984   4.811
 3885TIP3    H211662   3.149   0.987   4.751
 3886TIP3   OH211663   2.409   4.939   1.659
 3886TIP3    H111664   2.383   4.858   1.704
 3886TIP3    H211665   2.330   4.965   1.612
 3887TIP3   OH211666   2.411   5.994   1.183
 3887TIP3    H111667   2.348   6.058   1.214
 3887TIP3    H211668   2.432   5.940   1.259
 3888TIP3   OH211669   3.256   2.898   0.376
 3888TIP3    H111670   3.162   2.884   0.388
 3888TIP3    H211671   3.286   2.819   0.331
 3889TIP3   OH211672   2.687   5.795   3.344
 3889TIP3    H111673   2.671   5.732   3.273
 3889TIP3    H211674   2.620   5.862   3.332
 3890TIP3   OH211675   5.505   4.872   3.306
 3890TIP3    H111676   5.494   4.789   3.259
 3890TIP3    H211677   5.454   4.861   3.386
 3891TIP3   OH211678   5.025   3.180   5.073
 3891TIP3    H111679   5.104   3.233   5.082
 3891TIP3    H211680   4.959   3.240   5.039
 3892TIP3   OH211681   5.188   4.195   4.647
 3892TIP3    H111682   5.190   4.213   4.741
 3892TIP3    H211683   5.175   4.280   4.606
 3893TIP3   OH211684   1.352   3.941   4.523
 3893TIP3    H111685   1.385   3.927   4.612
 3893TIP3    H211686   1.417   3.998   4.482
 3894TIP3   OH211687   5.939   3.542   1.845
 3894TIP3    H111688   5.874   3.497   1.791
 3894TIP3    H211689   5.959   3.480   1.915
 3895TIP3   OH211690   0.748   1.503   4.262
 3895TIP3    H111691   0.779   1.580   4.215
 3895TIP3    H211692   0.756   1.526   4.354
 3896TIP3   OH211693   1.237   1.297   1.340
 3896TIP3    H111694   1.161   1.239   1.339
 3896TIP3    H211695   1.310   1.243   1.311
 3897TIP3   OH211696   3.583   1.434   4.935
 3897TIP3    H111697   3.673   1.463   4.950
 3897TIP3    H211698   3.563   1.461   4.846
 3898TIP3   OH211699   3.811   1.214   4.617
 3898TIP3    H111700   3.881   1.168   4.571
 3898TIP3    H211701   3.851   1.241   4.700
 3899TIP3   OH211702   1.376   2.264   1.006
 3899TIP3    H111703   1.403   2.205   0.935
 3899TIP3    H211704   1.282   2.248   1.016
 3900TIP3   OH211705   2.362   0.615   1.146
 3900TIP3    H111706   2.297   0.563   1.193
 3900TIP3    H211707   2.445   0.570   1.163
 3901TIP3   OH211708   0.193   1.768   1.348
 3901TIP3    H111709   0.211   1.685   1.393
 3901TIP3    H211710   0.158   1.825   1.417
 3902TIP3   OH211711   2.991   1.734   1.302
 3902TIP3    H111712   2.974   1.827   1.286
 3902TIP3    H211713   2.957   1.718   1.390
 3903TIP3   OH211714   3.216   0.193   2.740
 3903TIP3    H111715   3.121   0.194   2.735
 3903TIP3    H211716   3.242   0.285   2.732
 3904TIP3   OH211717   5.002   0.025   1.189
 3904TIP3    H111718   5.057   0.096   1.155
 3904TIP3    H211719   4.925   0.026   1.133
 3905TIP3   OH211720   2.972   0.780   2.579
 3905TIP3    H111721   3.033   0.853   2.584
 3905TIP3    H211722   2.915   0.800   2.505
 3906TIP3   OH211723   5.051   2.326   3.042
 3906TIP3    H111724   5.119   2.336   2.975
 3906TIP3    H211725   4.976   2.290   2.995
 3907TIP3   OH211726   0.600   4.446   2.935
 3907TIP3    H111727   0.570   4.490   3.015
 3907TIP3    H211728   0.602   4.353   2.959
 3908TIP3   OH211729   1.859   5.560   2.052
 3908TIP3    H111730   1.790   5.623   2.076
 3908TIP3    H211731   1.838   5.535   1.962
 3909TIP3   OH211732   0.118   1.730   4.602
 3909TIP3    H111733   0.208   1.732   4.571
 3909TIP3    H211734   0.121   1.771   4.688
 3910TIP3   OH211735   4.265   1.536   5.142
 3910TIP3    H111736   4.275   1.601   5.211
 3910TIP3    H211737   4.276   1.584   5.061
 3911TIP3   OH211738   2.203   4.387   3.455
 3911TIP3    H111739   2.144   4.350   3.521
 3911TIP3    H211740   2.240   4.465   3.497
 3912TIP3   OH211741   1.512   0.848   4.131
 3912TIP3    H111742   1.567   0.772   4.116
 3912TIP3    H211743   1.570   0.923   4.117
 3913TIP3   OH211744   1.864   5.934   5.076
 3913TIP3    H111745   1.775   5.914   5.103
 3913TIP3    H211746   1.914   5.854   5.093
 3914TIP3   OH211747   1.263   0.413   3.496
 3914TIP3    H111748   1.262   0.427   3.401
 3914TIP3    H211749   1.201   0.477   3.530
 3915TIP3   OH211750   6.087   4.978   1.943
 3915TIP3    H111751   6.055   5.045   1.883
 3915TIP3    H211752   6.044   4.897   1.915
 3916TIP3   OH211753   3.884   1.064   2.397
 3916TIP3    H111754   3.791   1.070   2.374
 3916TIP3    H211755   3.891   1.112   2.479
 3917TIP3   OH211756   1.684   4.643   2.792
 3917TIP3    H111757   1.604   4.651   2.739
 3917TIP3    H211758   1.734   4.573   2.750
 3918TIP3   OH211759   0.902   5.955   1.137
 3918TIP3    H111760   0.949   5.911   1.066
 3918TIP3    H211761   0.962   6.024   1.165
 3919TIP3   OH211762   4.823   1.172   4.087
 3919TIP3    H111763   4.734   1.152   4.060
 3919TIP3    H211764   4.873   1.176   4.006
 3920TIP3   OH211765   4.852   0.629   2.908
 3920TIP3    H111766   4.758   0.641   2.922
 3920TIP3    H211767   4.884   0.715   2.882
 3921TIP3   OH211768   1.127   1.869   3.383
 3921TIP3    H111769   1.140   1.820   3.302
 3921TIP3    H211770   1.214   1.874   3.423
 3922TIP3   OH211771   3.569   3.066   4.445
 3922TIP3    H111772   3.480   3.036   4.425
 3922TIP3    H211773   3.557   3.156   4.478
 3923TIP3   OH211774   2.044   2.830   2.251
 3923TIP3    H111775   2.047   2.914   2.205
 3923TIP3    H211776   2.136   2.805   2.261
 3924TIP3   OH211777   2.750   3.777   3.146
 3924TIP3    H111778   2.704   3.826   3.077
 3924TIP3    H211779   2.750   3.836   3.221
 3925TIP3   OH211780   5.172   5.240   0.086
 3925TIP3    H111781   5.227   5.248   0.164
 3925TIP3    H211782   5.213   5.170   0.035
 3926TIP3   OH211783   1.767   1.874   1.010
 3926TIP3    H111784   1.743   1.952   0.960
 3926TIP3    H211785   1.853   1.895   1.046
 3927TIP3   OH211786   6.317   4.214   3.183
 3927TIP3    H111787   6.370   4.170   3.116
 3927TIP3    H211788   6.227   4.198   3.156
 3928TIP3   OH211789   2.585   0.091   4.498
 3928TIP3    H111790   2.568   0.183   4.519
 3928TIP3    H211791   2.647   0.063   4.565
 3929TIP3   OH211792   0.423   2.239   1.776
 3929TIP3    H111793   0.516   2.219   1.788
 3929TIP3    H211794   0.422   2.314   1.717
 3930TIP3   OH211795   2.803   3.699   2.001
 3930TIP3    H111796   2.846   3.784   2.011
 3930TIP3    H211797   2.742   3.711   1.928
 3931TIP3   OH211798   4.675   2.082   0.399
 3931TIP3    H111799   4.739   2.085   0.471
 3931TIP3    H211800   4.729   2.077   0.320
 3932TIP3   OH211801   3.632   0.751   3.912
 3932TIP3    H111802   3.638   0.666   3.868
 3932TIP3    H211803   3.638   0.815   3.841
 3933TIP3   OH211804   5.088   0.809   3.505
 3933TIP3    H111805   5.016   0.758   3.543
 3933TIP3    H211806   5.128   0.853   3.580
 3934TIP3   OH211807   5.972   3.009   3.834
 3934TIP3    H111808   5.915   3.067   3.784
 3934TIP3    H211809   6.031   2.971   3.768
 3935TIP3   OH211810   4.283   5.256   4.564
 3935TIP3    H111811   4.367   5.284   4.600
 3935TIP3    H211812   4.218   5.308   4.611
 3936TIP3   OH211813   1.529   2.362   1.798
 3936TIP3    H111814   1.585   2.433   1.830
 3936TIP3    H211815   1.446   2.375   1.844
 3937TIP3   OH211816   2.285   0.540   3.740
 3937TIP3    H111817   2.283   0.452   3.701
 3937TIP3    H211818   2.315   0.597   3.669
 3938TIP3   OH211819   3.438   1.660   4.478
 3938TIP3    H111820   3.513   1.637   4.532
 3938TIP3    H211821   3.362   1.628   4.526
 3939TIP3   OH211822   0.152   2.214   4.362
 3939TIP3    H111823   0.189   2.218   4.451
 3939TIP3    H211824   0.153   2.305   4.332
 3940TIP3   OH211825   0.298   0.608   2.227
 3940TIP3    H111826   0.347   0.661   2.291
 3940TIP3    H211827   0.344   0.524   2.227
 3941TIP3   OH211828   0.876   0.734   5.162
 3941TIP3    H111829   0.789   0.723   5.123
 3941TIP3    H211830   0.889   0.829   5.166
 3942TIP3   OH211831   3.470   4.437   2.375
 3942TIP3    H111832   3.474   4.360   2.319
 3942TIP3    H211833   3.501   4.509   2.321
 3943TIP3   OH211834   4.494   3.321   1.968
 3943TIP3    H111835   4.531   3.243   1.927
 3943TIP3    H211836   4.412   3.292   2.007
 3944TIP3   OH211837   0.331   5.922   1.812
 3944TIP3    H111838   0.304   5.868   1.738
 3944TIP3    H211839   0.267   5.904   1.880
 3945TIP3   OH211840   0.469   2.700   1.566
 3945TIP3    H111841   0.521   2.672   1.491
 3945TIP3    H211842   0.461   2.795   1.556
 3946TIP3   OH211843   1.981   4.263   2.478
 3946TIP3    H111844   1.961   4.332   2.415
 3946TIP3    H211845   2.020   4.193   2.427
 3947TIP3   OH211846   2.023   1.830   4.751
 3947TIP3    H111847   1.995   1.756   4.697
 3947TIP3    H211848   2.069   1.789   4.825
 3948TIP3   OH211849   3.073   4.564   2.509
 3948TIP3    H111850   3.056   4.475   2.540
 3948TIP3    H211851   3.090   4.553   2.415
 3949TIP3   OH211852   2.943   5.208   0.787
 3949TIP3    H111853   2.881   5.278   0.767
 3949TIP3    H211854   2.889   5.129   0.792
 3950TIP3   OH211855   5.567   4.200   5.087
 3950TIP3    H111856   5.606   4.144   5.155
 3950TIP3    H211857   5.631   4.201   5.017
 3951TIP3   OH211858   2.642   3.511   2.525
 3951TIP3    H111859   2.695   3.438   2.494
 3951TIP3    H211860   2.595   3.542   2.448
 3952TIP3   OH211861   0.120   2.237   1.020
 3952TIP3    H111862   0.086   2.149   1.003
 3952TIP3    H211863   0.117   2.246   1.116
 3953TIP3   OH211864   4.539   3.222   4.608
 3953TIP3    H111865   4.610   3.163   4.581
 3953TIP3    H211866   4.487   3.170   4.669
 3954TIP3   OH211867   1.153   4.535   2.472
 3954TIP3    H111868   1.072   4.495   2.443
 3954TIP3    H211869   1.139   4.556   2.564
 3955TIP3   OH211870   5.206  -0.012   4.767
 3955TIP3    H111871   5.169   0.065   4.810
 3955TIP3    H211872   5.279  -0.038   4.824
 3956TIP3   OH211873   5.097   2.026   0.954
 3956TIP3    H111874   5.086   2.110   0.998
 3956TIP3    H211875   5.011   2.009   0.914
 3957TIP3   OH211876   4.476   0.419   4.311
 3957TIP3    H111877   4.437   0.452   4.230
 3957TIP3    H211878   4.435   0.472   4.380
 3958TIP3   OH211879   5.470   3.527   4.820
 3958TIP3    H111880   5.432   3.487   4.743
 3958TIP3    H211881   5.408   3.508   4.891
 3959TIP3   OH211882   2.278   5.594   1.640
 3959TIP3    H111883   2.243   5.556   1.720
 3959TIP3    H211884   2.221   5.669   1.622
 3960TIP3   OH211885   2.280   2.340   1.287
 3960TIP3    H111886   2.368   2.327   1.323
 3960TIP3    H211887   2.295   2.365   1.196
 3961TIP3   OH211888   0.969   5.660   1.289
 3961TIP3    H111889   1.006   5.598   1.352
 3961TIP3    H211890   1.044   5.708   1.255
 3962TIP3   OH211891   3.564   4.750   3.448
 3962TIP3    H111892   3.492   4.787   3.500
 3962TIP3    H211893   3.597   4.677   3.501
 3963TIP3   OH211894   0.827   2.153   4.552
 3963TIP3    H111895   0.863   2.129   4.637
 3963TIP3    H211896   0.822   2.071   4.504
 3964TIP3   OH211897   0.377   3.545   4.341
 3964TIP3    H111898   0.433   3.553   4.264
 3964TIP3    H211899   0.289   3.534   4.306
 3965TIP3   OH211900   6.249   1.250   1.367
 3965TIP3    H111901   6.194   1.254   1.445
 3965TIP3    H211902   6.186   1.242   1.295
 3966TIP3   OH211903   0.587   0.022   0.809
 3966TIP3    H111904   0.646  -0.053   0.807
 3966TIP3    H211905   0.565   0.034   0.902
 3967TIP3   OH211906   5.880   2.032   5.104
 3967TIP3    H111907   5.912   2.002   5.020
 3967TIP3    H211908   5.792   2.065   5.086
 3968TIP3   OH211909   2.571   0.967   0.746
 3968TIP3    H111910   2.654   1.015   0.742
 3968TIP3    H211911   2.595   0.876   0.725
 3969TIP3   OH211912   5.725   5.287   2.063
 3969TIP3    H111913   5.782   5.222   2.105
 3969TIP3    H211914   5.639   5.245   2.060
 3970TIP3   OH211915   5.027   4.529   4.074
 3970TIP3    H111916   5.097   4.475   4.110
 3970TIP3    H211917   4.946   4.489   4.107
 3971TIP3   OH211918   4.851   5.503   4.045
 3971TIP3    H111919   4.946   5.519   4.042
 3971TIP3    H211920   4.815   5.566   3.983
 3972TIP3   OH211921   4.945   3.158   3.143
 3972TIP3    H111922   4.937   3.200   3.058
 3972TIP3    H211923   4.858   3.167   3.182
 3973TIP3   OH211924   0.841   0.966   1.081
 3973TIP3    H111925   0.934   0.946   1.071
 3973TIP3    H211926   0.822   0.949   1.173
 3974TIP3   OH211927   4.534   4.339   5.142
 3974TIP3    H111928   4.622   4.301   5.133
 3974TIP3    H211929   4.551   4.431   5.164
 3975TIP3   OH211930   1.858   4.489   3.576
 3975TIP3    H111931   1.893   4.499   3.487
 3975TIP3    H211932   1.867   4.577   3.614
 3976TIP3   OH211933   4.083   0.893   2.090
 3976TIP3    H111934   3.992   0.867   2.106
 3976TIP3    H211935   4.085   0.916   1.997
 3977TIP3   OH211936   5.873   3.240   1.798
 3977TIP3    H111937   5.952   3.213   1.844
 3977TIP3    H211938   5.886   3.211   1.708
 3978TIP3   OH211939   4.550   2.737   0.331
 3978TIP3    H111940   4.578   2.683   0.405
 3978TIP3    H211941   4.606   2.709   0.258
 3979TIP3   OH211942   1.079   0.989   3.280
 3979TIP3    H111943   1.081   0.929   3.205
 3979TIP3    H211944   1.038   1.068   3.246
 3980TIP3   OH211945   2.264   4.430   0.995
 3980TIP3    H111946   2.205   4.441   0.920
 3980TIP3    H211947   2.349   4.409   0.956
 3981TIP3   OH211948   1.294   2.993   5.138
 3981TIP3    H111949   1.342   2.940   5.202
 3981TIP3    H211950   1.319   3.083   5.158
 3982TIP3   OH211951   3.208   0.898   1.714
 3982TIP3    H111952   3.173   0.814   1.745
 3982TIP3    H211953   3.133   0.957   1.716
 3983TIP3   OH211954   2.057   4.221   3.288
 3983TIP3    H111955   2.085   4.303   3.328
 3983TIP3    H211956   2.037   4.164   3.362
 3984TIP3   OH211957   0.754   2.130   4.182
 3984TIP3    H111958   0.698   2.054   4.167
 3984TIP3    H211959   0.699   2.191   4.231
 3985TIP3   OH211960   4.149   1.196   4.898
 3985TIP3    H111961   4.062   1.235   4.907
 3985TIP3    H211962   4.138   1.131   4.828
 3986TIP3   OH211963   4.844   3.350   1.227
 3986TIP3    H111964   4.814   3.297   1.153
 3986TIP3    H211965   4.798   3.314   1.303
 3987TIP3   OH211966   6.098   4.354   3.423
 3987TIP3    H111967   6.100   4.352   3.328
 3987TIP3    H211968   6.189   4.363   3.449
 3988TIP3   OH211969   3.450   1.412   0.382
 3988TIP3    H111970   3.394   1.463   0.442
 3988TIP3    H211971   3.492   1.347   0.438
 3989TIP3   OH211972   1.955   5.621   0.546
 3989TIP3    H111973   2.041   5.663   0.543
 3989TIP3    H211974   1.936   5.598   0.455
 3990TIP3   OH211975   3.702   1.931   3.918
 3990TIP3    H111976   3.773   1.991   3.940
 3990TIP3    H211977   3.695   1.873   3.994
 3991TIP3   OH211978   4.568   0.040   0.637
 3991TIP3    H111979   4.479   0.005   0.640
 3991TIP3    H211980   4.597   0.040   0.728
 3992TIP3   OH211981   1.556   0.349   4.534
 3992TIP3    H111982   1.603   0.424   4.498
 3992TIP3    H211983   1.464   0.368   4.518
 3993TIP3   OH211984   4.258   0.362   3.717
 3993TIP3    H111985   4.333   0.313   3.750
 3993TIP3    H211986   4.297   0.440   3.675
 3994TIP3   OH211987   6.179   3.604   0.086
 3994TIP3    H111988   6.127   3.556   0.021
 3994TIP3    H211989   6.169   3.696   0.061
 3995TIP3   OH211990   1.003   2.318   3.399
 3995TIP3    H111991   0.958   2.306   3.315
 3995TIP3    H211992   1.047   2.234   3.415
 3996TIP3   OH211993   2.578   4.832   4.953
 3996TIP3    H111994   2.553   4.747   4.915
 3996TIP3    H211995   2.557   4.896   4.886
 3997TIP3   OH211996   5.659   3.772   0.554
 3997TIP3    H111997   5.664   3.723   0.636
 3997TIP3    H211998   5.750   3.774   0.522
 3998TIP3   OH211999   1.283   2.292   3.836
 3998TIP3    H112000   1.240   2.328   3.913
 3998TIP3    H212001   1.259   2.353   3.765
 3999TIP3   OH212002   1.400   5.695   1.832
 3999TIP3    H112003   1.445   5.720   1.913
 3999TIP3    H212004   1.309   5.683   1.858
 4000TIP3   OH212005   5.220   4.360   2.926
 4000TIP3    H112006   5.222   4.316   2.841
 4000TIP3    H212007   5.310   4.355   2.958
 4001TIP3   OH212008   5.201   1.773   0.510
 4001TIP3    H112009   5.221   1.703   0.448
 4001TIP3    H212010   5.286   1.814   0.527
 4002TIP3   OH212011   0.177   2.562   1.127
 4002TIP3    H112012   0.249   2.590   1.183
 4002TIP3    H212013   0.217   2.499   1.067
 4003TIP3   OH212014   0.036   5.715   4.937
 4003TIP3    H112015   0.117   5.729   4.986
 4003TIP3    H212016   0.064   5.703   4.847
 4004TIP3   OH212017   1.954   4.092   0.273
 4004TIP3    H112018   1.951   4.108   0.179
 4004TIP3    H212019   1.897   4.016   0.286
 4005TIP3   OH212020   5.446   2.586   2.145
 4005TIP3    H112021   5.493   2.649   2.090
 4005TIP3    H212022   5.409   2.640   2.216
 4006TIP3   OH212023   4.549   4.659   1.091
 4006TIP3    H112024   4.561   4.651   0.996
 4006TIP3    H212025   4.623   4.613   1.128
 4007TIP3   OH212026   5.021   2.375   2.737
 4007TIP3    H112027   4.932   2.369   2.703
 4007TIP3    H212028   5.071   2.310   2.688
 4008TIP3   OH212029   1.143   4.932   1.981
 4008TIP3    H112030   1.078   5.000   1.963
 4008TIP3    H212031   1.223   4.962   1.938
 4009TIP3   OH212032   1.152   1.443   4.555
 4009TIP3    H112033   1.112   1.386   4.490
 4009TIP3    H212034   1.227   1.394   4.588
 4010TIP3   OH212035   1.070   5.042   3.841
 4010TIP3    H112036   1.148   5.097   3.839
 4010TIP3    H212037   1.041   5.044   3.932
 4011TIP3   OH212038   5.518   4.192   2.693
 4011TIP3    H112039   5.501   4.101   2.716
 4011TIP3    H212040   5.458   4.210   2.620
 4012TIP3   OH212041   3.088   3.017   3.884
 4012TIP3    H112042   3.040   3.054   3.958
 4012TIP3    H212043   3.158   2.965   3.923
 4013TIP3   OH212044   4.593   5.850   4.058
 4013TIP3    H112045   4.531   5.876   4.126
 4013TIP3    H212046   4.679   5.863   4.097
 4014TIP3   OH212047   0.350   1.739   4.451
 4014TIP3    H112048   0.383   1.828   4.441
 4014TIP3    H212049   0.421   1.691   4.494
 4015TIP3   OH212050   1.515   5.728   1.387
 4015TIP3    H112051   1.504   5.823   1.384
 4015TIP3    H212052   1.449   5.698   1.450
 4016TIP3   OH212053   3.357   2.166   1.784
 4016TIP3    H112054   3.301   2.233   1.824
 4016TIP3    H212055   3.429   2.155   1.846
 4017TIP3   OH212056   3.469   3.719   3.496
 4017TIP3    H112057   3.528   3.792   3.515
 4017TIP3    H212058   3.464   3.671   3.579
 4018TIP3   OH212059   1.935   1.197   3.532
 4018TIP3    H112060   1.987   1.267   3.571
 4018TIP3    H212061   1.925   1.132   3.602
 4019TIP3   OH212062   5.112   3.633   2.710
 4019TIP3    H112063   5.202   3.602   2.716
 4019TIP3    H212064   5.090   3.659   2.800
 4020TIP3   OH212065   5.962   4.364   3.758
 4020TIP3    H112066   5.973   4.298   3.826
 4020TIP3    H212067   5.981   4.318   3.676
 4021TIP3   OH212068  -0.016   3.255   1.016
 4021TIP3    H112069  -0.028   3.238   1.110
 4021TIP3    H212070   0.020   3.344   1.013
 4022TIP3   OH212071   1.869   3.431   3.132
 4022TIP3    H112072   1.918   3.369   3.186
 4022TIP3    H212073   1.817   3.376   3.073
 4023TIP3   OH212074   3.867   5.703   3.567
 4023TIP3    H112075   3.901   5.760   3.636
 4023TIP3    H212076   3.775   5.693   3.588
 4024TIP3   OH212077   0.313   1.717   2.944
 4024TIP3    H112078   0.405   1.718   2.969
 4024TIP3    H212079   0.267   1.689   3.024
 4025TIP3   OH212080   4.838   4.694   2.822
 4025TIP3    H112081   4.887   4.619   2.857
 4025TIP3    H212082   4.891   4.770   2.848
 4026TIP3   OH212083   2.336   0.292   0.985
 4026TIP3    H112084   2.378   0.324   1.065
 4026TIP3    H212085   2.396   0.318   0.915
 4027TIP3   OH212086   1.664   2.761   2.070
 4027TIP3    H112087   1.749   2.718   2.080
 4027TIP3    H212088   1.602   2.689   2.062
 4028TIP3   OH212089   0.440   1.918   2.276
 4028TIP3    H112090   0.380   1.852   2.243
 4028TIP3    H212091   0.390   1.964   2.344
 4029TIP3   OH212092   1.914   1.563   4.663
 4029TIP3    H112093   1.968   1.485   4.675
 4029TIP3    H212094   1.925   1.586   4.570
 4030TIP3   OH212095   2.640   5.419   1.080
 4030TIP3    H112096   2.572   5.462   1.030
 4030TIP3    H212097   2.720   5.431   1.028
 4031TIP3   OH212098   0.889   5.552   3.462
 4031TIP3    H112099   0.906   5.635   3.418
 4031TIP3    H212100   0.794   5.540   3.455
 4032TIP3   OH212101   4.065   0.690   4.570
 4032TIP3    H112102   3.979   0.715   4.535
 4032TIP3    H212103   4.097   0.624   4.508
 4033TIP3   OH212104   2.366   0.616   0.565
 4033TIP3    H112105   2.325   0.531   0.585
 4033TIP3    H212106   2.381   0.612   0.470
 4034TIP3   OH212107   4.465   5.654   3.402
 4034TIP3    H112108   4.510   5.660   3.317
 4034TIP3    H212109   4.518   5.592   3.452
 4035TIP3   OH212110   5.871   4.678   0.438
 4035TIP3    H112111   5.806   4.678   0.368
 4035TIP3    H212112   5.915   4.762   0.430
 4036TIP3   OH212113   2.608   2.557   1.811
 4036TIP3    H112114   2.526   2.585   1.771
 4036TIP3    H212115   2.648   2.637   1.845
 4037TIP3   OH212116   1.819   4.115   3.547
 4037TIP3    H112117   1.865   4.123   3.630
 4037TIP3    H212118   1.854   4.036   3.507
 4038TIP3   OH212119   5.967   0.982   1.128
 4038TIP3    H112120   5.878   0.999   1.097
 4038TIP3    H212121   5.991   1.061   1.176
 4039TIP3   OH212122   6.123   3.152   0.598
 4039TIP3    H112123   6.180   3.213   0.645
 4039TIP3    H212124   6.055   3.129   0.661
 4040TIP3   OH212125   3.358   0.426   3.470
 4040TIP3    H112126   3.377   0.510   3.428
 4040TIP3    H212127   3.305   0.449   3.546
 4041TIP3   OH212128   2.016   4.220   0.639
 4041TIP3    H112129   2.099   4.188   0.675
 4041TIP3    H212130   1.950   4.169   0.685
 4042TIP3   OH212131   1.537   0.475   1.346
 4042TIP3    H112132   1.507   0.528   1.272
 4042TIP3    H212133   1.456   0.443   1.386
 4043TIP3   OH212134   0.660   3.009   2.930
 4043TIP3    H112135   0.568   2.983   2.921
 4043TIP3    H212136   0.657   3.102   2.952
 4044TIP3   OH212137   3.977   1.615   3.100
 4044TIP3    H112138   3.921   1.690   3.077
 4044TIP3    H212139   4.022   1.642   3.180
 4045TIP3   OH212140   2.720   3.996   0.124
 4045TIP3    H112141   2.659   3.925   0.101
 4045TIP3    H212142   2.740   3.980   0.216
 4046TIP3   OH212143   5.030   3.696   0.214
 4046TIP3    H112144   5.068   3.670   0.298
 4046TIP3    H212145   4.941   3.723   0.236
 4047TIP3   OH212146   5.749   2.123   1.266
 4047TIP3    H112147   5.809   2.131   1.341
 4047TIP3    H212148   5.673   2.076   1.300
 4048TIP3   OH212149   3.819   0.891   3.642
 4048TIP3    H112150   3.910   0.875   3.667
 4048TIP3    H212151   3.775   0.807   3.654
 4049TIP3   OH212152   1.907   4.397   4.457
 4049TIP3    H112153   1.894   4.325   4.519
 4049TIP3    H212154   1.985   4.372   4.407
 4050TIP3   OH212155   0.599   4.833   5.016
 4050TIP3    H112156   0.586   4.775   4.942
 4050TIP3    H212157   0.666   4.895   4.988
 4051TIP3   OH212158   2.972   2.114   0.937
 4051TIP3    H112159   2.877   2.121   0.936
 4051TIP3    H212160   2.990   2.022   0.917
 4052TIP3   OH212161   6.057   1.452   2.961
 4052TIP3    H112162   6.142   1.481   2.996
 4052TIP3    H212163   5.997   1.465   3.034
 4053TIP3   OH212164   2.976   0.189   4.473
 4053TIP3    H112165   2.959   0.266   4.419
 4053TIP3    H212166   2.890   0.165   4.508
 4054TIP3   OH212167   2.682   5.675   2.223
 4054TIP3    H112168   2.767   5.684   2.180
 4054TIP3    H212169   2.679   5.584   2.252
 4055TIP3   OH212170   0.396   0.288   1.170
 4055TIP3    H112171   0.470   0.263   1.224
 4055TIP3    H212172   0.334   0.216   1.179
 4056TIP3   OH212173   3.572   1.061   0.137
 4056TIP3    H112174   3.633   1.002   0.090
 4056TIP3    H212175   3.520   1.002   0.191
 4057TIP3   OH212176   6.059   3.174   4.079
 4057TIP3    H112177   6.023   3.213   3.999
 4057TIP3    H212178   6.113   3.243   4.118
 4058TIP3   OH212179   1.505   3.166   1.135
 4058TIP3    H112180   1.582   3.109   1.142
 4058TIP3    H212181   1.448   3.121   1.073
 4059TIP3   OH212182   0.514   3.812   3.861
 4059TIP3    H112183   0.495   3.848   3.947
 4059TIP3    H212184   0.473   3.725   3.862
 4060TIP3   OH212185   4.333   2.719   2.436
 4060TIP3    H112186   4.386   2.682   2.507
 4060TIP3    H212187   4.388   2.787   2.398
 4061TIP3   OH212188   5.656   2.804   3.624
 4061TIP3    H112189   5.737   2.768   3.661
 4061TIP3    H212190   5.637   2.881   3.678
 4062TIP3   OH212191   4.545   0.518   3.753
 4062TIP3    H112192   4.624   0.507   3.700
 4062TIP3    H212193   4.502   0.595   3.716
 4063TIP3   OH212194   1.763   1.691   2.650
 4063TIP3    H112195   1.796   1.617   2.702
 4063TIP3    H212196   1.704   1.651   2.586
 4064TIP3   OH212197   2.746   4.633   3.025
 4064TIP3    H112198   2.831   4.594   3.003
 4064TIP3    H212199   2.695   4.560   3.059
 4065TIP3   OH212200   5.962   2.788   2.021
 4065TIP3    H112201   5.998   2.799   1.933
 4065TIP3    H212202   5.868   2.804   2.011
 4066TIP3   OH212203   2.912   3.266   3.701
 4066TIP3    H112204   2.942   3.311   3.622
 4066TIP3    H212205   2.820   3.248   3.684
 4067TIP3   OH212206   1.805   4.976   4.723
 4067TIP3    H112207   1.805   5.053   4.778
 4067TIP3    H212208   1.738   4.919   4.761
 4068TIP3   OH212209   0.365   2.453   1.584
 4068TIP3    H112210   0.399   2.541   1.604
 4068TIP3    H212211   0.338   2.458   1.493
 4069TIP3   OH212212   3.704   3.145   2.374
 4069TIP3    H112213   3.778   3.174   2.321
 4069TIP3    H212214   3.632   3.203   2.348
 4070TIP3   OH212215   1.422   1.971   0.982
 4070TIP3    H112216   1.347   1.932   1.027
 4070TIP3    H212217   1.471   2.015   1.051
 4071TIP3   OH212218   4.711   2.460   3.414
 4071TIP3    H112219   4.737   2.496   3.329
 4071TIP3    H212220   4.624   2.424   3.399
 4072TIP3   OH212221   4.111   2.782   1.888
 4072TIP3    H112222   4.044   2.752   1.950
 4072TIP3    H212223   4.094   2.875   1.878
 4073TIP3   OH212224   4.195   4.328   1.734
 4073TIP3    H112225   4.194   4.306   1.641
 4073TIP3    H212226   4.205   4.243   1.779
 4074TIP3   OH212227   3.541   5.916   0.742
 4074TIP3    H112228   3.450   5.928   0.717
 4074TIP3    H212229   3.541   5.835   0.794
 4075TIP3   OH212230   3.048   3.043   1.354
 4075TIP3    H112231   3.114   3.009   1.293
 4075TIP3    H212232   2.993   2.968   1.374
 4076TIP3   OH212233   0.683   5.866   0.458
 4076TIP3    H112234   0.747   5.877   0.528
 4076TIP3    H212235   0.655   5.775   0.465
 4077TIP3   OH212236   2.323   4.984   1.286
 4077TIP3    H112237   2.309   4.968   1.192
 4077TIP3    H212238   2.351   4.900   1.321
 4078TIP3   OH212239   3.585   2.690   3.277
 4078TIP3    H112240   3.669   2.736   3.288
 4078TIP3    H212241   3.601   2.629   3.204
 4079TIP3   OH212242   2.768  -0.009   1.873
 4079TIP3    H112243   2.692   0.049   1.879
 4079TIP3    H212244   2.770  -0.055   1.957
 4080TIP3   OH212245   2.004   4.062   2.301
 4080TIP3    H112246   1.932   4.035   2.244
 4080TIP3    H212247   2.042   3.979   2.331
 4081TIP3   OH212248   0.956   5.904   2.351
 4081TIP3    H112249   1.015   5.975   2.325
 4081TIP3    H212250   0.933   5.924   2.442
 4082TIP3   OH212251   3.680   2.527   3.691
 4082TIP3    H112252   3.721   2.609   3.720
 4082TIP3    H212253   3.614   2.554   3.628
 4083TIP3   OH212254   1.595   2.099   3.010
 4083TIP3    H112255   1.680   2.124   3.046
 4083TIP3    H212256   1.560   2.180   2.973
 4084TIP3   OH212257   3.983   3.077   2.685
 4084TIP3    H112258   4.042   3.136   2.639
 4084TIP3    H212259   4.041   3.013   2.727
 4085TIP3   OH212260   2.479  -0.032   5.089
 4085TIP3    H112261   2.466   0.055   5.050
 4085TIP3    H212262   2.571  -0.033   5.115
 4086TIP3   OH212263   5.325   5.262   4.581
 4086TIP3    H112264   5.327   5.310   4.498
 4086TIP3    H212265   5.253   5.302   4.630
 4087TIP3   OH212266   3.379   5.121   0.235
 4087TIP3    H112267   3.292   5.157   0.216
 4087TIP3    H212268   3.395   5.143   0.326
 4088TIP3   OH212269   0.481   1.429   1.088
 4088TIP3    H112270   0.504   1.391   1.173
 4088TIP3    H212271   0.461   1.353   1.033
 4089TIP3   OH212272   2.960   2.918   2.949
 4089TIP3    H112273   2.884   2.862   2.935
 4089TIP3    H212274   3.035   2.862   2.929
 4090TIP3   OH212275   5.998   6.062   1.099
 4090TIP3    H112276   5.932   6.127   1.122
 4090TIP3    H212277   5.956   5.978   1.117
 4091TIP3   OH212278   1.248   4.156   0.341
 4091TIP3    H112279   1.181   4.176   0.276
 4091TIP3    H212280   1.229   4.215   0.415
 4092TIP3   OH212281   3.724   2.149   4.350
 4092TIP3    H112282   3.780   2.199   4.409
 4092TIP3    H212283   3.680   2.086   4.407
 4093TIP3   OH212284   0.327   6.008   1.503
 4093TIP3    H112285   0.237   6.041   1.511
 4093TIP3    H212286   0.323   5.942   1.434
 4094TIP3   OH212287   6.202   4.953   1.070
 4094TIP3    H112288   6.197   5.035   1.021
 4094TIP3    H212289   6.196   4.885   1.003
 4095TIP3   OH212290   4.684   5.931   0.576
 4095TIP3    H112291   4.741   5.966   0.645
 4095TIP3    H212292   4.616   5.883   0.623
 4096TIP3   OH212293   4.057   2.164   1.314
 4096TIP3    H112294   4.003   2.164   1.235
 4096TIP3    H212295   4.104   2.081   1.311
 4097TIP3   OH212296   1.904   3.398   1.849
 4097TIP3    H112297   1.857   3.477   1.825
 4097TIP3    H212298   1.935   3.414   1.938
 4098TIP3   OH212299   0.719   3.724   0.822
 4098TIP3    H112300   0.655   3.654   0.816
 4098TIP3    H212301   0.790   3.689   0.876
 4099TIP3   OH212302   3.983   5.428   2.170
 4099TIP3    H112303   4.056   5.368   2.182
 4099TIP3    H212304   3.912   5.373   2.136
 4100TIP3   OH212305   2.294   3.844   1.424
 4100TIP3    H112306   2.381   3.855   1.385
 4100TIP3    H212307   2.241   3.913   1.384
 4101TIP3   OH212308   2.119   3.106   1.237
 4101TIP3    H112309   2.086   3.023   1.203
 4101TIP3    H212310   2.212   3.107   1.212
 4102TIP3   OH212311   3.942   5.743   1.551
 4102TIP3    H112312   3.897   5.817   1.591
 4102TIP3    H212313   4.030   5.776   1.531
 4103TIP3   OH212314   0.706   2.609   0.110
 4103TIP3    H112315   0.791   2.648   0.087
 4103TIP3    H212316   0.666   2.672   0.169
 4104TIP3   OH212317   3.392   3.247   0.532
 4104TIP3    H112318   3.421   3.282   0.616
 4104TIP3    H212319   3.395   3.321   0.472
 4105TIP3   OH212320   5.974   3.019   5.079
 4105TIP3    H112321   5.995   2.980   5.163
 4105TIP3    H212322   5.878   3.026   5.079
 4106TIP3   OH212323   0.287   1.550   0.460
 4106TIP3    H112324   0.198   1.584   0.459
 4106TIP3    H212325   0.316   1.555   0.368
 4107TIP3   OH212326   5.773   5.659   1.611
 4107TIP3    H112327   5.788   5.608   1.690
 4107TIP3    H212328   5.749   5.746   1.642
 4108TIP3   OH212329   0.380   2.762   2.379
 4108TIP3    H112330   0.383   2.768   2.474
 4108TIP3    H212331   0.287   2.747   2.359
 4109TIP3   OH212332   2.669  -0.008   3.725
 4109TIP3    H112333   2.659   0.049   3.649
 4109TIP3    H212334   2.657   0.050   3.800
 4110TIP3   OH212335   0.866   1.727   4.134
 4110TIP3    H112336   0.898   1.683   4.055
 4110TIP3    H212337   0.941   1.779   4.164
 4111TIP3   OH212338   5.412   5.567   3.706
 4111TIP3    H112339   5.457   5.485   3.727
 4111TIP3    H212340   5.322   5.553   3.735
 4112TIP3   OH212341   1.454   0.847   1.642
 4112TIP3    H112342   1.386   0.814   1.582
 4112TIP3    H212343   1.444   0.794   1.721
 4113TIP3   OH212344   5.910   0.830   2.301
 4113TIP3    H112345   5.909   0.739   2.269
 4113TIP3    H212346   5.935   0.882   2.224
 4114TIP3   OH212347   4.523   3.951   2.469
 4114TIP3    H112348   4.617   3.968   2.466
 4114TIP3    H212349   4.496   3.980   2.557
 4115TIP3   OH212350   5.621   0.327   4.545
 4115TIP3    H112351   5.534   0.363   4.526
 4115TIP3    H212352   5.643   0.363   4.630
 4116TIP3   OH212353   3.392   4.950   1.481
 4116TIP3    H112354   3.347   4.897   1.547
 4116TIP3    H212355   3.422   4.886   1.416
 4117TIP3   OH212356   5.030   2.477   3.275
 4117TIP3    H112357   5.048   2.418   3.201
 4117TIP3    H212358   4.977   2.424   3.335
 4118TIP3   OH212359   0.058   5.953   2.067
 4118TIP3    H112360   0.018   5.871   2.041
 4118TIP3    H212361  -0.016   6.011   2.086
 4119TIP3   OH212362   1.112   4.868   4.863
 4119TIP3    H112363   1.137   4.780   4.889
 4119TIP3    H212364   1.149   4.879   4.775
 4120TIP3   OH212365   2.679   5.808   2.657
 4120TIP3    H112366   2.649   5.746   2.590
 4120TIP3    H212367   2.674   5.758   2.739
 4121TIP3   OH212368   2.590   5.083   4.431
 4121TIP3    H112369   2.645   5.007   4.452
 4121TIP3    H212370   2.500   5.049   4.431
 4122TIP3   OH212371   3.464   1.024   3.839
 4122TIP3    H112372   3.451   1.112   3.875
 4122TIP3    H212373   3.512   1.038   3.758
 4123TIP3   OH212374   4.271   3.189   5.008
 4123TIP3    H112375   4.197   3.130   5.027
 4123TIP3    H212376   4.306   3.211   5.094
 4124TIP3   OH212377   2.106   0.408   4.000
 4124TIP3    H112378   2.109   0.377   3.909
 4124TIP3    H212379   2.072   0.497   3.993
 4125TIP3   OH212380   5.432   3.848   3.810
 4125TIP3    H112381   5.369   3.911   3.845
 4125TIP3    H212382   5.485   3.821   3.885
 4126TIP3   OH212383   0.290   3.271   0.869
 4126TIP3    H112384   0.342   3.238   0.942
 4126TIP3    H212385   0.257   3.356   0.899
 4127TIP3   OH212386   2.291   1.952   3.509
 4127TIP3    H112387   2.263   1.971   3.599
 4127TIP3    H212388   2.357   2.018   3.490
 4128TIP3   OH212389   4.398   2.676   2.063
 4128TIP3    H112390   4.352   2.760   2.064
 4128TIP3    H212391   4.333   2.613   2.092
 4129TIP3   OH212392   3.928   5.730   4.261
 4129TIP3    H112393   3.855   5.791   4.272
 4129TIP3    H212394   3.912   5.689   4.176
 4130TIP3   OH212395   1.701   3.771   3.107
 4130TIP3    H112396   1.763   3.725   3.164
 4130TIP3    H212397   1.709   3.863   3.131
 4131TIP3   OH212398   3.227   0.175   2.241
 4131TIP3    H112399   3.222   0.266   2.212
 4131TIP3    H212400   3.281   0.178   2.320
 4132TIP3   OH212401   0.670   2.110   0.455
 4132TIP3    H112402   0.630   2.034   0.496
 4132TIP3    H212403   0.684   2.084   0.364
 4133TIP3   OH212404   4.240   1.590   1.497
 4133TIP3    H112405   4.306   1.523   1.482
 4133TIP3    H212406   4.288   1.672   1.492
 4134TIP3   OH212407   5.623   4.965   1.346
 4134TIP3    H112408   5.636   4.972   1.251
 4134TIP3    H212409   5.538   5.006   1.361
 4135TIP3   OH212410   1.979   3.729   0.399
 4135TIP3    H112411   2.044   3.769   0.457
 4135TIP3    H212412   1.895   3.766   0.429
 4136TIP3   OH212413   1.777   3.583   4.428
 4136TIP3    H112414   1.702   3.538   4.390
 4136TIP3    H212415   1.783   3.665   4.379
 4137TIP3   OH212416   2.337   2.616   2.881
 4137TIP3    H112417   2.356   2.692   2.825
 4137TIP3    H212418   2.332   2.652   2.970
 4138TIP3   OH212419   3.423   2.518   4.705
 4138TIP3    H112420   3.420   2.422   4.709
 4138TIP3    H212421   3.499   2.536   4.650
 4139TIP3   OH212422   2.929   2.289   3.540
 4139TIP3    H112423   2.864   2.331   3.485
 4139TIP3    H212424   2.998   2.355   3.552
 4140TIP3   OH212425   4.510   4.378   3.017
 4140TIP3    H112426   4.601   4.358   2.993
 4140TIP3    H212427   4.505   4.473   3.014
 4141TIP3   OH212428   4.101   3.650   0.339
 4141TIP3    H112429   4.175   3.588   0.339
 4141TIP3    H212430   4.110   3.697   0.422
 4142TIP3   OH212431   4.198   2.443   1.622
 4142TIP3    H112432   4.267   2.504   1.648
 4142TIP3    H212433   4.117   2.483   1.655
 4143TIP3   OH212434   2.310   1.283   2.940
 4143TIP3    H112435   2.346   1.288   2.851
 4143TIP3    H212436   2.355   1.208   2.979
 4144TIP3   OH212437   2.641   4.134   2.070
 4144TIP3    H112438   2.691   4.194   2.125
 4144TIP3    H212439   2.689   4.130   1.988
 4145TIP3   OH212440   3.189   1.561   4.564
 4145TIP3    H112441   3.161   1.501   4.633
 4145TIP3    H212442   3.109   1.607   4.539
 4146TIP3   OH212443   0.930   4.099   0.530
 4146TIP3    H112444   0.881   4.121   0.609
 4146TIP3    H212445   1.016   4.138   0.542
 4147TIP3   OH212446   1.744   4.205   4.262
 4147TIP3    H112447   1.727   4.262   4.187
 4147TIP3    H212448   1.784   4.263   4.327
 4148TIP3   OH212449   5.466   2.081   2.810
 4148TIP3    H112450   5.495   2.168   2.782
 4148TIP3    H212451   5.498   2.073   2.900
 4149TIP3   OH212452   5.827   2.587   1.606
 4149TIP3    H112453   5.758   2.641   1.568
 4149TIP3    H212454   5.888   2.649   1.646
 4150TIP3   OH212455   2.452   1.904   1.508
 4150TIP3    H112456   2.432   1.814   1.534
 4150TIP3    H212457   2.368   1.950   1.516
 4151TIP3   OH212458   0.575   2.172   2.193
 4151TIP3    H112459   0.620   2.173   2.278
 4151TIP3    H212460   0.604   2.251   2.149
 4152TIP3   OH212461   4.864   4.372   3.415
 4152TIP3    H112462   4.949   4.364   3.459
 4152TIP3    H212463   4.853   4.467   3.403
 4153TIP3   OH212464   2.625   3.034   3.740
 4153TIP3    H112465   2.717   3.026   3.716
 4153TIP3    H212466   2.579   2.981   3.675
 4154TIP3   OH212467   3.754   3.821   3.176
 4154TIP3    H112468   3.696   3.760   3.223
 4154TIP3    H212469   3.833   3.826   3.230
 4155TIP3   OH212470   2.564   4.821   1.056
 4155TIP3    H112471   2.550   4.909   1.091
 4155TIP3    H212472   2.601   4.771   1.129
 4156TIP3   OH212473   2.761   2.927   2.503
 4156TIP3    H112474   2.690   2.981   2.469
 4156TIP3    H212475   2.721   2.877   2.574
 4157TIP3   OH212476   3.056   4.875   0.518
 4157TIP3    H112477   3.071   4.803   0.579
 4157TIP3    H212478   3.110   4.947   0.551
 4158TIP3   OH212479   2.152   5.737   1.187
 4158TIP3    H112480   2.225   5.709   1.133
 4158TIP3    H212481   2.154   5.833   1.183
 4159TIP3   OH212482   2.833   0.862   2.922
 4159TIP3    H112483   2.927   0.857   2.902
 4159TIP3    H212484   2.828   0.924   2.994
 4160TIP3   OH212485   0.517   4.349   3.657
 4160TIP3    H112486   0.515   4.273   3.600
 4160TIP3    H212487   0.425   4.370   3.673
 4161TIP3   OH212488   5.072   4.226   4.884
 4161TIP3    H112489   5.133   4.246   4.955
 4161TIP3    H212490   5.006   4.295   4.889
 4162TIP3   OH212491   5.517   5.445   2.865
 4162TIP3    H112492   5.542   5.525   2.912
 4162TIP3    H212493   5.554   5.374   2.917
 4163TIP3   OH212494   0.776   4.465   2.049
 4163TIP3    H112495   0.846   4.507   2.099
 4163TIP3    H212496   0.738   4.402   2.111
 4164TIP3   OH212497   4.625   4.343   1.539
 4164TIP3    H112498   4.535   4.359   1.567
 4164TIP3    H212499   4.673   4.421   1.565
 4165TIP3   OH212500   0.404   5.743   3.532
 4165TIP3    H112501   0.456   5.685   3.475
 4165TIP3    H212502   0.436   5.724   3.620
 4166TIP3   OH212503   5.792   5.019   4.465
 4166TIP3    H112504   5.877   4.975   4.474
 4166TIP3    H212505   5.805   5.082   4.394
 4167TIP3   OH212506   5.385   5.067   1.432
 4167TIP3    H112507   5.340   5.010   1.495
 4167TIP3    H212508   5.377   5.155   1.469
 4168TIP3   OH212509   5.866   1.863   3.906
 4168TIP3    H112510   5.821   1.851   3.822
 4168TIP3    H212511   5.950   1.904   3.883
 4169TIP3   OH212512   0.032   1.686   0.448
 4169TIP3    H112513   0.026   1.757   0.384
 4169TIP3    H212514   0.046   1.731   0.532
 4170TIP3   OH212515   0.704   2.962   3.731
 4170TIP3    H112516   0.773   3.026   3.715
 4170TIP3    H212517   0.718   2.894   3.665
 4171TIP3   OH212518  -0.029   0.734   2.656
 4171TIP3    H112519   0.048   0.678   2.649
 4171TIP3    H212520  -0.021   0.796   2.583
 4172TIP3   OH212521   3.064   3.848   3.260
 4172TIP3    H112522   2.978   3.883   3.284
 4172TIP3    H212523   3.103   3.822   3.343
 4173TIP3   OH212524   1.450   4.678   4.999
 4173TIP3    H112525   1.355   4.684   4.990
 4173TIP3    H212526   1.466   4.594   5.041
 4174TIP3   OH212527   3.492   2.197   2.556
 4174TIP3    H112528   3.561   2.183   2.490
 4174TIP3    H212529   3.497   2.290   2.577
 4175TIP3   OH212530   3.981   5.068   4.770
 4175TIP3    H112531   3.956   5.160   4.760
 4175TIP3    H212532   4.037   5.051   4.694
 4176TIP3   OH212533   3.945   0.959   0.839
 4176TIP3    H112534   3.884   0.888   0.819
 4176TIP3    H212535   3.889   1.036   0.851
 4177TIP3   OH212536   1.596   5.162   1.089
 4177TIP3    H112537   1.632   5.177   1.001
 4177TIP3    H212538   1.630   5.234   1.141
 4178TIP3   OH212539   5.204   2.255   2.552
 4178TIP3    H112540   5.297   2.232   2.552
 4178TIP3    H212541   5.193   2.311   2.475
 4179TIP3   OH212542   6.156   0.368   1.714
 4179TIP3    H112543   6.108   0.434   1.665
 4179TIP3    H212544   6.161   0.293   1.655
 4180TIP3   OH212545   4.205   2.958   3.698
 4180TIP3    H112546   4.221   3.013   3.773
 4180TIP3    H212547   4.197   3.018   3.624
 4181TIP3   OH212548   3.534   0.888   1.363
 4181TIP3    H112549   3.567   0.900   1.452
 4181TIP3    H212550   3.613   0.896   1.308
 4182TIP3   OH212551   4.339   1.865   1.584
 4182TIP3    H112552   4.301   1.952   1.597
 4182TIP3    H212553   4.366   1.865   1.492
 4183TIP3   OH212554   5.914   0.510   3.577
 4183TIP3    H112555   5.997   0.540   3.613
 4183TIP3    H212556   5.918   0.534   3.484
 4184TIP3   OH212557   1.110   0.960   2.631
 4184TIP3    H112558   1.065   1.020   2.690
 4184TIP3    H212559   1.111   1.006   2.546
 4185TIP3   OH212560   5.915   4.246   2.173
 4185TIP3    H112561   5.966   4.208   2.102
 4185TIP3    H212562   5.967   4.320   2.203
 4186TIP3   OH212563   4.113   2.805   0.991
 4186TIP3    H112564   4.031   2.817   1.039
 4186TIP3    H212565   4.088   2.759   0.911
 4187TIP3   OH212566   3.359   2.888   3.757
 4187TIP3    H112567   3.338   2.857   3.845
 4187TIP3    H212568   3.453   2.907   3.760
 4188TIP3   OH212569   1.223   5.089   4.986
 4188TIP3    H112570   1.151   5.148   5.008
 4188TIP3    H212571   1.181   5.014   4.945
 4189TIP3   OH212572   1.210   1.278   2.503
 4189TIP3    H112573   1.219   1.262   2.597
 4189TIP3    H212574   1.128   1.326   2.494
 4190TIP3   OH212575   4.812   2.091   3.497
 4190TIP3    H112576   4.813   2.066   3.405
 4190TIP3    H212577   4.901   2.124   3.514
 4191TIP3   OH212578   0.054   1.358   2.597
 4191TIP3    H112579  -0.031   1.380   2.558
 4191TIP3    H212580   0.050   1.394   2.685
 4192TIP3   OH212581   2.346   2.794   5.053
 4192TIP3    H112582   2.433   2.756   5.064
 4192TIP3    H212583   2.361   2.887   5.039
 4193TIP3   OH212584   4.620   0.298   1.715
 4193TIP3    H112585   4.637   0.213   1.756
 4193TIP3    H212586   4.692   0.308   1.652
 4194TIP3   OH212587   4.062   0.861   3.038
 4194TIP3    H112588   4.082   0.954   3.024
 4194TIP3    H212589   4.135   0.815   2.997
 4195TIP3   OH212590   4.081   1.760   2.300
 4195TIP3    H112591   4.094   1.811   2.220
 4195TIP3    H212592   4.086   1.669   2.271
 4196TIP3   OH212593   2.235   3.114   0.322
 4196TIP3    H112594   2.165   3.090   0.383
 4196TIP3    H212595   2.250   3.207   0.338
 4197TIP3   OH212596   3.354   0.102   0.618
 4197TIP3    H112597   3.292   0.064   0.680
 4197TIP3    H212598   3.301   0.157   0.561
 4198TIP3   OH212599   0.855   5.569   2.977
 4198TIP3    H112600   0.931   5.524   2.940
 4198TIP3    H212601   0.790   5.570   2.907
 4199TIP3   OH212602   6.271   0.027   4.112
 4199TIP3    H112603   6.334   0.016   4.184
 4199TIP3    H212604   6.326   0.034   4.034
 4200TIP3   OH212605   5.042   1.823   3.110
 4200TIP3    H112606   5.048   1.893   3.045
 4200TIP3    H212607   5.117   1.837   3.167
 4201TIP3   OH212608   1.511   4.374   4.607
 4201TIP3    H112609   1.428   4.406   4.643
 4201TIP3    H212610   1.542   4.445   4.551
 4202TIP3   OH212611   0.808   3.225   1.886
 4202TIP3    H112612   0.841   3.313   1.904
 4202TIP3    H212613   0.746   3.208   1.957
 4203TIP3   OH212614   4.880   2.803   0.943
 4203TIP3    H112615   4.814   2.781   0.877
 4203TIP3    H212616   4.844   2.770   1.026
 4204TIP3   OH212617   4.702   4.798   1.847
 4204TIP3    H112618   4.702   4.876   1.791
 4204TIP3    H212619   4.787   4.756   1.830
 4205TIP3   OH212620   2.831   1.991   5.026
 4205TIP3    H112621   2.887   2.060   5.062
 4205TIP3    H212622   2.743   2.014   5.056
 4206TIP3   OH212623   3.788   1.117   3.067
 4206TIP3    H112624   3.803   1.117   3.161
 4206TIP3    H212625   3.699   1.150   3.057
 4207TIP3   OH212626   3.311   5.402   2.722
 4207TIP3    H112627   3.364   5.371   2.796
 4207TIP3    H212628   3.358   5.373   2.644
 4208TIP3   OH212629   1.559   1.833   4.882
 4208TIP3    H112630   1.484   1.844   4.940
 4208TIP3    H212631   1.635   1.853   4.937
 4209TIP3   OH212632   5.714   4.771   1.851
 4209TIP3    H112633   5.691   4.824   1.775
 4209TIP3    H212634   5.690   4.682   1.827
 4210TIP3   OH212635   2.420   0.729   4.983
 4210TIP3    H112636   2.502   0.711   4.939
 4210TIP3    H212637   2.357   0.671   4.941
 4211TIP3   OH212638   2.444   1.267   1.516
 4211TIP3    H112639   2.470   1.325   1.445
 4211TIP3    H212640   2.417   1.186   1.472
 4212TIP3   OH212641   4.735   5.050   4.442
 4212TIP3    H112642   4.728   4.989   4.369
 4212TIP3    H212643   4.768   5.131   4.403
 4213TIP3   OH212644   1.762   2.148   4.363
 4213TIP3    H112645   1.666   2.142   4.359
 4213TIP3    H212646   1.793   2.071   4.315
 4214TIP3   OH212647   3.219   5.393   3.048
 4214TIP3    H112648   3.135   5.358   3.018
 4214TIP3    H212649   3.285   5.343   2.999
 4215TIP3   OH212650   3.853   3.387   3.911
 4215TIP3    H112651   3.859   3.382   4.006
 4215TIP3    H212652   3.887   3.303   3.879
 4216TIP3   OH212653   1.093   0.283   0.282
 4216TIP3    H112654   1.119   0.194   0.307
 4216TIP3    H212655   1.168   0.318   0.235
 4217TIP3   OH212656   5.340   4.077   2.998
 4217TIP3    H112657   5.415   4.136   3.009
 4217TIP3    H212658   5.276   4.108   3.062
 4218TIP3   OH212659   1.648   0.932   2.396
 4218TIP3    H112660   1.693   0.850   2.417
 4218TIP3    H212661   1.584   0.907   2.330
 4219TIP3   OH212662   1.403   1.487   4.897
 4219TIP3    H112663   1.352   1.498   4.978
 4219TIP3    H212664   1.382   1.564   4.845
 4220TIP3   OH212665   0.236   4.179   2.491
 4220TIP3    H112666   0.172   4.245   2.520
 4220TIP3    H212667   0.226   4.175   2.396
 4221TIP3   OH212668   3.467   5.650   2.460
 4221TIP3    H112669   3.512   5.636   2.544
 4221TIP3    H212670   3.432   5.739   2.467
 4222TIP3   OH212671   0.950   3.586   2.829
 4222TIP3    H112672   0.969   3.674   2.796
 4222TIP3    H212673   1.021   3.568   2.890
 4223TIP3   OH212674   0.194   1.145   1.750
 4223TIP3    H112675   0.174   1.212   1.685
 4223TIP3    H212676   0.272   1.101   1.716
 4224TIP3   OH212677   5.548   0.107   1.548
 4224TIP3    H112678   5.510   0.135   1.631
 4224TIP3    H212679   5.594   0.026   1.568
 4225TIP3   OH212680   5.312   5.628   1.301
 4225TIP3    H112681   5.380   5.692   1.279
 4225TIP3    H212682   5.359   5.559   1.348
 4226TIP3   OH212683   2.665   3.405   1.714
 4226TIP3    H112684   2.753   3.396   1.748
 4226TIP3    H212685   2.610   3.357   1.776
 4227TIP3   OH212686   5.575   3.497   4.103
 4227TIP3    H112687   5.612   3.578   4.069
 4227TIP3    H212688   5.505   3.475   4.041
 4228TIP3   OH212689   5.674   5.608   0.044
 4228TIP3    H112690   5.583   5.583   0.057
 4228TIP3    H212691   5.707   5.545  -0.020
 4229TIP3   OH212692   3.307   1.215   0.815
 4229TIP3    H112693   3.341   1.284   0.872
 4229TIP3    H212694   3.365   1.140   0.830
 4230TIP3   OH212695   0.958   5.201   0.608
 4230TIP3    H112696   1.048   5.184   0.579
 4230TIP3    H212697   0.929   5.275   0.555
 4231TIP3   OH212698   0.929   0.134   3.573
 4231TIP3    H112699   1.000   0.195   3.592
 4231TIP3    H212700   0.966   0.048   3.593
 4232TIP3   OH212701   0.005   2.433   3.050
 4232TIP3    H112702   0.084   2.417   2.999
 4232TIP3    H212703   0.034   2.434   3.141
 4233TIP3   OH212704   4.225   5.855   0.644
 4233TIP3    H112705   4.302   5.876   0.697
 4233TIP3    H212706   4.223   5.922   0.577
 4234TIP3   OH212707   2.245   0.673   1.965
 4234TIP3    H112708   2.173   0.616   1.989
 4234TIP3    H212709   2.272   0.643   1.878
 4235TIP3   OH212710   2.743   0.664   3.955
 4235TIP3    H112711   2.837   0.668   3.975
 4235TIP3    H212712   2.740   0.631   3.865
 4236TIP3   OH212713   4.726   0.608   1.505
 4236TIP3    H112714   4.637   0.640   1.512
 4236TIP3    H212715   4.781   0.686   1.517
 4237TIP3   OH212716   3.563   4.487   3.667
 4237TIP3    H112717   3.595   4.446   3.748
 4237TIP3    H212718   3.514   4.418   3.623
 4238TIP3   OH212719   2.398   1.862   4.295
 4238TIP3    H112720   2.480   1.815   4.283
 4238TIP3    H212721   2.381   1.904   4.211
 4239TIP3   OH212722   5.470   1.398   3.292
 4239TIP3    H112723   5.422   1.339   3.234
 4239TIP3    H212724   5.446   1.486   3.262
 4240TIP3   OH212725   1.607   1.568   3.008
 4240TIP3    H112726   1.645   1.556   3.095
 4240TIP3    H212727   1.593   1.663   3.001
 4241TIP3   OH212728   0.840   4.623   1.787
 4241TIP3    H112729   0.778   4.644   1.856
 4241TIP3    H212730   0.791   4.568   1.726
 4242TIP3   OH212731   5.246   1.171   1.781
 4242TIP3    H112732   5.296   1.166   1.700
 4242TIP3    H212733   5.311   1.167   1.851
 4243TIP3   OH212734   6.166   4.159   1.254
 4243TIP3    H112735   6.231   4.125   1.316
 4243TIP3    H212736   6.117   4.224   1.305
 4244TIP3   OH212737   3.397   3.700   2.834
 4244TIP3    H112738   3.422   3.631   2.773
 4244TIP3    H212739   3.398   3.780   2.781
 4245TIP3   OH212740   3.934   2.252   1.865
 4245TIP3    H112741   4.028   2.266   1.881
 4245TIP3    H212742   3.890   2.297   1.937
 4246TIP3   OH212743   0.529   5.078   3.715
 4246TIP3    H112744   0.433   5.084   3.707
 4246TIP3    H212745   0.561   5.128   3.640
 4247TIP3   OH212746   0.746   4.600   4.207
 4247TIP3    H112747   0.772   4.691   4.222
 4247TIP3    H212748   0.705   4.601   4.120
 4248TIP3   OH212749   5.471   4.643   0.107
 4248TIP3    H112750   5.408   4.709   0.137
 4248TIP3    H212751   5.481   4.584   0.181
 4249TIP3   OH212752   1.930   5.850   3.646
 4249TIP3    H112753   1.835   5.852   3.634
 4249TIP3    H212754   1.965   5.854   3.557
 4250TIP3   OH212755   1.349   3.838   0.919
 4250TIP3    H112756   1.373   3.826   0.827
 4250TIP3    H212757   1.383   3.760   0.963
 4251TIP3   OH212758   5.854   4.210   0.520
 4251TIP3    H112759   5.919   4.275   0.496
 4251TIP3    H212760   5.785   4.218   0.453
 4252TIP3   OH212761   5.100   5.780   1.856
 4252TIP3    H112762   5.040   5.774   1.782
 4252TIP3    H212763   5.105   5.874   1.876
 4253TIP3   OH212764   4.820   1.726   3.248
 4253TIP3    H112765   4.854   1.732   3.338
 4253TIP3    H212766   4.895   1.747   3.193
 4254TIP3   OH212767   1.905   2.303   0.555
 4254TIP3    H112768   1.820   2.301   0.600
 4254TIP3    H212769   1.967   2.330   0.623
 4255TIP3   OH212770   5.330   4.248   0.431
 4255TIP3    H112771   5.354   4.159   0.405
 4255TIP3    H212772   5.264   4.235   0.499
 4256TIP3   OH212773   0.790   3.231   5.122
 4256TIP3    H112774   0.712   3.196   5.079
 4256TIP3    H212775   0.816   3.161   5.183
 4257TIP3   OH212776   5.808   4.503   1.403
 4257TIP3    H112777   5.899   4.477   1.384
 4257TIP3    H212778   5.805   4.596   1.383
 4258TIP3   OH212779   1.623   2.880   2.326
 4258TIP3    H112780   1.629   2.825   2.248
 4258TIP3    H212781   1.574   2.957   2.298
 4259TIP3   OH212782   4.544   1.770   4.033
 4259TIP3    H112783   4.533   1.713   3.957
 4259TIP3    H212784   4.631   1.749   4.067
 4260TIP3   OH212785   5.179   0.377   1.760
 4260TIP3    H112786   5.130   0.363   1.842
 4260TIP3    H212787   5.270   0.368   1.786
 4261TIP3   OH212788   1.800   2.175   0.143
 4261TIP3    H112789   1.869   2.226   0.185
 4261TIP3    H212790   1.845   2.127   0.074
 4262TIP3   OH212791   5.679   0.208   0.032
 4262TIP3    H112792   5.644   0.291   0.062
 4262TIP3    H212793   5.758   0.194   0.084
 4263TIP3   OH212794   3.049   0.140   0.285
 4263TIP3    H112795   3.062   0.148   0.380
 4263TIP3    H212796   3.006   0.222   0.260
 4264TIP3   OH212797   4.728   3.004   1.105
 4264TIP3    H112798   4.685   3.072   1.054
 4264TIP3    H212799   4.659   2.968   1.160
 4265TIP3   OH212800   5.365   3.828   1.834
 4265TIP3    H112801   5.452   3.817   1.795
 4265TIP3    H212802   5.304   3.807   1.763
 4266TIP3   OH212803   2.169   2.436   4.661
 4266TIP3    H112804   2.130   2.362   4.706
 4266TIP3    H212805   2.096   2.481   4.619
 4267TIP3   OH212806   1.026   2.703   3.272
 4267TIP3    H112807   1.036   2.713   3.178
 4267TIP3    H212808   1.067   2.781   3.309
 4268TIP3   OH212809   5.125   2.925   5.035
 4268TIP3    H112810   5.127   2.915   5.130
 4268TIP3    H212811   5.113   3.019   5.021
 4269TIP3   OH212812   1.080   3.693   4.471
 4269TIP3    H112813   1.056   3.627   4.535
 4269TIP3    H212814   1.160   3.733   4.506
 4270TIP3   OH212815   4.171   2.107   1.602
 4270TIP3    H112816   4.102   2.159   1.561
 4270TIP3    H212817   4.196   2.157   1.680
 4271TIP3   OH212818   5.619   1.182   0.199
 4271TIP3    H112819   5.694   1.242   0.199
 4271TIP3    H212820   5.616   1.146   0.111
 4272TIP3   OH212821   1.397   2.484   4.260
 4272TIP3    H112822   1.427   2.443   4.180
 4272TIP3    H212823   1.336   2.552   4.232
 4273TIP3   OH212824   0.384   5.289   1.389
 4273TIP3    H112825   0.406   5.338   1.468
 4273TIP3    H212826   0.458   5.303   1.330
 4274TIP3   OH212827   3.560   5.223   3.908
 4274TIP3    H112828   3.509   5.255   3.983
 4274TIP3    H212829   3.573   5.301   3.854
 4275TIP3   OH212830   1.698   4.916   2.392
 4275TIP3    H112831   1.633   4.971   2.349
 4275TIP3    H212832   1.671   4.826   2.370
 4276TIP3   OH212833   3.105   0.657   1.811
 4276TIP3    H112834   3.142   0.594   1.749
 4276TIP3    H212835   3.016   0.627   1.826
 4277TIP3   OH212836   4.929   2.469   4.894
 4277TIP3    H112837   5.015   2.440   4.861
 4277TIP3    H212838   4.926   2.563   4.873
 4278TIP3   OH212839   4.106   1.015   0.497
 4278TIP3    H112840   4.155   1.094   0.521
 4278TIP3    H212841   4.030   1.047   0.449
 4279TIP3   OH212842   1.834   0.137   0.831
 4279TIP3    H112843   1.806   0.131   0.922
 4279TIP3    H212844   1.930   0.142   0.835
 4280TIP3   OH212845   3.632   5.861   0.462
 4280TIP3    H112846   3.613   5.859   0.556
 4280TIP3    H212847   3.648   5.954   0.443
 4281TIP3   OH212848   4.377   0.591   2.685
 4281TIP3    H112849   4.297   0.541   2.670
 4281TIP3    H212850   4.394   0.634   2.601
 4282TIP3   OH212851   1.633   2.897   4.569
 4282TIP3    H112852   1.673   2.963   4.626
 4282TIP3    H212853   1.697   2.826   4.565
 4283TIP3   OH212854   4.503   0.894   3.668
 4283TIP3    H112855   4.583   0.945   3.662
 4283TIP3    H212856   4.434   0.954   3.642
 4284TIP3   OH212857   2.373   0.888   2.082
 4284TIP3    H112858   2.345   0.819   2.022
 4284TIP3    H212859   2.444   0.932   2.037
 4285TIP3   OH212860   5.127   4.949   0.908
 4285TIP3    H112861   5.141   4.876   0.848
 4285TIP3    H212862   5.072   5.010   0.858
 4286TIP3   OH212863   0.725   0.704   4.261
 4286TIP3    H112864   0.737   0.777   4.200
 4286TIP3    H212865   0.633   0.710   4.288
 4287TIP3   OH212866   1.443   2.501   3.717
 4287TIP3    H112867   1.449   2.407   3.699
 4287TIP3    H212868   1.485   2.543   3.642
 4288TIP3   OH212869   2.543   1.625   0.796
 4288TIP3    H112870   2.544   1.544   0.847
 4288TIP3    H212871   2.519   1.692   0.858
 4289TIP3   OH212872   1.852   2.668   1.228
 4289TIP3    H112873   1.825   2.758   1.249
 4289TIP3    H212874   1.773   2.616   1.242
 4290TIP3   OH212875   2.324   3.564   3.784
 4290TIP3    H112876   2.346   3.545   3.693
 4290TIP3    H212877   2.356   3.653   3.799
 4291TIP3   OH212878   4.091   1.529   4.773
 4291TIP3    H112879   4.167   1.565   4.819
 4291TIP3    H212880   4.105   1.434   4.774
 4292TIP3   OH212881   1.917   2.331   4.715
 4292TIP3    H112882   1.881   2.292   4.795
 4292TIP3    H212883   1.853   2.399   4.691
 4293TIP3   OH212884   2.298   2.666   3.881
 4293TIP3    H112885   2.235   2.622   3.938
 4293TIP3    H212886   2.262   2.656   3.793
 4294TIP3   OH212887   5.138   2.096   2.812
 4294TIP3    H112888   5.191   2.087   2.733
 4294TIP3    H212889   5.202   2.099   2.883
 4295TIP3   OH212890   6.226   0.809   2.397
 4295TIP3    H112891   6.156   0.762   2.353
 4295TIP3    H212892   6.299   0.805   2.335
 4296TIP3   OH212893   3.063   4.467   1.172
 4296TIP3    H112894   3.037   4.397   1.232
 4296TIP3    H212895   3.151   4.492   1.201
 4297TIP3   OH212896   5.472   4.158   1.793
 4297TIP3    H112897   5.454   4.238   1.743
 4297TIP3    H212898   5.467   4.088   1.728
 4298TIP3   OH212899   6.113   0.107   4.374
 4298TIP3    H112900   6.104   0.135   4.282
 4298TIP3    H212901   6.044   0.155   4.419
 4299TIP3   OH212902   5.844   0.923   3.694
 4299TIP3    H112903   5.908   0.869   3.740
 4299TIP3    H212904   5.792   0.861   3.643
 4300TIP3   OH212905   3.747   2.897   4.687
 4300TIP3    H112906   3.706   2.958   4.625
 4300TIP3    H212907   3.760   2.948   4.767
 4301TIP3   OH212908   0.281   4.609   3.577
 4301TIP3    H112909   0.283   4.580   3.668
 4301TIP3    H212910   0.257   4.702   3.581
 4302TIP3   OH212911   6.245   0.725   1.702
 4302TIP3    H112912   6.306   0.761   1.638
 4302TIP3    H212913   6.299   0.705   1.779
 4303TIP3   OH212914   1.166   5.492   3.145
 4303TIP3    H112915   1.125   5.574   3.172
 4303TIP3    H212916   1.168   5.438   3.224
 4304TIP3   OH212917   1.844   3.411   3.795
 4304TIP3    H112918   1.912   3.478   3.784
 4304TIP3    H212919   1.826   3.381   3.706
 4305TIP3   OH212920   3.074   4.479   2.251
 4305TIP3    H112921   3.033   4.423   2.185
 4305TIP3    H212922   3.063   4.567   2.216
 4306TIP3   OH212923   1.845   5.425   3.162
 4306TIP3    H112924   1.923   5.465   3.123
 4306TIP3    H212925   1.807   5.374   3.092
 4307TIP3   OH212926   0.873   4.304   2.946
 4307TIP3    H112927   0.808   4.237   2.924
 4307TIP3    H212928   0.953   4.276   2.900
 4308TIP3   OH212929   4.632   4.515   2.348
 4308TIP3    H112930   4.725   4.517   2.370
 4308TIP3    H212931   4.622   4.585   2.283
 4309TIP3   OH212932   4.770   3.513   0.869
 4309TIP3    H112933   4.688   3.555   0.893
 4309TIP3    H212934   4.837   3.562   0.917
 4310TIP3   OH212935   5.990   3.076   4.355
 4310TIP3    H112936   5.918   3.070   4.417
 4310TIP3    H212937   6.017   3.168   4.358
 4311TIP3   OH212938   2.325   2.740   4.261
 4311TIP3    H112939   2.390   2.670   4.272
 4311TIP3    H212940   2.363   2.798   4.195
 4312TIP3   OH212941   3.042   0.975   0.235
 4312TIP3    H112942   3.103   1.028   0.288
 4312TIP3    H212943   3.079   0.887   0.237
 4313TIP3   OH212944   3.722   1.460   4.320
 4313TIP3    H112945   3.789   1.417   4.267
 4313TIP3    H212946   3.656   1.393   4.336
 4314TIP3   OH212947   1.850   4.463   2.674
 4314TIP3    H112948   1.785   4.392   2.679
 4314TIP3    H212949   1.893   4.449   2.589
 4315TIP3   OH212950   0.571   4.496   5.180
 4315TIP3    H112951   0.663   4.519   5.195
 4315TIP3    H212952   0.555   4.521   5.089
 4316TIP3   OH212953   5.459   1.022   1.916
 4316TIP3    H112954   5.449   0.941   1.865
 4316TIP3    H212955   5.545   1.013   1.957
 4317TIP3   OH212956   2.566   5.295   1.640
 4317TIP3    H112957   2.577   5.209   1.680
 4317TIP3    H212958   2.544   5.353   1.713
 4318TIP3   OH212959   4.232   3.320   1.994
 4318TIP3    H112960   4.184   3.294   2.072
 4318TIP3    H212961   4.199   3.263   1.925
 4319TIP3   OH212962   4.353   0.774   0.197
 4319TIP3    H112963   4.401   0.856   0.200
 4319TIP3    H212964   4.389   0.727   0.122
 4320TIP3   OH212965   4.082   2.384   3.521
 4320TIP3    H112966   4.166   2.339   3.530
 4320TIP3    H212967   4.042   2.377   3.608
 4321TIP3   OH212968   0.633   5.498   2.261
 4321TIP3    H112969   0.592   5.583   2.278
 4321TIP3    H212970   0.624   5.450   2.343
 4322TIP3   OH212971   5.930   4.237   0.879
 4322TIP3    H112972   5.957   4.146   0.887
 4322TIP3    H212973   5.862   4.248   0.945
 4323TIP3   OH212974   2.013   3.024   2.052
 4323TIP3    H112975   1.929   3.015   2.008
 4323TIP3    H212976   2.071   3.063   1.987
 4324TIP3   OH212977   2.691   5.328   4.325
 4324TIP3    H112978   2.634   5.328   4.249
 4324TIP3    H212979   2.670   5.248   4.372
 4325TIP3   OH212980   2.471   4.809   3.380
 4325TIP3    H112981   2.486   4.896   3.418
 4325TIP3    H212982   2.383   4.815   3.342
 4326TIP3   OH212983   1.992   5.215   0.354
 4326TIP3    H112984   1.960   5.254   0.436
 4326TIP3    H212985   1.993   5.288   0.292
 4327TIP3   OH212986   2.051   1.994   2.009
 4327TIP3    H112987   2.111   1.961   1.942
 4327TIP3    H212988   2.026   1.917   2.060
 4328TIP3   OH212989   1.496   0.533   0.982
 4328TIP3    H112990   1.573   0.583   0.954
 4328TIP3    H212991   1.514   0.444   0.953
 4329TIP3   OH212992   5.036   3.370   2.005
 4329TIP3    H112993   4.982   3.402   1.933
 4329TIP3    H212994   5.010   3.423   2.080
 4330TIP3   OH212995   3.474   1.616   2.442
 4330TIP3    H112996   3.424   1.669   2.380
 4330TIP3    H212997   3.535   1.678   2.482
 4331TIP3   OH212998   1.081   2.530   1.440
 4331TIP3    H112999   1.069   2.577   1.357
 4331TIP3    H213000   1.077   2.438   1.416
 4332TIP3   OH213001   0.679   0.093   4.529
 4332TIP3    H113002   0.592   0.075   4.492
 4332TIP3    H213003   0.667   0.087   4.624
 4333TIP3   OH213004   4.617   2.183   2.138
 4333TIP3    H113005   4.567   2.154   2.061
 4333TIP3    H213006   4.708   2.163   2.116
 4334TIP3   OH213007   2.918   5.497   1.526
 4334TIP3    H113008   3.013   5.509   1.527
 4334TIP3    H213009   2.904   5.416   1.476
 4335TIP3   OH213010   4.573   1.626   3.540
 4335TIP3    H113011   4.545   1.651   3.628
 4335TIP3    H213012   4.492   1.610   3.493
 4336TIP3   OH213013   3.445   4.535   2.758
 4336TIP3    H113014   3.515   4.494   2.707
 4336TIP3    H213015   3.489   4.603   2.809
 4337TIP3   OH213016   5.652   4.956   2.082
 4337TIP3    H113017   5.700   4.880   2.051
 4337TIP3    H213018   5.690   4.976   2.168
 4338TIP3   OH213019   2.292   0.481   0.050
 4338TIP3    H113020   2.289   0.390   0.079
 4338TIP3    H213021   2.202   0.504   0.030
 4339TIP3   OH213022   5.794   1.589   4.471
 4339TIP3    H113023   5.817   1.496   4.478
 4339TIP3    H213024   5.769   1.601   4.380
 4340TIP3   OH213025   2.526   0.700   0.846
 4340TIP3    H113026   2.537   0.609   0.873
 4340TIP3    H213027   2.451   0.699   0.786
 4341TIP3   OH213028   4.287   2.288   4.350
 4341TIP3    H113029   4.305   2.378   4.377
 4341TIP3    H213030   4.369   2.241   4.363
 4342TIP3   OH213031   1.575   2.006   3.688
 4342TIP3    H113032   1.578   2.027   3.594
 4342TIP3    H213033   1.645   2.059   3.726
 4343TIP3   OH213034   5.583   4.779   3.667
 4343TIP3    H113035   5.513   4.813   3.723
 4343TIP3    H213036   5.634   4.857   3.643
 4344TIP3   OH213037   4.839   4.596   4.577
 4344TIP3    H113038   4.817   4.516   4.626
 4344TIP3    H213039   4.921   4.625   4.616
 4345TIP3   OH213040   5.192   5.339   0.476
 4345TIP3    H113041   5.198   5.251   0.512
 4345TIP3    H213042   5.221   5.396   0.547
 4346TIP3   OH213043   1.609   1.149   0.290
 4346TIP3    H113044   1.544   1.119   0.226
 4346TIP3    H213045   1.693   1.131   0.248
 4347TIP3   OH213046   5.677   0.848   1.734
 4347TIP3    H113047   5.770   0.832   1.716
 4347TIP3    H213048   5.670   0.943   1.743
 4348TIP3   OH213049   5.594   1.203   4.604
 4348TIP3    H113050   5.535   1.276   4.623
 4348TIP3    H213051   5.571   1.137   4.669
 4349TIP3   OH213052   5.708   5.531   4.705
 4349TIP3    H113053   5.656   5.611   4.702
 4349TIP3    H213054   5.760   5.539   4.785
 4350TIP3   OH213055   5.408   5.918   2.111
 4350TIP3    H113056   5.354   5.849   2.149
 4350TIP3    H213057   5.496   5.903   2.146
 4351TIP3   OH213058   5.089   4.560   1.084
 4351TIP3    H113059   5.176   4.579   1.050
 4351TIP3    H213060   5.097   4.570   1.179
 4352TIP3   OH213061   2.212   2.476   0.560
 4352TIP3    H113062   2.276   2.546   0.576
 4352TIP3    H213063   2.193   2.441   0.647
 4353TIP3   OH213064   5.812   5.615   2.751
 4353TIP3    H113065   5.905   5.605   2.733
 4353TIP3    H213066   5.801   5.708   2.772
 4354TIP3   OH213067   2.956   1.240   2.039
 4354TIP3    H113068   3.050   1.257   2.044
 4354TIP3    H213069   2.943   1.161   2.092
 4355TIP3   OH213070   6.230   2.099   2.650
 4355TIP3    H113071   6.204   2.111   2.559
 4355TIP3    H213072   6.196   2.013   2.674
 4356TIP3   OH213073   0.277   0.727   1.054
 4356TIP3    H113074   0.224   0.804   1.031
 4356TIP3    H213075   0.281   0.729   1.150
 4357TIP3   OH213076   6.272   3.713   0.805
 4357TIP3    H113077   6.284   3.807   0.819
 4357TIP3    H213078   6.342   3.688   0.745
 4358TIP3   OH213079   3.534   0.552   0.908
 4358TIP3    H113080   3.530   0.535   0.814
 4358TIP3    H213081   3.463   0.614   0.925
 4359TIP3   OH213082   1.592   5.699   0.113
 4359TIP3    H113083   1.506   5.659   0.116
 4359TIP3    H213084   1.602   5.741   0.199
 4360TIP3   OH213085   6.055   4.382   3.134
 4360TIP3    H113086   6.067   4.462   3.083
 4360TIP3    H213087   6.063   4.311   3.070
 4361TIP3   OH213088   0.866   4.734   2.878
 4361TIP3    H113089   0.790   4.710   2.824
 4361TIP3    H213090   0.846   4.699   2.965
 4362TIP3   OH213091   1.677   0.678   2.069
 4362TIP3    H113092   1.697   0.590   2.100
 4362TIP3    H213093   1.750   0.732   2.102
 4363TIP3   OH213094   5.209   2.444   4.091
 4363TIP3    H113095   5.254   2.526   4.114
 4363TIP3    H213096   5.140   2.435   4.156
 4364TIP3   OH213097   3.692   0.103   2.099
 4364TIP3    H113098   3.624   0.131   2.160
 4364TIP3    H213099   3.773   0.109   2.150
 4365TIP3   OH213100   0.896   4.415   2.379
 4365TIP3    H113101   0.922   4.369   2.299
 4365TIP3    H213102   0.880   4.505   2.351
 4366TIP3   OH213103   1.775   3.122   4.182
 4366TIP3    H113104   1.763   3.188   4.114
 4366TIP3    H213105   1.690   3.118   4.226
 4367TIP3   OH213106   1.025   2.195   4.208
 4367TIP3    H113107   0.933   2.170   4.206
 4367TIP3    H213108   1.032   2.270   4.148
 4368TIP3   OH213109   1.427   0.282   3.682
 4368TIP3    H113110   1.513   0.252   3.654
 4368TIP3    H213111   1.389   0.321   3.603
 4369TIP3   OH213112   4.662   4.534   3.591
 4369TIP3    H113113   4.568   4.553   3.583
 4369TIP3    H213114   4.705   4.612   3.556
 4370TIP3   OH213115   1.187   4.772   4.041
 4370TIP3    H113116   1.104   4.737   4.074
 4370TIP3    H213117   1.174   4.782   3.947
 4371TIP3   OH213118   6.095   3.500   4.614
 4371TIP3    H113119   6.089   3.413   4.654
 4371TIP3    H213120   6.189   3.518   4.611
 4372TIP3   OH213121   5.924   3.781   1.264
 4372TIP3    H113122   5.943   3.818   1.350
 4372TIP3    H213123   6.009   3.750   1.232
 4373TIP3   OH213124   4.586   3.501   2.159
 4373TIP3    H113125   4.601   3.595   2.161
 4373TIP3    H213126   4.575   3.480   2.067
 4374TIP3   OH213127   5.283   2.453   3.551
 4374TIP3    H113128   5.303   2.381   3.492
 4374TIP3    H213129   5.368   2.482   3.584
 4375TIP3   OH213130   3.692   3.844   2.711
 4375TIP3    H113131   3.647   3.855   2.795
 4375TIP3    H213132   3.763   3.909   2.713
 4376TIP3   OH213133   5.236   5.426   2.951
 4376TIP3    H113134   5.317   5.407   2.904
 4376TIP3    H213135   5.196   5.340   2.967
 4377TIP3   OH213136   0.852   3.403   1.470
 4377TIP3    H113137   0.931   3.447   1.500
 4377TIP3    H213138   0.883   3.321   1.431
 4378TIP3   OH213139   4.701   4.140   3.734
 4378TIP3    H113140   4.696   4.049   3.761
 4378TIP3    H213141   4.683   4.138   3.640
 4379TIP3   OH213142   1.459   3.687   5.008
 4379TIP3    H113143   1.454   3.708   5.102
 4379TIP3    H213144   1.491   3.597   5.006
 4380TIP3   OH213145   4.935   4.109   3.391
 4380TIP3    H113146   4.982   4.094   3.473
 4380TIP3    H213147   4.905   4.200   3.397
 4381TIP3   OH213148   5.658   0.361   1.736
 4381TIP3    H113149   5.708   0.300   1.682
 4381TIP3    H213150   5.636   0.433   1.678
 4382TIP3   OH213151   4.801   3.465   2.603
 4382TIP3    H113152   4.728   3.498   2.550
 4382TIP3    H213153   4.852   3.542   2.626
 4383TIP3   OH213154   0.702   5.780   1.215
 4383TIP3    H113155   0.754   5.711   1.257
 4383TIP3    H213156   0.766   5.840   1.179
 4384TIP3   OH213157   2.945   5.762   3.001
 4384TIP3    H113158   3.030   5.722   3.020
 4384TIP3    H213159   2.935   5.829   3.068
 4385TIP3   OH213160   4.534   2.776   3.223
 4385TIP3    H113161   4.510   2.861   3.261
 4385TIP3    H213162   4.627   2.785   3.202
 4386TIP3   OH213163   0.361   5.814   4.831
 4386TIP3    H113164   0.406   5.860   4.901
 4386TIP3    H213165   0.429   5.764   4.787
 4387TIP3   OH213166   0.592   5.383   2.968
 4387TIP3    H113167   0.545   5.319   3.022
 4387TIP3    H213168   0.659   5.419   3.026
 4388TIP3   OH213169   2.615   2.670   5.069
 4388TIP3    H113170   2.664   2.618   5.132
 4388TIP3    H213171   2.634   2.761   5.092
 4389TIP3   OH213172   2.730   4.937   2.080
 4389TIP3    H113173   2.789   4.878   2.128
 4389TIP3    H213174   2.788   5.001   2.040
 4390TIP3   OH213175   3.726   3.947   1.167
 4390TIP3    H113176   3.795   3.964   1.104
 4390TIP3    H213177   3.645   3.952   1.117
 4391TIP3   OH213178   3.018   1.441   1.746
 4391TIP3    H113179   3.093   1.404   1.793
 4391TIP3    H213180   3.030   1.536   1.751
 4392TIP3   OH213181   1.621   0.577   4.156
 4392TIP3    H113182   1.584   0.536   4.078
 4392TIP3    H213183   1.663   0.506   4.203
 4393TIP3   OH213184   0.937   4.741   0.750
 4393TIP3    H113185   1.019   4.789   0.761
 4393TIP3    H213186   0.920   4.744   0.655
 4394TIP3   OH213187   3.403   1.029   1.164
 4394TIP3    H113188   3.455   1.109   1.173
 4394TIP3    H213189   3.436   0.970   1.232
 4395TIP3   OH213190   0.606   5.256   1.191
 4395TIP3    H113191   0.660   5.178   1.200
 4395TIP3    H213192   0.658   5.315   1.136
 4396TIP3   OH213193   5.959   3.934   1.961
 4396TIP3    H113194   6.017   4.010   1.967
 4396TIP3    H213195   5.893   3.957   1.896
 4397TIP3   OH213196   4.526   2.265   3.375
 4397TIP3    H113197   4.603   2.210   3.369
 4397TIP3    H213198   4.456   2.206   3.403
 4398TIP3   OH213199   5.556   1.414   2.569
 4398TIP3    H113200   5.496   1.356   2.521
 4398TIP3    H213201   5.546   1.499   2.526
 4399TIP3   OH213202   2.281   4.317   2.654
 4399TIP3    H113203   2.221   4.361   2.715
 4399TIP3    H213204   2.229   4.306   2.574
 4400TIP3   OH213205   6.176   2.972   0.991
 4400TIP3    H113206   6.228   3.053   0.998
 4400TIP3    H213207   6.179   2.934   1.078
 4401TIP3   OH213208   4.343   2.658   1.741
 4401TIP3    H113209   4.354   2.721   1.671
 4401TIP3    H213210   4.268   2.691   1.792
 4402TIP3   OH213211   2.293   5.882   1.728
 4402TIP3    H113212   2.214   5.855   1.681
 4402TIP3    H213213   2.283   5.976   1.742
 4403TIP3   OH213214   2.508   3.908   1.692
 4403TIP3    H113215   2.414   3.901   1.709
 4403TIP3    H213216   2.518   3.878   1.602
 4404TIP3   OH213217   2.610   2.430   0.033
 4404TIP3    H113218   2.636   2.366   0.100
 4404TIP3    H213219   2.691   2.477   0.012
 4405TIP3   OH213220   0.840   0.631   0.717
 4405TIP3    H113221   0.792   0.680   0.785
 4405TIP3    H213222   0.773   0.610   0.652
 4406TIP3   OH213223   1.350   1.860   3.540
 4406TIP3    H113224   1.372   1.895   3.626
 4406TIP3    H213225   1.429   1.814   3.512
 4407TIP3   OH213226   6.346   5.834   1.006
 4407TIP3    H113227   6.279   5.767   0.992
 4407TIP3    H213228   6.319   5.879   1.087
 4408TIP3   OH213229   4.697   0.232   0.843
 4408TIP3    H113230   4.602   0.240   0.832
 4408TIP3    H213231   4.727   0.321   0.862
 4409TIP3   OH213232   6.166   5.698   0.693
 4409TIP3    H113233   6.248   5.746   0.685
 4409TIP3    H213234   6.110   5.736   0.626
 4410TIP3   OH213235   4.167   0.052   2.973
 4410TIP3    H113236   4.108   0.117   3.011
 4410TIP3    H213237   4.239   0.045   3.036
 4411TIP3   OH213238   5.856   1.324   4.606
 4411TIP3    H113239   5.781   1.270   4.632
 4411TIP3    H213240   5.891   1.358   4.689
 4412TIP3   OH213241   4.756   1.069   4.582
 4412TIP3    H113242   4.772   0.980   4.549
 4412TIP3    H213243   4.824   1.122   4.540
 4413TIP3   OH213244   0.766   3.986   4.060
 4413TIP3    H113245   0.816   3.975   4.141
 4413TIP3    H213246   0.686   3.935   4.075
 4414TIP3   OH213247   1.622   2.056   0.376
 4414TIP3    H113248   1.567   1.995   0.425
 4414TIP3    H213249   1.693   2.078   0.436
 4415TIP3   OH213250   6.290   4.868   3.612
 4415TIP3    H113251   6.247   4.783   3.613
 4415TIP3    H213252   6.221   4.931   3.632
 4416TIP3   OH213253   3.714   3.307   4.814
 4416TIP3    H113254   3.731   3.297   4.907
 4416TIP3    H213255   3.653   3.380   4.808
 4417TIP3   OH213256   3.082   5.088   1.042
 4417TIP3    H113257   3.018   5.018   1.050
 4417TIP3    H213258   3.064   5.126   0.956
 4418TIP3   OH213259   1.915   0.766   0.760
 4418TIP3    H113260   1.912   0.673   0.785
 4418TIP3    H213261   1.878   0.768   0.672
 4419TIP3   OH213262   3.403   1.371   4.067
 4419TIP3    H113263   3.484   1.400   4.025
 4419TIP3    H213264   3.427   1.356   4.158
 4420TIP3   OH213265   5.885   3.889   2.914
 4420TIP3    H113266   5.854   3.869   2.825
 4420TIP3    H213267   5.810   3.929   2.957
 4421TIP3   OH213268   0.422   1.038   3.702
 4421TIP3    H113269   0.337   1.047   3.745
 4421TIP3    H213270   0.480   1.097   3.751
 4422TIP3   OH213271   6.124   1.919   3.512
 4422TIP3    H113272   6.121   1.830   3.477
 4422TIP3    H213273   6.146   1.907   3.605
 4423TIP3   OH213274   2.100   2.882   4.196
 4423TIP3    H113275   2.173   2.823   4.216
 4423TIP3    H213276   2.044   2.832   4.137
 4424TIP3   OH213277   2.217   5.935   2.537
 4424TIP3    H113278   2.265   5.994   2.596
 4424TIP3    H213279   2.125   5.952   2.557
 4425TIP3   OH213280   2.686   0.663   4.954
 4425TIP3    H113281   2.682   0.745   4.905
 4425TIP3    H213282   2.771   0.666   4.998
 4426TIP3   OH213283   6.096   2.386   3.668
 4426TIP3    H113284   6.055   2.410   3.751
 4426TIP3    H213285   6.188   2.374   3.689
 4427TIP3   OH213286   6.051   4.713   4.003
 4427TIP3    H113287   5.994   4.747   3.934
 4427TIP3    H213288   6.126   4.677   3.956
 4428TIP3   OH213289   1.512   4.115   4.407
 4428TIP3    H113290   1.505   4.175   4.482
 4428TIP3    H213291   1.589   4.148   4.359
 4429TIP3   OH213292   2.417   5.099  -0.005
 4429TIP3    H113293   2.483   5.063   0.054
 4429TIP3    H213294   2.393   5.183   0.035
 4430TIP3   OH213295   1.760   5.196   3.599
 4430TIP3    H113296   1.829   5.247   3.557
 4430TIP3    H213297   1.795   5.107   3.602
 4431TIP3   OH213298   2.491   0.579   1.555
 4431TIP3    H113299   2.464   0.668   1.533
 4431TIP3    H213300   2.586   0.580   1.545
 4432TIP3   OH213301   3.429   1.985   1.575
 4432TIP3    H113302   3.408   2.041   1.650
 4432TIP3    H213303   3.362   1.916   1.576
 4433TIP3   OH213304   0.056   2.402   1.359
 4433TIP3    H113305   0.134   2.347   1.367
 4433TIP3    H213306   0.083   2.472   1.299
 4434TIP3   OH213307   4.320   3.105   3.888
 4434TIP3    H113308   4.264   3.160   3.942
 4434TIP3    H213309   4.388   3.073   3.948
 4435TIP3   OH213310   5.286   1.750   1.677
 4435TIP3    H113311   5.227   1.753   1.753
 4435TIP3    H213312   5.236   1.703   1.610
 4436TIP3   OH213313   4.671   0.970   4.249
 4436TIP3    H113314   4.764   0.995   4.253
 4436TIP3    H213315   4.671   0.875   4.252
 4437TIP3   OH213316   0.869   4.013   3.817
 4437TIP3    H113317   0.877   3.935   3.762
 4437TIP3    H213318   0.825   3.983   3.896
 4438TIP3   OH213319   0.667   4.877   2.241
 4438TIP3    H113320   0.632   4.952   2.288
 4438TIP3    H213321   0.762   4.882   2.256
 4439TIP3   OH213322   5.097   0.238   4.585
 4439TIP3    H113323   5.047   0.221   4.505
 4439TIP3    H213324   5.050   0.190   4.653
 4440TIP3   OH213325   2.628   0.616   3.370
 4440TIP3    H113326   2.618   0.607   3.275
 4440TIP3    H213327   2.712   0.574   3.389
 4441TIP3   OH213328   3.629   3.353   3.246
 4441TIP3    H113329   3.601   3.266   3.272
 4441TIP3    H213330   3.678   3.339   3.164
 4442TIP3   OH213331   4.355   0.444   3.135
 4442TIP3    H113332   4.359   0.540   3.132
 4442TIP3    H213333   4.371   0.422   3.226
 4443TIP3   OH213334   0.866   5.216   4.808
 4443TIP3    H113335   0.822   5.181   4.730
 4443TIP3    H213336   0.872   5.142   4.868
 4444TIP3   OH213337   3.023   3.657   4.030
 4444TIP3    H113338   2.950   3.718   4.037
 4444TIP3    H213339   3.062   3.656   4.118
 4445TIP3   OH213340   1.729   5.961   4.053
 4445TIP3    H113341   1.636   5.947   4.072
 4445TIP3    H213342   1.754   6.034   4.110
 4446TIP3   OH213343   0.103   5.435   1.840
 4446TIP3    H113344   0.113   5.469   1.751
 4446TIP3    H213345   0.015   5.461   1.867
 4447TIP3   OH213346   0.961   1.491   5.088
 4447TIP3    H113347   0.880   1.520   5.130
 4447TIP3    H213348   0.938   1.406   5.049
 4448TIP3   OH213349   1.928   3.032   3.672
 4448TIP3    H113350   1.848   2.993   3.708
 4448TIP3    H213351   1.897   3.107   3.622
 4449TIP3   OH213352   0.444   1.635   3.373
 4449TIP3    H113353   0.527   1.682   3.365
 4449TIP3    H213354   0.381   1.691   3.328
 4450TIP3   OH213355   3.379   4.846   2.639
 4450TIP3    H113356   3.426   4.831   2.721
 4450TIP3    H213357   3.298   4.796   2.648
 4451TIP3   OH213358   6.180   3.115   3.441
 4451TIP3    H113359   6.095   3.088   3.476
 4451TIP3    H213360   6.223   3.033   3.418
 4452TIP3   OH213361   0.692   4.895   4.144
 4452TIP3    H113362   0.618   4.837   4.128
 4452TIP3    H213363   0.700   4.947   4.064
 4453TIP3   OH213364   4.182   3.696   0.062
 4453TIP3    H113365   4.276   3.713   0.063
 4453TIP3    H213366   4.157   3.695   0.154
 4454TIP3   OH213367   3.876   2.676   1.438
 4454TIP3    H113368   3.837   2.731   1.507
 4454TIP3    H213369   3.942   2.732   1.398
 4455TIP3   OH213370   6.189   0.428   1.988
 4455TIP3    H113371   6.176   0.438   1.894
 4455TIP3    H213372   6.121   0.366   2.014
 4456TIP3   OH213373   5.403   4.809   1.193
 4456TIP3    H113374   5.366   4.890   1.157
 4456TIP3    H213375   5.497   4.822   1.189
 4457TIP3   OH213376   2.508   4.222   4.709
 4457TIP3    H113377   2.454   4.284   4.758
 4457TIP3    H213378   2.570   4.188   4.774
 4458TIP3   OH213379   4.219   0.038   1.133
 4458TIP3    H113380   4.143   0.018   1.187
 4458TIP3    H213381   4.185   0.046   1.044
 4459TIP3   OH213382   2.622   0.516   0.550
 4459TIP3    H113383   2.692   0.579   0.566
 4459TIP3    H213384   2.542   0.564   0.569
 4460TIP3   OH213385   2.563   5.086   1.833
 4460TIP3    H113386   2.512   5.018   1.789
 4460TIP3    H213387   2.596   5.044   1.913
 4461TIP3   OH213388   1.779   2.851   4.156
 4461TIP3    H113389   1.738   2.807   4.231
 4461TIP3    H213390   1.774   2.944   4.178
 4462TIP3   OH213391   5.607   3.228   0.523
 4462TIP3    H113392   5.632   3.142   0.490
 4462TIP3    H213393   5.687   3.280   0.518
 4463TIP3   OH213394   3.023   5.227   3.347
 4463TIP3    H113395   2.993   5.222   3.438
 4463TIP3    H213396   3.034   5.136   3.320
 4464TIP3   OH213397   0.851   1.071   0.045
 4464TIP3    H113398   0.833   1.096   0.136
 4464TIP3    H213399   0.872   1.154   0.002
 4465TIP3   OH213400   6.089   1.891   0.382
 4465TIP3    H113401   6.021   1.842   0.336
 4465TIP3    H213402   6.080   1.864   0.473
 4466TIP3   OH213403   0.285   4.896   0.322
 4466TIP3    H113404   0.322   4.962   0.381
 4466TIP3    H213405   0.232   4.946   0.261
 4467TIP3   OH213406   3.043   3.749   0.887
 4467TIP3    H113407   3.044   3.763   0.792
 4467TIP3    H213408   3.030   3.654   0.896
 4468TIP3   OH213409   1.973   0.564   5.016
 4468TIP3    H113410   1.992   0.474   5.040
 4468TIP3    H213411   2.023   0.617   5.079
 4469TIP3   OH213412   2.500   0.991   5.053
 4469TIP3    H113413   2.594   0.986   5.037
 4469TIP3    H213414   2.470   0.901   5.051
 4470TIP3   OH213415   5.970   1.420   0.456
 4470TIP3    H113416   5.905   1.491   0.452
 4470TIP3    H213417   5.948   1.373   0.537
 4471TIP3   OH213418   2.641   4.141   3.471
 4471TIP3    H113419   2.643   4.235   3.455
 4471TIP3    H213420   2.553   4.114   3.445
 4472TIP3   OH213421   0.077   1.844   0.646
 4472TIP3    H113422   0.018   1.862   0.719
 4472TIP3    H213423   0.144   1.913   0.652
 4473TIP3   OH213424   5.712   1.143   4.363
 4473TIP3    H113425   5.784   1.200   4.335
 4473TIP3    H213426   5.684   1.180   4.447
 4474TIP3   OH213427   1.975   4.303   1.233
 4474TIP3    H113428   2.020   4.367   1.289
 4474TIP3    H213429   1.904   4.352   1.193
 4475TIP3   OH213430   4.657   2.604   3.751
 4475TIP3    H113431   4.742   2.646   3.750
 4475TIP3    H213432   4.662   2.541   3.822
 4476TIP3   OH213433   6.028   4.154   3.917
 4476TIP3    H113434   6.012   4.060   3.909
 4476TIP3    H213435   6.116   4.161   3.954
 4477TIP3   OH213436   0.359   1.474   4.660
 4477TIP3    H113437   0.358   1.394   4.608
 4477TIP3    H213438   0.449   1.506   4.654
 4478TIP3   OH213439   1.641   3.291   2.333
 4478TIP3    H113440   1.682   3.367   2.373
 4478TIP3    H213441   1.707   3.257   2.272
 4479TIP3   OH213442   4.139   1.495   0.789
 4479TIP3    H113443   4.189   1.433   0.843
 4479TIP3    H213444   4.052   1.498   0.830
 4480TIP3   OH213445   5.330   5.680   4.051
 4480TIP3    H113446   5.374   5.734   3.986
 4480TIP3    H213447   5.369   5.593   4.040
 4481TIP3   OH213448   2.913   2.659   4.908
 4481TIP3    H113449   2.911   2.577   4.957
 4481TIP3    H213450   2.827   2.665   4.868
 4482TIP3   OH213451   1.835   1.098   4.764
 4482TIP3    H113452   1.912   1.069   4.812
 4482TIP3    H213453   1.761   1.060   4.810
 4483TIP3   OH213454   4.170   2.428   0.547
 4483TIP3    H113455   4.105   2.488   0.584
 4483TIP3    H213456   4.215   2.392   0.624
 4484TIP3   OH213457   5.822   4.132   5.003
 4484TIP3    H113458   5.787   4.071   4.937
 4484TIP3    H213459   5.900   4.088   5.037
 4485TIP3   OH213460  -0.040   5.127   2.700
 4485TIP3    H113461  -0.076   5.057   2.755
 4485TIP3    H213462   0.047   5.096   2.675
 4486TIP3   OH213463   5.993   4.123   4.250
 4486TIP3    H113464   6.052   4.048   4.246
 4486TIP3    H213465   5.944   4.112   4.331
 4487TIP3   OH213466   3.789   3.372   2.088
 4487TIP3    H113467   3.828   3.337   2.168
 4487TIP3    H213468   3.742   3.298   2.050
 4488TIP3   OH213469   0.142   3.926   4.821
 4488TIP3    H113470   0.106   3.871   4.752
 4488TIP3    H213471   0.221   3.964   4.783
 4489TIP3   OH213472   3.908   2.766   3.011
 4489TIP3    H113473   3.971   2.725   2.951
 4489TIP3    H213474   3.845   2.810   2.954
 4490TIP3   OH213475   4.409   3.415   0.973
 4490TIP3    H113476   4.440   3.503   0.951
 4490TIP3    H213477   4.359   3.426   1.053
 4491TIP3   OH213478   1.453   3.032   2.128
 4491TIP3    H113479   1.387   3.022   2.059
 4491TIP3    H213480   1.514   3.097   2.094
 4492TIP3   OH213481   3.726   1.754   0.635
 4492TIP3    H113482   3.732   1.667   0.674
 4492TIP3    H213483   3.672   1.804   0.695
 4493TIP3   OH213484   4.868   0.742   3.655
 4493TIP3    H113485   4.891   0.760   3.746
 4493TIP3    H213486   4.832   0.825   3.623
 4494TIP3   OH213487   1.218   1.414   0.970
 4494TIP3    H113488   1.237   1.443   1.060
 4494TIP3    H213489   1.304   1.406   0.929
 4495TIP3   OH213490   1.263   0.434   1.496
 4495TIP3    H113491   1.236   0.387   1.575
 4495TIP3    H213492   1.226   0.521   1.506
 4496TIP3   OH213493   2.685   5.326   1.326
 4496TIP3    H113494   2.769   5.279   1.323
 4496TIP3    H213495   2.671   5.357   1.237
 4497TIP3   OH213496   5.494   0.778   3.866
 4497TIP3    H113497   5.568   0.821   3.909
 4497TIP3    H213498   5.437   0.850   3.839
 4498TIP3   OH213499   5.078   2.068   1.817
 4498TIP3    H113500   5.067   2.054   1.911
 4498TIP3    H213501   5.167   2.041   1.799
 4499TIP3   OH213502   5.625   0.288   0.798
 4499TIP3    H113503   5.570   0.287   0.719
 4499TIP3    H213504   5.691   0.355   0.779
 4500TIP3   OH213505   3.427   5.934   2.343
 4500TIP3    H113506   3.357   5.999   2.352
 4500TIP3    H213507   3.508   5.985   2.343
 4501TIP3   OH213508   2.400   2.863   0.910
 4501TIP3    H113509   2.486   2.826   0.886
 4501TIP3    H213510   2.361   2.886   0.826
 4502TIP3   OH213511   2.794   3.253   4.521
 4502TIP3    H113512   2.721   3.306   4.553
 4502TIP3    H213513   2.858   3.317   4.489
 4503TIP3   OH213514   0.328   1.000   0.078
 4503TIP3    H113515   0.312   1.005  -0.016
 4503TIP3    H213516   0.334   0.906   0.097
 4504TIP3   OH213517   5.620   0.694   2.608
 4504TIP3    H113518   5.549   0.706   2.544
 4504TIP3    H213519   5.664   0.779   2.610
 4505TIP3   OH213520   2.991   0.060   1.750
 4505TIP3    H113521   2.911   0.053   1.801
 4505TIP3    H213522   3.047   0.120   1.800
 4506TIP3   OH213523   5.055   3.258   0.739
 4506TIP3    H113524   5.006   3.176   0.742
 4506TIP3    H213525   5.143   3.236   0.771
 4507TIP3   OH213526   1.137   4.129   4.429
 4507TIP3    H113527   1.099   4.135   4.516
 4507TIP3    H213528   1.226   4.096   4.443
 4508TIP3   OH213529   3.985   5.858   0.790
 4508TIP3    H113530   4.040   5.827   0.862
 4508TIP3    H213531   4.023   5.817   0.712
 4509TIP3   OH213532   2.105   1.449   2.530
 4509TIP3    H113533   2.017   1.463   2.566
 4509TIP3    H213534   2.094   1.463   2.436
 4510TIP3   OH213535   2.995   1.786   1.878
 4510TIP3    H113536   2.996   1.876   1.844
 4510TIP3    H213537   2.909   1.752   1.853
 4511TIP3   OH213538   4.967   1.769   4.237
 4511TIP3    H113539   5.017   1.844   4.205
 4511TIP3    H213540   5.031   1.715   4.284
 4512TIP3   OH213541   1.389   4.023   2.155
 4512TIP3    H113542   1.409   4.113   2.182
 4512TIP3    H213543   1.388   4.027   2.059
 4513TIP3   OH213544   6.141   2.254   1.280
 4513TIP3    H113545   6.066   2.313   1.290
 4513TIP3    H213546   6.216   2.305   1.308
 4514TIP3   OH213547   5.236   1.861   2.362
 4514TIP3    H113548   5.160   1.880   2.418
 4514TIP3    H213549   5.270   1.778   2.397
 4515TIP3   OH213550   2.825   2.954   3.220
 4515TIP3    H113551   2.851   2.983   3.132
 4515TIP3    H213552   2.900   2.975   3.275
 4516TIP3   OH213553   3.499   2.523   1.595
 4516TIP3    H113554   3.543   2.441   1.615
 4516TIP3    H213555   3.558   2.569   1.536
 4517TIP3   OH213556   4.611   3.043   2.015
 4517TIP3    H113557   4.644   3.011   2.100
 4517TIP3    H213558   4.640   2.977   1.952
 4518TIP3   OH213559   2.458   4.068   0.437
 4518TIP3    H113560   2.399   4.133   0.398
 4518TIP3    H213561   2.439   3.987   0.390
 4519TIP3   OH213562   5.591   2.863   3.353
 4519TIP3    H113563   5.589   2.844   3.447
 4519TIP3    H213564   5.639   2.790   3.315
 4520TIP3   OH213565   4.397   1.407   2.482
 4520TIP3    H113566   4.339   1.472   2.444
 4520TIP3    H213567   4.411   1.343   2.411
 4521TIP3   OH213568   2.874   4.234   4.493
 4521TIP3    H113569   2.912   4.278   4.569
 4521TIP3    H213570   2.783   4.265   4.490
 4522TIP3   OH213571   3.514   1.622   1.058
 4522TIP3    H113572   3.553   1.658   0.979
 4522TIP3    H213573   3.462   1.693   1.095
 4523TIP3   OH213574   5.854   3.412   2.102
 4523TIP3    H113575   5.806   3.335   2.134
 4523TIP3    H213576   5.926   3.422   2.163
 4524TIP3   OH213577   3.758   3.517   1.843
 4524TIP3    H113578   3.766   3.489   1.935
 4524TIP3    H213579   3.848   3.540   1.818
 4525TIP3   OH213580   1.535   0.294   0.574
 4525TIP3    H113581   1.516   0.385   0.597
 4525TIP3    H213582   1.545   0.296   0.479
 4526TIP3   OH213583   3.960   4.328   4.089
 4526TIP3    H113584   3.977   4.277   4.009
 4526TIP3    H213585   3.934   4.263   4.154
 4527TIP3   OH213586   2.599   0.548   5.199
 4527TIP3    H113587   2.613   0.618   5.263
 4527TIP3    H213588   2.618   0.589   5.115
 4528TIP3   OH213589   4.768   1.112   1.761
 4528TIP3    H113590   4.822   1.050   1.712
 4528TIP3    H213591   4.679   1.079   1.749
 4529TIP3   OH213592   6.205   5.249   1.232
 4529TIP3    H113593   6.298   5.259   1.209
 4529TIP3    H213594   6.193   5.155   1.242
 4530TIP3   OH213595   2.137   2.748   0.180
 4530TIP3    H113596   2.208   2.693   0.147
 4530TIP3    H213597   2.128   2.724   0.272
 4531TIP3   OH213598   3.184   2.391   4.520
 4531TIP3    H113599   3.252   2.408   4.585
 4531TIP3    H213600   3.103   2.388   4.570
 4532TIP3   OH213601   4.679   2.492   1.661
 4532TIP3    H113602   4.678   2.408   1.616
 4532TIP3    H213603   4.642   2.474   1.748
 4533TIP3   OH213604   1.850   4.586   0.536
 4533TIP3    H113605   1.878   4.522   0.471
 4533TIP3    H213606   1.931   4.627   0.566
 4534TIP3   OH213607   2.518   5.764   1.837
 4534TIP3    H113608   2.518   5.796   1.927
 4534TIP3    H213609   2.447   5.811   1.794
 4535TIP3   OH213610   3.152   4.313   3.537
 4535TIP3    H113611   3.104   4.357   3.607
 4535TIP3    H213612   3.086   4.291   3.472
 4536TIP3   OH213613   3.882   3.556   4.563
 4536TIP3    H113614   3.919   3.576   4.650
 4536TIP3    H213615   3.882   3.461   4.559
 4537TIP3   OH213616   6.305   2.874   4.369
 4537TIP3    H113617   6.267   2.961   4.355
 4537TIP3    H213618   6.231   2.819   4.394
 4538TIP3   OH213619   1.881   4.919   0.905
 4538TIP3    H113620   1.905   4.831   0.875
 4538TIP3    H213621   1.864   4.968   0.825
 4539TIP3   OH213622   5.349   2.020   1.748
 4539TIP3    H113623   5.329   1.934   1.711
 4539TIP3    H213624   5.444   2.022   1.755
 4540TIP3   OH213625   4.703   0.382   2.030
 4540TIP3    H113626   4.683   0.439   1.956
 4540TIP3    H213627   4.634   0.315   2.028
 4541TIP3   OH213628   3.724   3.294   0.830
 4541TIP3    H113629   3.730   3.205   0.865
 4541TIP3    H213630   3.784   3.345   0.885
 4542TIP3   OH213631   6.229   4.836   3.312
 4542TIP3    H113632   6.147   4.823   3.264
 4542TIP3    H213633   6.203   4.834   3.405
 4543TIP3   OH213634   4.838   4.582   1.524
 4543TIP3    H113635   4.878   4.576   1.611
 4543TIP3    H213636   4.878   4.660   1.485
 4544TIP3   OH213637   4.627   3.217   0.114
 4544TIP3    H113638   4.561   3.243   0.049
 4544TIP3    H213639   4.606   3.126   0.133
 4545TIP3   OH213640   5.333   4.626   1.009
 4545TIP3    H113641   5.418   4.613   0.968
 4545TIP3    H213642   5.350   4.685   1.083
 4546TIP3   OH213643   5.895   2.367   4.910
 4546TIP3    H113644   5.982   2.404   4.929
 4546TIP3    H213645   5.913   2.294   4.850
 4547TIP3   OH213646   0.906   2.362   2.970
 4547TIP3    H113647   0.876   2.292   2.912
 4547TIP3    H213648   0.870   2.339   3.056
 4548TIP3   OH213649   1.589   2.553   3.473
 4548TIP3    H113650   1.567   2.558   3.379
 4548TIP3    H213651   1.682   2.532   3.475
 4549TIP3   OH213652   3.869   4.056   1.761
 4549TIP3    H113653   3.960   4.050   1.732
 4549TIP3    H213654   3.844   3.965   1.779
 4550TIP3   OH213655   4.208   2.720   5.027
 4550TIP3    H113656   4.176   2.697   5.114
 4550TIP3    H213657   4.296   2.752   5.041
 4551TIP3   OH213658   0.615   0.177   1.323
 4551TIP3    H113659   0.604   0.159   1.417
 4551TIP3    H213660   0.696   0.226   1.317
 4552TIP3   OH213661   0.236   0.251   0.418
 4552TIP3    H113662   0.297   0.184   0.385
 4552TIP3    H213663   0.292   0.322   0.448
 4553TIP3   OH213664   4.667   2.066   2.486
 4553TIP3    H113665   4.701   1.980   2.511
 4553TIP3    H213666   4.601   2.047   2.420
 4554TIP3   OH213667   5.378   2.341   0.787
 4554TIP3    H113668   5.414   2.356   0.699
 4554TIP3    H213669   5.306   2.405   0.794
 4555TIP3   OH213670   3.651   0.270   5.174
 4555TIP3    H113671   3.715   0.336   5.147
 4555TIP3    H213672   3.566   0.313   5.160
 4556TIP3   OH213673   4.696   3.544   4.761
 4556TIP3    H113674   4.723   3.633   4.786
 4556TIP3    H213675   4.647   3.556   4.680
 4557TIP3   OH213676   3.579   3.642   3.256
 4557TIP3    H113677   3.540   3.664   3.341
 4557TIP3    H213678   3.621   3.557   3.270
 4558TIP3   OH213679   5.716   1.457   1.084
 4558TIP3    H113680   5.628   1.421   1.086
 4558TIP3    H213681   5.705   1.548   1.115
 4559TIP3   OH213682   2.970   0.200   2.671
 4559TIP3    H113683   2.909   0.141   2.715
 4559TIP3    H213684   2.952   0.286   2.709
 4560TIP3   OH213685   5.808   5.123   4.100
 4560TIP3    H113686   5.866   5.160   4.166
 4560TIP3    H213687   5.724   5.113   4.145
 4561TIP3   OH213688   4.856   5.090   4.889
 4561TIP3    H113689   4.928   5.031   4.866
 4561TIP3    H213690   4.877   5.119   4.978
 4562TIP3   OH213691   2.721   2.544   2.825
 4562TIP3    H113692   2.793   2.496   2.867
 4562TIP3    H213693   2.739   2.537   2.731
 4563TIP3   OH213694   2.593   4.781   2.433
 4563TIP3    H113695   2.608   4.824   2.517
 4563TIP3    H213696   2.503   4.747   2.439
 4564TIP3   OH213697   2.410   4.109   3.913
 4564TIP3    H113698   2.396   4.112   3.818
 4564TIP3    H213699   2.329   4.071   3.948
 4565TIP3   OH213700   0.490   0.840   2.272
 4565TIP3    H113701   0.572   0.812   2.233
 4565TIP3    H213702   0.472   0.926   2.232
 4566TIP3   OH213703   0.390   0.036   2.445
 4566TIP3    H113704   0.303   0.050   2.406
 4566TIP3    H213705   0.450   0.083   2.387
 4567TIP3   OH213706   3.295   4.599   0.242
 4567TIP3    H113707   3.372   4.644   0.277
 4567TIP3    H213708   3.273   4.648   0.163
 4568TIP3   OH213709   3.165   1.238   1.397
 4568TIP3    H113710   3.186   1.275   1.311
 4568TIP3    H213711   3.079   1.273   1.418
 4569TIP3   OH213712   2.553   2.502   0.509
 4569TIP3    H113713   2.571   2.408   0.505
 4569TIP3    H213714   2.599   2.538   0.434
 4570TIP3   OH213715   4.307   4.416   0.423
 4570TIP3    H113716   4.233   4.360   0.398
 4570TIP3    H213717   4.341   4.450   0.341
 4571TIP3   OH213718   0.974   5.680   3.212
 4571TIP3    H113719   0.929   5.633   3.142
 4571TIP3    H213720   0.909   5.742   3.245
 4572TIP3   OH213721   5.411   5.892   2.933
 4572TIP3    H113722   5.503   5.894   2.956
 4572TIP3    H213723   5.400   5.966   2.873
 4573TIP3   OH213724   1.759   3.616   4.925
 4573TIP3    H113725   1.846   3.609   4.886
 4573TIP3    H213726   1.699   3.625   4.851
 4574TIP3   OH213727   3.493   0.797   2.464
 4574TIP3    H113728   3.477   0.713   2.506
 4574TIP3    H213729   3.572   0.831   2.507
 4575TIP3   OH213730   2.326   0.801   2.350
 4575TIP3    H113731   2.367   0.816   2.265
 4575TIP3    H213732   2.389   0.837   2.413
 4576TIP3   OH213733  -0.008   0.902   0.132
 4576TIP3    H113734  -0.038   0.818   0.096
 4576TIP3    H213735   0.088   0.897   0.129
 4577TIP3   OH213736   0.918   0.073   1.724
 4577TIP3    H113737   1.007   0.038   1.734
 4577TIP3    H213738   0.891   0.094   1.813
 4578TIP3   OH213739   2.315   4.469   0.264
 4578TIP3    H113740   2.303   4.379   0.234
 4578TIP3    H213741   2.378   4.507   0.204
 4579TIP3   OH213742   3.284   5.015   4.601
 4579TIP3    H113743   3.334   5.047   4.676
 4579TIP3    H213744   3.243   5.093   4.564
 4580TIP3   OH213745   2.924   2.827   2.199
 4580TIP3    H113746   2.958   2.814   2.288
 4580TIP3    H213747   3.000   2.813   2.142
 4581TIP3   OH213748   0.484   1.772   3.935
 4581TIP3    H113749   0.537   1.808   3.864
 4581TIP3    H213750   0.453   1.688   3.902
 4582TIP3   OH213751   5.817   3.873   0.820
 4582TIP3    H113752   5.888   3.923   0.780
 4582TIP3    H213753   5.813   3.792   0.768
 4583TIP3   OH213754   2.703   4.889   3.791
 4583TIP3    H113755   2.753   4.868   3.711
 4583TIP3    H213756   2.741   4.831   3.857
 4584TIP3   OH213757   0.908   3.072   2.651
 4584TIP3    H113758   0.920   3.161   2.685
 4584TIP3    H213759   0.817   3.071   2.619
 4585TIP3   OH213760   4.383   3.915   1.477
 4585TIP3    H113761   4.348   4.002   1.495
 4585TIP3    H213762   4.377   3.869   1.561
 4586TIP3   OH213763   5.414   1.763   0.173
 4586TIP3    H113764   5.487   1.812   0.136
 4586TIP3    H213765   5.447   1.673   0.181
 4587TIP3   OH213766   5.191   2.217   0.579
 4587TIP3    H113767   5.223   2.203   0.668
 4587TIP3    H213768   5.162   2.308   0.578
 4588TIP3   OH213769   0.262   5.475   0.401
 4588TIP3    H113770   0.250   5.561   0.441
 4588TIP3    H213771   0.329   5.433   0.455
 4589TIP3   OH213772   2.762   0.959   4.003
 4589TIP3    H113773   2.725   0.914   4.080
 4589TIP3    H213774   2.747   0.898   3.931
 4590TIP3   OH213775   5.449   1.628   2.764
 4590TIP3    H113776   5.360   1.603   2.739
 4590TIP3    H213777   5.493   1.646   2.681
 4591TIP3   OH213778   0.882   1.434   4.771
 4591TIP3    H113779   0.907   1.361   4.828
 4591TIP3    H213780   0.825   1.395   4.705
 4592TIP3   OH213781   0.918   4.965   2.367
 4592TIP3    H113782   0.883   5.048   2.334
 4592TIP3    H213783   1.012   4.969   2.348
 4593TIP3   OH213784   0.668   5.408   4.018
 4593TIP3    H113785   0.583   5.418   4.060
 4593TIP3    H213786   0.689   5.315   4.027
 4594TIP3   OH213787   2.692   4.279   1.517
 4594TIP3    H113788   2.743   4.323   1.585
 4594TIP3    H213789   2.603   4.275   1.553
 4595TIP3   OH213790   2.705   0.733   2.691
 4595TIP3    H113791   2.713   0.804   2.755
 4595TIP3    H213792   2.772   0.669   2.717
 4596TIP3   OH213793   0.108   5.420   4.805
 4596TIP3    H113794   0.191   5.376   4.820
 4596TIP3    H213795   0.131   5.507   4.774
 4597TIP3   OH213796   1.888   1.845   2.202
 4597TIP3    H113797   1.911   1.753   2.215
 4597TIP3    H213798   1.909   1.887   2.285
 4598TIP3   OH213799   6.165   3.609   3.662
 4598TIP3    H113800   6.141   3.516   3.654
 4598TIP3    H213801   6.141   3.647   3.578
 4599TIP3   OH213802   1.739   5.398   1.198
 4599TIP3    H113803   1.815   5.454   1.180
 4599TIP3    H213804   1.754   5.366   1.287
 4600TIP3   OH213805   4.163   1.070   2.889
 4600TIP3    H113806   4.128   1.160   2.887
 4600TIP3    H213807   4.257   1.081   2.872
 4601TIP3   OH213808   6.161   4.137   1.549
 4601TIP3    H113809   6.118   4.206   1.599
 4601TIP3    H213810   6.093   4.070   1.538
 4602TIP3   OH213811   6.018   3.435   1.066
 4602TIP3    H113812   6.061   3.520   1.072
 4602TIP3    H213813   6.056   3.384   1.137
 4603TIP3   OH213814   2.140   3.425   2.772
 4603TIP3    H113815   2.059   3.463   2.808
 4603TIP3    H213816   2.140   3.335   2.803
 4604TIP3   OH213817   1.709   4.239   2.731
 4604TIP3    H113818   1.775   4.211   2.795
 4604TIP3    H213819   1.672   4.157   2.698
 4605TIP3   OH213820   4.303   5.575   3.754
 4605TIP3    H113821   4.248   5.508   3.794
 4605TIP3    H213822   4.329   5.538   3.669
 4606TIP3   OH213823   4.943   4.606   1.785
 4606TIP3    H113824   5.032   4.575   1.803
 4606TIP3    H213825   4.892   4.525   1.772
 4607TIP3   OH213826   0.095   2.644   1.777
 4607TIP3    H113827   0.085   2.738   1.789
 4607TIP3    H213828   0.155   2.616   1.846
 4608TIP3   OH213829   1.114   1.828   4.692
 4608TIP3    H113830   1.199   1.784   4.696
 4608TIP3    H213831   1.073   1.810   4.777
 4609TIP3   OH213832   0.760   5.453   4.548
 4609TIP3    H113833   0.769   5.420   4.638
 4609TIP3    H213834   0.822   5.526   4.544
 4610TIP3   OH213835   3.238   0.970   2.091
 4610TIP3    H113836   3.243   1.065   2.076
 4610TIP3    H213837   3.199   0.962   2.178
 4611TIP3   OH213838   1.122   2.887   4.020
 4611TIP3    H113839   1.089   2.867   3.933
 4611TIP3    H213840   1.044   2.899   4.074
 4612TIP3   OH213841   1.807   1.139   2.935
 4612TIP3    H113842   1.870   1.211   2.936
 4612TIP3    H213843   1.789   1.125   2.842
 4613TIP3   OH213844   5.413   2.781   0.772
 4613TIP3    H113845   5.446   2.832   0.846
 4613TIP3    H213846   5.320   2.768   0.792
 4614TIP3   OH213847   1.239   1.608   0.103
 4614TIP3    H113848   1.166   1.608   0.040
 4614TIP3    H213849   1.226   1.688   0.154
 4615TIP3   OH213850   1.428   4.121   2.954
 4615TIP3    H113851   1.431   4.026   2.940
 4615TIP3    H213852   1.344   4.136   2.997
 4616TIP3   OH213853   6.173   0.628   0.141
 4616TIP3    H113854   6.121   0.549   0.133
 4616TIP3    H213855   6.255   0.608   0.096
 4617TIP3   OH213856   3.563   1.991   4.522
 4617TIP3    H113857   3.480   2.024   4.555
 4617TIP3    H213858   3.541   1.908   4.481
 4618TIP3   OH213859   0.845   0.398   0.380
 4618TIP3    H113860   0.815   0.307   0.379
 4618TIP3    H213861   0.941   0.391   0.380
 4619TIP3   OH213862   2.154   3.137   2.897
 4619TIP3    H113863   2.164   3.088   2.978
 4619TIP3    H213864   2.110   3.076   2.837
 4620TIP3   OH213865   6.004   1.208   2.506
 4620TIP3    H113866   5.999   1.248   2.592
 4620TIP3    H213867   6.046   1.124   2.521
 4621TIP3   OH213868   0.510   0.563   0.299
 4621TIP3    H113869   0.503   0.533   0.208
 4621TIP3    H213870   0.599   0.597   0.306
 4622TIP3   OH213871   1.368   1.966   5.057
 4622TIP3    H113872   1.314   2.043   5.041
 4622TIP3    H213873   1.449   2.001   5.094
 4623TIP3   OH213874   4.736   5.455   3.165
 4623TIP3    H113875   4.700   5.396   3.230
 4623TIP3    H213876   4.831   5.444   3.172
 4624TIP3   OH213877   5.597   3.183   1.778
 4624TIP3    H113878   5.680   3.232   1.782
 4624TIP3    H213879   5.557   3.198   1.864
 4625TIP3   OH213880   6.058   4.868   2.492
 4625TIP3    H113881   6.051   4.855   2.587
 4625TIP3    H213882   6.049   4.963   2.481
 4626TIP3   OH213883   2.679   4.686   0.827
 4626TIP3    H113884   2.685   4.603   0.874
 4626TIP3    H213885   2.637   4.746   0.889
 4627TIP3   OH213886   4.565   1.579   2.640
 4627TIP3    H113887   4.578   1.525   2.718
 4627TIP3    H213888   4.495   1.536   2.592
 4628TIP3   OH213889   4.747   0.025   0.442
 4628TIP3    H113890   4.705   0.096   0.395
 4628TIP3    H213891   4.707   0.025   0.529
 4629TIP3   OH213892   1.597   4.728   0.980
 4629TIP3    H113893   1.567   4.640   0.957
 4629TIP3    H213894   1.689   4.729   0.953
 4630TIP3   OH213895   3.164   2.757   2.082
 4630TIP3    H113896   3.139   2.686   2.141
 4630TIP3    H213897   3.232   2.718   2.026
 4631TIP3   OH213898   4.172   4.661   0.608
 4631TIP3    H113899   4.266   4.677   0.601
 4631TIP3    H213900   4.143   4.718   0.679
 4632TIP3   OH213901   2.277   4.457   2.139
 4632TIP3    H113902   2.235   4.532   2.182
 4632TIP3    H213903   2.253   4.382   2.193
 4633TIP3   OH213904   3.793   4.211   1.553
 4633TIP3    H113905   3.804   4.145   1.621
 4633TIP3    H213906   3.718   4.181   1.501
 4634TIP3   OH213907   1.130   4.426   1.311
 4634TIP3    H113908   1.223   4.444   1.326
 4634TIP3    H213909   1.088   4.512   1.315
 4635TIP3   OH213910   3.471   5.095   4.831
 4635TIP3    H113911   3.564   5.074   4.838
 4635TIP3    H213912   3.467   5.191   4.831
 4636TIP3   OH213913   2.116   0.576   3.116
 4636TIP3    H113914   2.082   0.573   3.027
 4636TIP3    H213915   2.068   0.647   3.158
 4637TIP3   OH213916   2.692   5.185   0.051
 4637TIP3    H113917   2.751   5.110   0.067
 4637TIP3    H213918   2.741   5.260   0.084
 4638TIP3   OH213919   2.067   4.624   2.717
 4638TIP3    H113920   1.991   4.585   2.760
 4638TIP3    H213921   2.033   4.657   2.634
 4639TIP3   OH213922   0.483   0.583   4.294
 4639TIP3    H113923   0.396   0.563   4.259
 4639TIP3    H213924   0.490   0.528   4.373
 4640TIP3   OH213925   0.423   2.161   1.000
 4640TIP3    H113926   0.329   2.143   1.005
 4640TIP3    H213927   0.462   2.078   0.973
 4641TIP3   OH213928   4.912   4.492   2.404
 4641TIP3    H113929   4.959   4.548   2.466
 4641TIP3    H213930   4.968   4.490   2.326
 4642TIP3   OH213931   0.686   1.945   5.115
 4642TIP3    H113932   0.646   1.910   5.195
 4642TIP3    H213933   0.780   1.937   5.130
 4643TIP3   OH213934   4.865   2.546   2.419
 4643TIP3    H113935   4.787   2.523   2.369
 4643TIP3    H213936   4.862   2.642   2.425
 4644TIP3   OH213937   5.654   2.246   0.851
 4644TIP3    H113938   5.662   2.153   0.871
 4644TIP3    H213939   5.560   2.259   0.837
 4645TIP3   OH213940   1.799   3.317   4.632
 4645TIP3    H113941   1.856   3.387   4.602
 4645TIP3    H213942   1.807   3.317   4.727
 4646TIP3   OH213943   2.262   2.420   2.090
 4646TIP3    H113944   2.229   2.483   2.026
 4646TIP3    H213945   2.188   2.362   2.107
 4647TIP3   OH213946   3.859   2.352   0.617
 4647TIP3    H113947   3.874   2.438   0.577
 4647TIP3    H213948   3.831   2.296   0.545
 4648TIP3   OH213949   0.469   4.761   4.081
 4648TIP3    H113950   0.502   4.678   4.050
 4648TIP3    H213951   0.421   4.797   4.007
 4649TIP3   OH213952   3.919   5.106   0.906
 4649TIP3    H113953   3.960   5.186   0.939
 4649TIP3    H213954   3.934   5.041   0.974
 4650TIP3   OH213955   4.684   2.723   4.954
 4650TIP3    H113956   4.778   2.706   4.963
 4650TIP3    H213957   4.678   2.801   4.900
 4651TIP3   OH213958   1.532   5.166   3.071
 4651TIP3    H113959   1.545   5.222   3.148
 4651TIP3    H213960   1.444   5.130   3.081
 4652TIP3   OH213961   4.809   2.462   0.903
 4652TIP3    H113962   4.744   2.516   0.948
 4652TIP3    H213963   4.760   2.385   0.874
 4653TIP3   OH213964   6.033   4.015   0.669
 4653TIP3    H113965   5.980   4.080   0.622
 4653TIP3    H213966   6.114   4.009   0.618
 4654TIP3   OH213967   3.583   3.066   3.903
 4654TIP3    H113968   3.511   3.128   3.916
 4654TIP3    H213969   3.641   3.080   3.978
 4655TIP3   OH213970   2.177   3.547   5.091
 4655TIP3    H113971   2.226   3.579   5.015
 4655TIP3    H213972   2.126   3.474   5.057
 4656TIP3   OH213973   2.709   1.470   2.455
 4656TIP3    H113974   2.769   1.452   2.384
 4656TIP3    H213975   2.643   1.529   2.417
 4657TIP3   OH213976   3.230   1.180   4.324
 4657TIP3    H113977   3.190   1.151   4.242
 4657TIP3    H213978   3.194   1.268   4.338
 4658TIP3   OH213979   4.928   1.799   2.101
 4658TIP3    H113980   4.872   1.812   2.178
 4658TIP3    H213981   4.983   1.725   2.124
 4659TIP3   OH213982   0.072   1.298   2.310
 4659TIP3    H113983   0.101   1.308   2.401
 4659TIP3    H213984   0.009   1.369   2.296
 4660TIP3   OH213985   2.564   2.140   4.374
 4660TIP3    H113986   2.606   2.225   4.385
 4660TIP3    H213987   2.492   2.156   4.313
 4661TIP3   OH213988   4.680   4.539   2.066
 4661TIP3    H113989   4.699   4.632   2.055
 4661TIP3    H213990   4.760   4.502   2.103
 4662TIP3   OH213991   6.260   5.622   2.263
 4662TIP3    H113992   6.184   5.569   2.287
 4662TIP3    H213993   6.252   5.634   2.168
 4663TIP3   OH213994   0.646   2.813   3.209
 4663TIP3    H113995   0.720   2.839   3.155
 4663TIP3    H213996   0.569   2.838   3.158
 4664TIP3   OH213997   5.770   4.892   3.483
 4664TIP3    H113998   5.753   4.798   3.482
 4664TIP3    H213999   5.715   4.928   3.414
 4665TIP3   OH214000   2.705   0.326   4.976
 4665TIP3    H114001   2.756   0.296   5.051
 4665TIP3    H214002   2.621   0.281   4.983
 4666TIP3   OH214003   5.079   3.008   1.502
 4666TIP3    H114004   5.035   3.032   1.421
 4666TIP3    H214005   5.049   3.073   1.566
 4667TIP3   OH214006   4.572   0.153   4.332
 4667TIP3    H114007   4.609   0.151   4.244
 4667TIP3    H214008   4.531   0.239   4.340
 4668TIP3   OH214009   2.904   3.973   0.904
 4668TIP3    H114010   2.823   3.961   0.855
 4668TIP3    H214011   2.944   3.887   0.906
 4669TIP3   OH214012   0.175   0.405   2.971
 4669TIP3    H114013   0.132   0.331   3.014
 4669TIP3    H214014   0.106   0.444   2.918
 4670TIP3   OH214015   4.225   4.375   4.339
 4670TIP3    H114016   4.204   4.434   4.266
 4670TIP3    H214017   4.295   4.419   4.386
 4671TIP3   OH214018   5.396   3.874   2.541
 4671TIP3    H114019   5.492   3.868   2.541
 4671TIP3    H214020   5.376   3.924   2.461
 4672TIP3   OH214021   2.392   2.669   0.677
 4672TIP3    H114022   2.388   2.749   0.626
 4672TIP3    H214023   2.463   2.618   0.637
 4673TIP3   OH214024   1.326   4.126   1.155
 4673TIP3    H114025   1.232   4.130   1.172
 4673TIP3    H214026   1.353   4.218   1.144
 4674TIP3   OH214027   4.975   5.709   3.636
 4674TIP3    H114028   5.065   5.733   3.661
 4674TIP3    H214029   4.983   5.621   3.600
 4675TIP3   OH214030   0.392   2.496   3.573
 4675TIP3    H114031   0.343   2.429   3.526
 4675TIP3    H214032   0.363   2.579   3.534
 4676TIP3   OH214033   3.354   3.144   1.458
 4676TIP3    H114034   3.295   3.218   1.442
 4676TIP3    H214035   3.348   3.092   1.378
 4677TIP3   OH214036   5.514   0.609   0.245
 4677TIP3    H114037   5.472   0.546   0.187
 4677TIP3    H214038   5.574   0.658   0.189
 4678TIP3   OH214039   2.200   3.111   3.662
 4678TIP3    H114040   2.243   3.140   3.742
 4678TIP3    H214041   2.109   3.096   3.687
 4679TIP3   OH214042   3.023   3.314   4.800
 4679TIP3    H114043   2.944   3.270   4.832
 4679TIP3    H214044   2.993   3.363   4.723
 4680TIP3   OH214045   6.126   5.034   3.874
 4680TIP3    H114046   6.055   5.002   3.819
 4680TIP3    H214047   6.094   5.116   3.910
 4681TIP3   OH214048   0.699   3.110   1.532
 4681TIP3    H114049   0.681   3.056   1.610
 4681TIP3    H214050   0.794   3.107   1.523
 4682TIP3   OH214051   1.998   0.242   4.957
 4682TIP3    H114052   1.980   0.148   4.961
 4682TIP3    H214053   2.086   0.248   4.918
 4683TIP3   OH214054   2.398   3.789   2.334
 4683TIP3    H114055   2.442   3.731   2.272
 4683TIP3    H214056   2.390   3.872   2.289
 4684TIP3   OH214057   5.519   5.146   0.546
 4684TIP3    H114058   5.428   5.118   0.554
 4684TIP3    H214059   5.548   5.159   0.637
 4685TIP3   OH214060   2.442   5.520   1.449
 4685TIP3    H114061   2.446   5.611   1.420
 4685TIP3    H214062   2.371   5.519   1.514
 4686TIP3   OH214063   4.521   0.352   5.024
 4686TIP3    H114064   4.528   0.371   5.117
 4686TIP3    H214065   4.432   0.380   5.000
 4687TIP3   OH214066   0.181   2.601   4.658
 4687TIP3    H114067   0.179   2.661   4.584
 4687TIP3    H214068   0.274   2.592   4.680
 4688TIP3   OH214069   5.685   1.899   2.753
 4688TIP3    H114070   5.743   1.971   2.781
 4688TIP3    H214071   5.600   1.941   2.741
 4689TIP3   OH214072   6.166   1.464   2.339
 4689TIP3    H114073   6.136   1.537   2.285
 4689TIP3    H214074   6.085   1.421   2.367
 4690TIP3   OH214075   0.681   2.902   4.499
 4690TIP3    H114076   0.714   2.817   4.468
 4690TIP3    H214077   0.613   2.925   4.436
 4691TIP3   OH214078   0.531   1.987   1.558
 4691TIP3    H114079   0.443   1.988   1.594
 4691TIP3    H214080   0.539   2.069   1.509
 4692TIP3   OH214081   0.677   4.794   3.171
 4692TIP3    H114082   0.670   4.890   3.167
 4692TIP3    H214083   0.609   4.763   3.110
 4693TIP3   OH214084   6.091   5.080   4.695
 4693TIP3    H114085   6.011   5.102   4.742
 4693TIP3    H214086   6.156   5.142   4.728
 4694TIP3   OH214087   3.763   1.421   2.935
 4694TIP3    H114088   3.747   1.507   2.897
 4694TIP3    H214089   3.772   1.437   3.029
 4695TIP3   OH214090   2.884   2.207   2.579
 4695TIP3    H114091   2.893   2.182   2.671
 4695TIP3    H214092   2.790   2.224   2.568
 4696TIP3   OH214093   6.311   5.471   0.982
 4696TIP3    H114094   6.388   5.494   1.034
 4696TIP3    H214095   6.240   5.464   1.046
 4697TIP3   OH214096   6.142   5.056   4.422
 4697TIP3    H114097   6.073   5.108   4.380
 4697TIP3    H214098   6.134   5.075   4.515
 4698TIP3   OH214099   3.794   2.916   2.527
 4698TIP3    H114100   3.741   2.976   2.475
 4698TIP3    H214101   3.856   2.972   2.574
 4699TIP3   OH214102   3.825   0.526   2.790
 4699TIP3    H114103   3.850   0.506   2.700
 4699TIP3    H214104   3.902   0.504   2.842
 4700TIP3   OH214105   4.042   0.383   0.708
 4700TIP3    H114106   4.054   0.463   0.656
 4700TIP3    H214107   4.026   0.315   0.643
 4701TIP3   OH214108   3.272   4.180   4.706
 4701TIP3    H114109   3.236   4.122   4.773
 4701TIP3    H214110   3.252   4.136   4.623
 4702TIP3   OH214111   0.751   0.827   2.164
 4702TIP3    H114112   0.767   0.907   2.114
 4702TIP3    H214113   0.829   0.817   2.219
 4703TIP3   OH214114   0.975   0.877   0.781
 4703TIP3    H114115   1.019   0.923   0.709
 4703TIP3    H214116   0.967   0.787   0.751
 4704TIP3   OH214117   5.931   4.823   4.813
 4704TIP3    H114118   6.024   4.804   4.812
 4704TIP3    H214119   5.922   4.901   4.758
 4705TIP3   OH214120   4.215   1.631   3.507
 4705TIP3    H114121   4.263   1.708   3.538
 4705TIP3    H214122   4.284   1.570   3.479
 4706TIP3   OH214123   4.354   2.296   3.592
 4706TIP3    H114124   4.307   2.245   3.658
 4706TIP3    H214125   4.446   2.290   3.617
 4707TIP3   OH214126   5.448   3.317   2.635
 4707TIP3    H114127   5.503   3.323   2.713
 4707TIP3    H214128   5.362   3.349   2.664
 4708TIP3   OH214129   6.068   1.846   4.284
 4708TIP3    H114130   6.059   1.768   4.338
 4708TIP3    H214131   6.121   1.906   4.338
 4709TIP3   OH214132   1.680   0.972   2.732
 4709TIP3    H114133   1.633   1.011   2.805
 4709TIP3    H214134   1.620   0.907   2.696
 4710TIP3   OH214135   0.081   0.746   4.615
 4710TIP3    H114136   0.127   0.665   4.590
 4710TIP3    H214137   0.144   0.794   4.668
 4711TIP3   OH214138   2.919   1.176   3.770
 4711TIP3    H114139   2.849   1.167   3.836
 4711TIP3    H214140   2.872   1.193   3.688
 4712TIP3   OH214141   2.452   5.501   2.846
 4712TIP3    H114142   2.432   5.564   2.915
 4712TIP3    H214143   2.519   5.544   2.792
 4713TIP3   OH214144   1.612   1.802   4.068
 4713TIP3    H114145   1.652   1.725   4.108
 4713TIP3    H214146   1.630   1.793   3.975
 4714TIP3   OH214147   4.672   5.772   3.111
 4714TIP3    H114148   4.711   5.690   3.139
 4714TIP3    H214149   4.741   5.837   3.125
 4715TIP3   OH214150   0.496   5.067   2.326
 4715TIP3    H114151   0.426   5.024   2.276
 4715TIP3    H214152   0.502   5.155   2.288
 4716TIP3   OH214153   0.551   4.799   0.639
 4716TIP3    H114154   0.601   4.872   0.602
 4716TIP3    H214155   0.501   4.765   0.564
 4717TIP3   OH214156   6.027   3.173   2.292
 4717TIP3    H114157   6.097   3.149   2.352
 4717TIP3    H214158   5.989   3.253   2.329
 4718TIP3   OH214159   0.786   3.284   2.407
 4718TIP3    H114160   0.779   3.207   2.463
 4718TIP3    H214161   0.708   3.336   2.429
 4719TIP3   OH214162   1.990   1.001   4.470
 4719TIP3    H114163   1.982   1.088   4.509
 4719TIP3    H214164   2.024   0.946   4.541
 4720TIP3   OH214165   3.772   4.296   0.080
 4720TIP3    H114166   3.831   4.326   0.010
 4720TIP3    H214167   3.822   4.229   0.126
 4721TIP3   OH214168   5.844   2.687   4.995
 4721TIP3    H114169   5.878   2.599   4.977
 4721TIP3    H214170   5.861   2.700   5.088
 4722TIP3   OH214171   4.015   1.083   4.454
 4722TIP3    H114172   4.015   0.999   4.408
 4722TIP3    H214173   4.099   1.123   4.434
 4723TIP3   OH214174   5.872   5.679   2.134
 4723TIP3    H114175   5.931   5.606   2.153
 4723TIP3    H214176   5.790   5.655   2.178
 4724TIP3   OH214177   0.765   1.976   1.358
 4724TIP3    H114178   0.728   1.922   1.288
 4724TIP3    H214179   0.700   1.972   1.428
 4725TIP3   OH214180   6.078   4.445   1.376
 4725TIP3    H114181   6.084   4.422   1.469
 4725TIP3    H214182   6.159   4.492   1.357
 4726TIP3   OH214183   0.273   0.565   4.109
 4726TIP3    H114184   0.226   0.485   4.084
 4726TIP3    H214185   0.223   0.636   4.069
 4727TIP3   OH214186   0.006   3.723   3.209
 4727TIP3    H114187   0.077   3.784   3.191
 4727TIP3    H214188  -0.011   3.681   3.125
 4728TIP3   OH214189   1.312   3.677   2.409
 4728TIP3    H114190   1.270   3.706   2.328
 4728TIP3    H214191   1.388   3.626   2.380
 4729TIP3   OH214192   0.660   2.260   0.957
 4729TIP3    H114193   0.627   2.255   0.867
 4729TIP3    H214194   0.586   2.231   1.011
 4730TIP3   OH214195   4.542   2.356   2.319
 4730TIP3    H114196   4.571   2.292   2.254
 4730TIP3    H214197   4.500   2.303   2.387
 4731TIP3   OH214198   4.553   1.448   2.016
 4731TIP3    H114199   4.511   1.529   2.045
 4731TIP3    H214200   4.510   1.379   2.066
 4732TIP3   OH214201   0.210   3.679   0.303
 4732TIP3    H114202   0.150   3.614   0.338
 4732TIP3    H214203   0.295   3.657   0.343
 4733TIP3   OH214204   2.472   3.749   4.707
 4733TIP3    H114205   2.472   3.839   4.674
 4733TIP3    H214206   2.563   3.720   4.695
 4734TIP3   OH214207   4.595   0.170   0.287
 4734TIP3    H114208   4.543   0.189   0.209
 4734TIP3    H214209   4.536   0.122   0.344
 4735TIP3   OH214210   1.164   5.360   2.203
 4735TIP3    H114211   1.168   5.344   2.109
 4735TIP3    H214212   1.084   5.411   2.216
 4736TIP3   OH214213   6.034   4.172   1.901
 4736TIP3    H114214   6.004   4.232   1.833
 4736TIP3    H214215   6.130   4.178   1.898
 4737TIP3   OH214216   4.259   5.095   0.560
 4737TIP3    H114217   4.257   5.107   0.465
 4737TIP3    H214218   4.200   5.162   0.594
 4738TIP3   OH214219   0.202   3.217   3.427
 4738TIP3    H114220   0.271   3.273   3.391
 4738TIP3    H214221   0.167   3.267   3.501
 4739TIP3   OH214222   0.305   2.990   1.928
 4739TIP3    H114223   0.363   2.914   1.929
 4739TIP3    H214224   0.359   3.061   1.964
 4740TIP3   OH214225   1.519   1.803   2.103
 4740TIP3    H114226   1.519   1.746   2.027
 4740TIP3    H214227   1.585   1.870   2.083
 4741TIP3   OH214228   0.240   4.202   2.210
 4741TIP3    H114229   0.303   4.172   2.145
 4741TIP3    H214230   0.200   4.280   2.170
 4742TIP3   OH214231   4.347   0.620   4.442
 4742TIP3    H114232   4.342   0.670   4.524
 4742TIP3    H214233   4.283   0.550   4.454
 4743TIP3   OH214234   4.808   3.685   1.790
 4743TIP3    H114235   4.889   3.720   1.752
 4743TIP3    H214236   4.831   3.597   1.819
 4744TIP3   OH214237   0.917   3.386   0.346
 4744TIP3    H114238   0.961   3.301   0.341
 4744TIP3    H214239   0.965   3.435   0.413
 4745TIP3   OH214240   0.861   5.610   0.671
 4745TIP3    H114241   0.876   5.586   0.763
 4745TIP3    H214242   0.941   5.584   0.626
 4746TIP3   OH214243   0.777   3.767   1.645
 4746TIP3    H114244   0.701   3.787   1.700
 4746TIP3    H214245   0.808   3.682   1.676
 4747TIP3   OH214246   3.794   0.493   5.141
 4747TIP3    H114247   3.858   0.479   5.071
 4747TIP3    H214248   3.813   0.581   5.173
 4748TIP3   OH214249   2.780   4.265   2.279
 4748TIP3    H114250   2.749   4.344   2.322
 4748TIP3    H214251   2.739   4.193   2.329
 4749TIP3   OH214252   5.590   0.249   3.754
 4749TIP3    H114253   5.621   0.331   3.792
 4749TIP3    H214254   5.653   0.184   3.782
 4750TIP3   OH214255   4.056   3.572   3.893
 4750TIP3    H114256   4.097   3.530   3.817
 4750TIP3    H214257   3.980   3.517   3.912
 4751TIP3   OH214258   2.647   2.631   4.806
 4751TIP3    H114259   2.563   2.596   4.780
 4751TIP3    H214260   2.638   2.648   4.900
 4752TIP3   OH214261   2.200   3.799   4.364
 4752TIP3    H114262   2.216   3.709   4.334
 4752TIP3    H214263   2.143   3.837   4.298
 4753TIP3   OH214264   1.336   3.582   1.213
 4753TIP3    H114265   1.358   3.666   1.252
 4753TIP3    H214266   1.386   3.580   1.131
 4754TIP3   OH214267   0.707   0.224   2.576
 4754TIP3    H114268   0.756   0.303   2.598
 4754TIP3    H214269   0.711   0.218   2.481
 4755TIP3   OH214270   2.567   5.289   3.183
 4755TIP3    H114271   2.489   5.234   3.185
 4755TIP3    H214272   2.620   5.258   3.257
 4756TIP3   OH214273   1.416   1.297   4.506
 4756TIP3    H114274   1.439   1.207   4.528
 4756TIP3    H214275   1.362   1.290   4.427
 4757TIP3   OH214276   2.008   2.732   1.490
 4757TIP3    H114277   1.967   2.770   1.412
 4757TIP3    H214278   2.036   2.645   1.462
 4758TIP3   OH214279   1.224   5.717   4.295
 4758TIP3    H114280   1.248   5.808   4.281
 4758TIP3    H214281   1.232   5.705   4.390
 4759TIP3   OH214282   3.578   0.686   1.644
 4759TIP3    H114283   3.623   0.631   1.708
 4759TIP3    H214284   3.648   0.733   1.598
 4760TIP3   OH214285   0.202   0.736   2.928
 4760TIP3    H114286   0.265   0.673   2.964
 4760TIP3    H214287   0.197   0.714   2.835
 4761TIP3   OH214288   4.780   4.787   1.262
 4761TIP3    H114289   4.684   4.785   1.265
 4761TIP3    H214290   4.804   4.709   1.212
 4762TIP3   OH214291   2.313   1.048   0.661
 4762TIP3    H114292   2.405   1.020   0.670
 4762TIP3    H214293   2.263   0.968   0.675
 4763TIP3   OH214294   2.900   1.428   4.023
 4763TIP3    H114295   2.975   1.369   4.026
 4763TIP3    H214296   2.830   1.376   3.984
 4764TIP3   OH214297   2.532   3.626   2.153
 4764TIP3    H114298   2.580   3.587   2.080
 4764TIP3    H214299   2.515   3.553   2.212
 4765TIP3   OH214300   3.364   3.518   0.978
 4765TIP3    H114301   3.307   3.464   1.032
 4765TIP3    H214302   3.360   3.605   1.018
 4766TIP3   OH214303   1.656   5.826   3.661
 4766TIP3    H114304   1.598   5.843   3.587
 4766TIP3    H214305   1.609   5.761   3.713
 4767TIP3   OH214306   3.627   4.397   0.847
 4767TIP3    H114307   3.582   4.368   0.768
 4767TIP3    H214308   3.564   4.384   0.917
 4768TIP3   OH214309   5.251   4.398   4.190
 4768TIP3    H114310   5.328   4.397   4.133
 4768TIP3    H214311   5.257   4.317   4.241
 4769TIP3   OH214312   2.574   5.109   1.052
 4769TIP3    H114313   2.562   5.134   0.961
 4769TIP3    H214314   2.568   5.191   1.101
 4770TIP3   OH214315   5.440   0.881   0.556
 4770TIP3    H114316   5.383   0.804   0.563
 4770TIP3    H214317   5.473   0.878   0.466
 4771TIP3   OH214318   5.552   2.017   0.085
 4771TIP3    H114319   5.588   2.082   0.144
 4771TIP3    H214320   5.586   2.040  -0.001
 4772TIP3   OH214321   1.529   4.989   4.365
 4772TIP3    H114322   1.611   4.940   4.374
 4772TIP3    H214323   1.525   5.044   4.443
 4773TIP3   OH214324   5.007   1.789   2.692
 4773TIP3    H114325   5.023   1.867   2.640
 4773TIP3    H214326   4.951   1.818   2.764
 4774TIP3   OH214327   3.251   3.415   4.460
 4774TIP3    H114328   3.325   3.357   4.441
 4774TIP3    H214329   3.180   3.355   4.484
 4775TIP3   OH214330   1.919   5.182   4.420
 4775TIP3    H114331   1.986   5.213   4.480
 4775TIP3    H214332   1.842   5.235   4.441
 4776TIP3   OH214333   5.424   1.734   1.145
 4776TIP3    H114334   5.453   1.675   1.215
 4776TIP3    H214335   5.365   1.680   1.092
 4777TIP3   OH214336   4.510   2.880   1.256
 4777TIP3    H114337   4.473   2.826   1.186
 4777TIP3    H214338   4.554   2.818   1.314
 4778TIP3   OH214339   2.052   4.985   2.627
 4778TIP3    H114340   2.025   5.072   2.595
 4778TIP3    H214341   2.146   4.992   2.640
 4779TIP3   OH214342   4.022   3.618   1.900
 4779TIP3    H114343   4.027   3.662   1.815
 4779TIP3    H214344   4.096   3.652   1.950
 4780TIP3   OH214345   3.192   3.828   2.496
 4780TIP3    H114346   3.184   3.742   2.538
 4780TIP3    H214347   3.163   3.890   2.563
 4781TIP3   OH214348   3.316   5.910   0.546
 4781TIP3    H114349   3.298   5.818   0.561
 4781TIP3    H214350   3.271   5.956   0.617
 4782TIP3   OH214351   0.730   3.216   4.686
 4782TIP3    H114352   0.765   3.245   4.771
 4782TIP3    H214353   0.672   3.144   4.708
 4783TIP3   OH214354   1.781   2.956   1.905
 4783TIP3    H114355   1.826   2.900   1.841
 4783TIP3    H214356   1.736   2.894   1.962
 4784TIP3   OH214357   4.543   4.296   2.194
 4784TIP3    H114358   4.586   4.374   2.230
 4784TIP3    H214359   4.457   4.328   2.166
 4785TIP3   OH214360   2.861   3.099   1.650
 4785TIP3    H114361   2.817   3.116   1.566
 4785TIP3    H214362   2.923   3.029   1.632
 4786TIP3   OH214363   3.152   5.194   0.034
 4786TIP3    H114364   3.135   5.287   0.048
 4786TIP3    H214365   3.205   5.191  -0.046
 4787TIP3   OH214366   5.619   4.572   1.162
 4787TIP3    H114367   5.603   4.536   1.249
 4787TIP3    H214368   5.663   4.501   1.114
 4788TIP3   OH214369   0.637   2.484   1.218
 4788TIP3    H114370   0.619   2.504   1.126
 4788TIP3    H214371   0.628   2.568   1.262
 4789TIP3   OH214372   3.666   0.145   3.028
 4789TIP3    H114373   3.611   0.115   3.100
 4789TIP3    H214374   3.707   0.225   3.061
 4790TIP3   OH214375   1.950   4.521   3.329
 4790TIP3    H114376   2.015   4.587   3.303
 4790TIP3    H214377   1.880   4.530   3.265
 4791TIP3   OH214378   5.694   0.489   3.864
 4791TIP3    H114379   5.755   0.538   3.919
 4791TIP3    H214380   5.635   0.555   3.828
 4792TIP3   OH214381   4.441   0.238   2.323
 4792TIP3    H114382   4.429   0.238   2.418
 4792TIP3    H214383   4.420   0.328   2.297
 4793TIP3   OH214384   3.657   2.989   0.190
 4793TIP3    H114385   3.663   2.939   0.272
 4793TIP3    H214386   3.737   3.041   0.188
 4794TIP3   OH214387   0.476   5.763   2.744
 4794TIP3    H114388   0.516   5.797   2.664
 4794TIP3    H214389   0.495   5.669   2.743
 4795TIP3   OH214390   4.832   1.785   3.846
 4795TIP3    H114391   4.808   1.727   3.918
 4795TIP3    H214392   4.926   1.800   3.858
 4796TIP3   OH214393   6.289   3.724   3.973
 4796TIP3    H114394   6.219   3.708   3.910
 4796TIP3    H214395   6.322   3.811   3.951
 4797TIP3   OH214396   0.852   5.866   3.378
 4797TIP3    H114397   0.813   5.952   3.360
 4797TIP3    H214398   0.818   5.841   3.463
 4798TIP3   OH214399   0.021   1.843   0.217
 4798TIP3    H114400  -0.010   1.929   0.245
 4798TIP3    H214401   0.097   1.862   0.162
 4799TIP3   OH214402   0.976   5.259   0.231
 4799TIP3    H114403   1.071   5.265   0.220
 4799TIP3    H214404   0.946   5.350   0.231
 4800TIP3   OH214405   3.915   4.666   0.969
 4800TIP3    H114406   3.922   4.575   0.997
 4800TIP3    H214407   3.835   4.668   0.915
 4801TIP3   OH214408   6.132   3.056   0.138
 4801TIP3    H114409   6.149   2.989   0.204
 4801TIP3    H214410   6.086   3.010   0.068
 4802TIP3   OH214411   5.599   4.456   2.274
 4802TIP3    H114412   5.518   4.506   2.265
 4802TIP3    H214413   5.661   4.500   2.217
 4803TIP3   OH214414   5.167   5.278   1.168
 4803TIP3    H114415   5.080   5.243   1.183
 4803TIP3    H214416   5.152   5.368   1.139
 4804TIP3   OH214417   5.476   0.653   0.794
 4804TIP3    H114418   5.446   0.699   0.873
 4804TIP3    H214419   5.548   0.706   0.761
 4805TIP3   OH214420   2.463   2.958   2.475
 4805TIP3    H114421   2.449   3.051   2.454
 4805TIP3    H214422   2.495   2.920   2.393
 4806TIP3   OH214423   1.005   4.510   0.516
 4806TIP3    H114424   0.995   4.603   0.496
 4806TIP3    H214425   0.918   4.482   0.545
 4807TIP3   OH214426   4.810   4.335   1.314
 4807TIP3    H114427   4.812   4.403   1.381
 4807TIP3    H214428   4.738   4.278   1.340
 4808TIP3   OH214429   0.665   0.054   4.830
 4808TIP3    H114430   0.600  -0.006   4.866
 4808TIP3    H214431   0.631   0.141   4.852
 4809TIP3   OH214432   4.527   0.936   3.296
 4809TIP3    H114433   4.487   1.016   3.329
 4809TIP3    H214434   4.621   0.950   3.308
 4810TIP3   OH214435   3.541   0.603   2.081
 4810TIP3    H114436   3.487   0.538   2.126
 4810TIP3    H214437   3.488   0.683   2.081
 4811TIP3   OH214438   0.710   2.425   2.122
 4811TIP3    H114439   0.793   2.430   2.169
 4811TIP3    H214440   0.647   2.469   2.180
 4812TIP3   OH214441   1.800   0.209   4.520
 4812TIP3    H114442   1.711   0.244   4.524
 4812TIP3    H214443   1.852   0.268   4.575
 4813TIP3   OH214444   0.451   5.444   1.862
 4813TIP3    H114445   0.375   5.433   1.918
 4813TIP3    H214446   0.514   5.493   1.916
 4814TIP3   OH214447   4.030   2.578   0.780
 4814TIP3    H114448   3.937   2.599   0.781
 4814TIP3    H214449   4.035   2.491   0.821
 4815TIP3   OH214450   6.247   2.617   1.078
 4815TIP3    H114451   6.338   2.586   1.080
 4815TIP3    H214452   6.208   2.571   1.003
 4816TIP3   OH214453   0.164   3.407   0.366
 4816TIP3    H114454   0.069   3.403   0.355
 4816TIP3    H214455   0.180   3.364   0.450
 4817TIP3   OH214456   3.183   0.296   4.635
 4817TIP3    H114457   3.211   0.383   4.607
 4817TIP3    H214458   3.101   0.281   4.588
 4818TIP3   OH214459   6.209   0.935   0.972
 4818TIP3    H114460   6.132   0.952   1.027
 4818TIP3    H214461   6.187   0.975   0.888
 4819TIP3   OH214462   2.376   1.534   3.354
 4819TIP3    H114463   2.453   1.589   3.367
 4819TIP3    H214464   2.303   1.584   3.391
 4820TIP3   OH214465   1.445   1.520   3.994
 4820TIP3    H114466   1.392   1.440   4.001
 4820TIP3    H214467   1.450   1.553   4.084
 4821TIP3   OH214468   1.976   3.275   2.465
 4821TIP3    H114469   1.956   3.369   2.465
 4821TIP3    H214470   2.069   3.271   2.445
 4822TIP3   OH214471   3.345   5.727   1.819
 4822TIP3    H114472   3.263   5.776   1.824
 4822TIP3    H214473   3.365   5.704   1.909
 4823TIP3   OH214474   0.661   0.529   4.618
 4823TIP3    H114475   0.693   0.481   4.694
 4823TIP3    H214476   0.724   0.509   4.549
 4824TIP3   OH214477   2.066   0.135   0.609
 4824TIP3    H114478   2.100   0.106   0.693
 4824TIP3    H214479   1.973   0.148   0.624
 4825TIP3   OH214480   4.636   2.751   0.820
 4825TIP3    H114481   4.557   2.701   0.843
 4825TIP3    H214482   4.603   2.822   0.766
 4826TIP3   OH214483   2.983   3.507   1.013
 4826TIP3    H114484   2.902   3.523   0.964
 4826TIP3    H214485   3.001   3.414   1.002
 4827TIP3   OH214486   1.199   0.770   4.109
 4827TIP3    H114487   1.120   0.806   4.069
 4827TIP3    H214488   1.220   0.694   4.055
 4828TIP3   OH214489   0.393   0.790   3.993
 4828TIP3    H114490   0.444   0.777   3.913
 4828TIP3    H214491   0.373   0.701   4.023
 4829TIP3   OH214492   1.315   1.205   1.934
 4829TIP3    H114493   1.381   1.254   1.885
 4829TIP3    H214494   1.363   1.167   2.008
 4830TIP3   OH214495   2.751   3.443   2.035
 4830TIP3    H114496   2.765   3.536   2.018
 4830TIP3    H214497   2.825   3.399   1.993
 4831TIP3   OH214498   2.857   4.233   3.757
 4831TIP3    H114499   2.922   4.301   3.771
 4831TIP3    H214500   2.881   4.193   3.674
 4832TIP3   OH214501   3.180   1.863   4.665
 4832TIP3    H114502   3.239   1.787   4.659
 4832TIP3    H214503   3.162   1.887   4.574
 4833TIP3   OH214504   2.740   1.048   0.195
 4833TIP3    H114505   2.757   1.103   0.118
 4833TIP3    H214506   2.772   0.961   0.170
 4834TIP3   OH214507   0.921   1.333   1.137
 4834TIP3    H114508   0.941   1.279   1.060
 4834TIP3    H214509   0.946   1.421   1.112
 4835TIP3   OH214510   4.450   3.029   3.277
 4835TIP3    H114511   4.383   3.071   3.224
 4835TIP3    H214512   4.438   3.066   3.365
 4836TIP3   OH214513   3.510   2.259   3.914
 4836TIP3    H114514   3.532   2.272   4.007
 4836TIP3    H214515   3.595   2.253   3.870
 4837TIP3   OH214516   3.979   1.890   4.368
 4837TIP3    H114517   4.046   1.936   4.317
 4837TIP3    H214518   3.995   1.916   4.459
 4838TIP3   OH214519   0.229   1.418   3.262
 4838TIP3    H114520   0.250   1.326   3.252
 4838TIP3    H214521   0.314   1.462   3.268
 4839TIP3   OH214522   4.018   0.905   1.092
 4839TIP3    H114523   4.007   0.924   0.999
 4839TIP3    H214524   4.069   0.824   1.094
 4840TIP3   OH214525   2.590   1.622   0.526
 4840TIP3    H114526   2.624   1.634   0.615
 4840TIP3    H214527   2.499   1.596   0.538
 4841TIP3   OH214528   1.142   3.889   3.337
 4841TIP3    H114529   1.165   3.940   3.415
 4841TIP3    H214530   1.054   3.917   3.315
 4842TIP3   OH214531   3.752   0.902   1.583
 4842TIP3    H114532   3.753   0.968   1.651
 4842TIP3    H214533   3.824   0.927   1.524
 4843TIP3   OH214534   5.075   3.907   2.586
 4843TIP3    H114535   5.004   3.858   2.628
 4843TIP3    H214536   5.144   3.842   2.575
 4844TIP3   OH214537   5.531   1.318   1.797
 4844TIP3    H114538   5.450   1.369   1.808
 4844TIP3    H214539   5.566   1.311   1.886
 4845TIP3   OH214540   6.364   5.053   2.364
 4845TIP3    H114541   6.348   4.987   2.297
 4845TIP3    H214542   6.325   5.133   2.328
 4846TIP3   OH214543   2.463   0.742   3.044
 4846TIP3    H114544   2.412   0.791   2.979
 4846TIP3    H214545   2.411   0.748   3.125
 4847TIP3   OH214546   0.204   0.530   4.518
 4847TIP3    H114547   0.278   0.469   4.518
 4847TIP3    H214548   0.129   0.476   4.494
 4848TIP3   OH214549   3.585   5.421   3.701
 4848TIP3    H114550   3.549   5.510   3.706
 4848TIP3    H214551   3.563   5.391   3.612
 4849TIP3   OH214552   1.321   3.536   1.732
 4849TIP3    H114553   1.347   3.628   1.741
 4849TIP3    H214554   1.403   3.487   1.740
 4850TIP3   OH214555   0.637   5.156   4.645
 4850TIP3    H114556   0.567   5.114   4.696
 4850TIP3    H214557   0.650   5.098   4.570
 4851TIP3   OH214558   2.082   1.564   3.363
 4851TIP3    H114559   2.125   1.497   3.417
 4851TIP3    H214560   2.075   1.640   3.419
 4852TIP3   OH214561   3.694   2.718   4.088
 4852TIP3    H114562   3.607   2.706   4.050
 4852TIP3    H214563   3.688   2.681   4.176
 4853TIP3   OH214564   3.715   5.222   2.356
 4853TIP3    H114565   3.671   5.213   2.272
 4853TIP3    H214566   3.658   5.177   2.418
 4854TIP3   OH214567   4.531   5.382   1.703
 4854TIP3    H114568   4.465   5.448   1.725
 4854TIP3    H214569   4.568   5.355   1.787
 4855TIP3   OH214570   4.143   3.354   3.717
 4855TIP3    H114571   4.222   3.370   3.769
 4855TIP3    H214572   4.090   3.296   3.772
 4856TIP3   OH214573   2.248   5.053   3.782
 4856TIP3    H114574   2.226   5.098   3.863
 4856TIP3    H214575   2.343   5.040   3.786
 4857TIP3   OH214576   2.685   0.019   2.904
 4857TIP3    H114577   2.659  -0.034   2.978
 4857TIP3    H214578   2.647  -0.024   2.828
 4858TIP3   OH214579   5.904   4.806   2.184
 4858TIP3    H114580   5.947   4.853   2.113
 4858TIP3    H214581   5.961   4.819   2.259
 4859TIP3   OH214582   5.125   2.481   3.811
 4859TIP3    H114583   5.165   2.456   3.894
 4859TIP3    H214584   5.190   2.459   3.745
 4860TIP3   OH214585   4.897   2.285   1.862
 4860TIP3    H114586   4.816   2.236   1.849
 4860TIP3    H214587   4.966   2.226   1.829
 4861TIP3   OH214588   4.697   5.046   3.771
 4861TIP3    H114589   4.638   4.971   3.780
 4861TIP3    H214590   4.713   5.075   3.861
 4862TIP3   OH214591   2.741   2.763   4.229
 4862TIP3    H114592   2.723   2.853   4.254
 4862TIP3    H214593   2.796   2.729   4.300
 4863TIP3   OH214594   6.213   5.744   1.967
 4863TIP3    H114595   6.142   5.808   1.974
 4863TIP3    H214596   6.228   5.735   1.873
 4864TIP3   OH214597   6.244   1.386   1.001
 4864TIP3    H114598   6.216   1.356   0.914
 4864TIP3    H214599   6.338   1.369   1.004
 4865TIP3   OH214600   3.144   0.585   2.460
 4865TIP3    H114601   3.071   0.633   2.499
 4865TIP3    H214602   3.212   0.651   2.449
 4866TIP3   OH214603   5.492   3.066   4.031
 4866TIP3    H114604   5.515   3.011   4.106
 4866TIP3    H214605   5.571   3.119   4.016
 4867TIP3   OH214606   1.915   4.576   0.091
 4867TIP3    H114607   1.970   4.623   0.029
 4867TIP3    H214608   1.826   4.587   0.058
 4868TIP3   OH214609   2.634   1.022   2.700
 4868TIP3    H114610   2.653   1.016   2.794
 4868TIP3    H214611   2.588   1.105   2.691
 4869TIP3   OH214612   3.555   3.154   1.182
 4869TIP3    H114613   3.567   3.108   1.099
 4869TIP3    H214614   3.559   3.246   1.159
 4870TIP3   OH214615   1.098   1.840   3.010
 4870TIP3    H114616   1.024   1.788   3.041
 4870TIP3    H214617   1.172   1.779   3.008
 4871TIP3   OH214618   2.336   5.116   3.246
 4871TIP3    H114619   2.368   5.080   3.163
 4871TIP3    H214620   2.267   5.055   3.273
 4872TIP3   OH214621   4.032   0.468   5.010
 4872TIP3    H114622   4.040   0.373   5.016
 4872TIP3    H214623   4.108   0.501   5.058
 4873TIP3   OH214624   5.350   0.818   4.858
 4873TIP3    H114625   5.281   0.785   4.800
 4873TIP3    H214626   5.331   0.778   4.943
 4874TIP3   OH214627   2.655   2.896   4.670
 4874TIP3    H114628   2.751   2.904   4.674
 4874TIP3    H214629   2.637   2.809   4.707
 4875TIP3   OH214630   0.645   1.874   1.108
 4875TIP3    H114631   0.655   1.780   1.124
 4875TIP3    H214632   0.582   1.879   1.036
 4876TIP3   OH214633   2.838   4.227   4.129
 4876TIP3    H114634   2.846   4.181   4.046
 4876TIP3    H214635   2.905   4.186   4.185
 4877TIP3   OH214636   3.077   4.933  -0.008
 4877TIP3    H114637   3.056   4.888   0.074
 4877TIP3    H214638   3.093   5.024   0.018
 4878TIP3   OH214639   1.939   5.234   2.521
 4878TIP3    H114640   1.904   5.259   2.436
 4878TIP3    H214641   1.862   5.214   2.574
 4879TIP3   OH214642   0.842   5.566   1.750
 4879TIP3    H114643   0.843   5.550   1.845
 4879TIP3    H214644   0.912   5.630   1.736
 4880TIP3   OH214645   3.224   2.548   3.756
 4880TIP3    H114646   3.156   2.580   3.815
 4880TIP3    H214647   3.284   2.621   3.747
 4881TIP3   OH214648   0.117   1.782   3.141
 4881TIP3    H114649   0.181   1.811   3.205
 4881TIP3    H214650   0.044   1.843   3.151
 4882TIP3   OH214651   2.711   1.344   2.008
 4882TIP3    H114652   2.684   1.300   2.088
 4882TIP3    H214653   2.797   1.307   1.988
 4883TIP3   OH214654   2.534   3.304   2.708
 4883TIP3    H114655   2.511   3.224   2.754
 4883TIP3    H214656   2.601   3.278   2.645
 4884TIP3   OH214657   4.665   5.545   0.735
 4884TIP3    H114658   4.634   5.489   0.806
 4884TIP3    H214659   4.752   5.511   0.714
 4885TIP3   OH214660   1.714   4.300   4.778
 4885TIP3    H114661   1.637   4.296   4.721
 4885TIP3    H214662   1.779   4.246   4.732
 4886TIP3   OH214663   2.085   1.013   3.113
 4886TIP3    H114664   2.082   1.097   3.158
 4886TIP3    H214665   2.082   0.948   3.183
 4887TIP3   OH214666   4.636   1.594   1.270
 4887TIP3    H114667   4.607   1.520   1.217
 4887TIP3    H214668   4.658   1.556   1.355
 4888TIP3   OH214669   3.513   1.562   1.343
 4888TIP3    H114670   3.535   1.549   1.251
 4888TIP3    H214671   3.418   1.571   1.344
 4889TIP3   OH214672   0.277   0.148   3.198
 4889TIP3    H114673   0.343   0.159   3.129
 4889TIP3    H214674   0.243   0.060   3.185
 4890TIP3   OH214675   2.884   5.837   0.629
 4890TIP3    H114676   2.852   5.876   0.710
 4890TIP3    H214677   2.920   5.753   0.655
 4891TIP3   OH214678   1.924   3.688   3.278
 4891TIP3    H114679   2.013   3.721   3.290
 4891TIP3    H214680   1.934   3.610   3.224
 4892TIP3   OH214681   5.605   2.581   0.665
 4892TIP3    H114682   5.658   2.607   0.741
 4892TIP3    H214683   5.526   2.635   0.671
 4893TIP3   OH214684   4.643   3.267   0.741
 4893TIP3    H114685   4.682   3.343   0.784
 4893TIP3    H214686   4.670   3.275   0.649
 4894TIP3   OH214687   4.571   3.187   3.769
 4894TIP3    H114688   4.610   3.235   3.842
 4894TIP3    H214689   4.485   3.160   3.801
 4895TIP3   OH214690   2.683   3.904   2.355
 4895TIP3    H114691   2.622   3.906   2.281
 4895TIP3    H214692   2.634   3.946   2.426
 4896TIP3   OH214693   1.604   4.339   1.462
 4896TIP3    H114694   1.599   4.415   1.521
 4896TIP3    H214695   1.678   4.289   1.494
 4897TIP3   OH214696   4.799   4.774   3.846
 4897TIP3    H114697   4.814   4.794   3.938
 4897TIP3    H214698   4.705   4.785   3.833
 4898TIP3   OH214699   1.979   2.425   5.090
 4898TIP3    H114700   1.887   2.441   5.070
 4898TIP3    H214701   1.978   2.368   5.168
 4899TIP3   OH214702   0.514   5.612   4.709
 4899TIP3    H114703   0.556   5.551   4.769
 4899TIP3    H214704   0.560   5.600   4.626
 4900TIP3   OH214705   3.717   5.516   3.290
 4900TIP3    H114706   3.701   5.604   3.323
 4900TIP3    H214707   3.808   5.498   3.314
 4901TIP3   OH214708   4.601   2.886   4.244
 4901TIP3    H114709   4.580   2.963   4.192
 4901TIP3    H214710   4.517   2.857   4.279
 4902TIP3   OH214711   5.062   1.915   4.516
 4902TIP3    H114712   5.127   1.846   4.501
 4902TIP3    H214713   4.981   1.869   4.536
 4903TIP3   OH214714   4.504   4.496   1.859
 4903TIP3    H114715   4.557   4.417   1.848
 4903TIP3    H214716   4.552   4.547   1.924
 4904TIP3   OH214717   1.362   3.179   0.305
 4904TIP3    H114718   1.359   3.275   0.309
 4904TIP3    H214719   1.331   3.158   0.217
 4905TIP3   OH214720   3.437   4.104   0.243
 4905TIP3    H114721   3.501   4.047   0.200
 4905TIP3    H214722   3.480   4.189   0.247
 4906TIP3   OH214723   6.018   1.712   0.792
 4906TIP3    H114724   6.035   1.695   0.700
 4906TIP3    H214725   5.925   1.735   0.796
 4907TIP3   OH214726   0.373   4.309   5.040
 4907TIP3    H114727   0.402   4.317   5.130
 4907TIP3    H214728   0.280   4.285   5.047
 4908TIP3   OH214729   4.415   4.691   1.673
 4908TIP3    H114730   4.455   4.644   1.745
 4908TIP3    H214731   4.339   4.638   1.648
 4909TIP3   OH214732   5.599   0.943   0.341
 4909TIP3    H114733   5.617   1.034   0.317
 4909TIP3    H214734   5.683   0.909   0.373
 4910TIP3   OH214735   3.896   4.109   0.241
 4910TIP3    H114736   3.848   4.094   0.322
 4910TIP3    H214737   3.900   4.023   0.199
 4911TIP3   OH214738   2.592   4.204   3.065
 4911TIP3    H114739   2.680   4.169   3.052
 4911TIP3    H214740   2.546   4.136   3.113
 4912TIP3   OH214741   1.001   3.974   2.916
 4912TIP3    H114742   0.954   4.018   2.987
 4912TIP3    H214743   1.040   4.045   2.866
 4913TIP3   OH214744   6.007   3.244   4.721
 4913TIP3    H114745   5.912   3.254   4.720
 4913TIP3    H214746   6.025   3.191   4.799
 4914TIP3   OH214747   4.391   3.173   1.436
 4914TIP3    H114748   4.383   3.268   1.426
 4914TIP3    H214749   4.385   3.158   1.530
 4915TIP3   OH214750   2.657   4.485   2.369
 4915TIP3    H114751   2.668   4.574   2.404
 4915TIP3    H214752   2.598   4.442   2.431
 4916TIP3   OH214753   3.299   5.499   4.089
 4916TIP3    H114754   3.310   5.410   4.124
 4916TIP3    H214755   3.269   5.486   3.999
 4917TIP3   OH214756   6.157   1.401   4.060
 4917TIP3    H114757   6.231   1.462   4.067
 4917TIP3    H214758   6.081   1.452   4.090
 4918TIP3   OH214759   0.070   3.013   4.616
 4918TIP3    H114760   0.041   2.955   4.546
 4918TIP3    H214761   0.029   3.097   4.597
 4919TIP3   OH214762   0.463   0.407   0.045
 4919TIP3    H114763   0.532   0.346   0.071
 4919TIP3    H214764   0.383   0.353   0.045
 4920TIP3   OH214765   2.822   5.732   4.417
 4920TIP3    H114766   2.885   5.753   4.486
 4920TIP3    H214767   2.777   5.814   4.400
 4921TIP3   OH214768   2.402   2.786   1.896
 4921TIP3    H114769   2.369   2.864   1.853
 4921TIP3    H214770   2.325   2.731   1.909
 4922TIP3   OH214771   0.586   0.528   5.020
 4922TIP3    H114772   0.543   0.567   5.096
 4922TIP3    H214773   0.526   0.545   4.947
 4923TIP3   OH214774   5.748   4.338   1.917
 4923TIP3    H114775   5.757   4.386   1.835
 4923TIP3    H214776   5.752   4.406   1.985
 4924TIP3   OH214777   2.698   0.298   3.073
 4924TIP3    H114778   2.626   0.358   3.093
 4924TIP3    H214779   2.655   0.220   3.038
 4925TIP3   OH214780   0.238   0.647   1.370
 4925TIP3    H114781   0.285   0.567   1.397
 4925TIP3    H214782   0.286   0.718   1.413
 4926TIP3   OH214783   1.466   4.335   2.806
 4926TIP3    H114784   1.556   4.305   2.793
 4926TIP3    H214785   1.430   4.277   2.873
 4927TIP3   OH214786   6.035   5.302   3.876
 4927TIP3    H114787   6.069   5.348   3.799
 4927TIP3    H214788   6.031   5.368   3.944
 4928TIP3   OH214789   3.943   1.024   1.325
 4928TIP3    H114790   3.966   0.960   1.258
 4928TIP3    H214791   3.936   1.107   1.278
 4929TIP3   OH214792   0.162   1.069   2.202
 4929TIP3    H114793   0.139   1.143   2.259
 4929TIP3    H214794   0.257   1.076   2.192
 4930TIP3   OH214795   3.251   0.568   3.697
 4930TIP3    H114796   3.244   0.663   3.693
 4930TIP3    H214797   3.341   0.552   3.727
 4931TIP3   OH214798   5.525   0.305   2.479
 4931TIP3    H114799   5.606   0.255   2.493
 4931TIP3    H214800   5.548   0.366   2.409
 4932TIP3   OH214801   3.216   4.987   2.954
 4932TIP3    H114802   3.228   5.040   2.876
 4932TIP3    H214803   3.149   4.923   2.930
 4933TIP3   OH214804   4.298   2.092   1.123
 4933TIP3    H114805   4.241   2.082   1.047
 4933TIP3    H214806   4.373   2.142   1.090
 4934TIP3   OH214807   1.024   1.745   4.945
 4934TIP3    H114808   1.021   1.812   5.013
 4934TIP3    H214809   0.999   1.664   4.989
 4935TIP3   OH214810   1.246   1.498   0.516
 4935TIP3    H114811   1.154   1.469   0.518
 4935TIP3    H214812   1.293   1.426   0.474
 4936TIP3   OH214813   3.773   4.570   0.205
 4936TIP3    H114814   3.784   4.480   0.175
 4936TIP3    H214815   3.849   4.588   0.260
 4937TIP3   OH214816   5.907   1.988   3.349
 4937TIP3    H114817   5.924   1.936   3.270
 4937TIP3    H214818   5.974   1.958   3.411
 4938TIP3   OH214819   1.243   4.010   3.865
 4938TIP3    H114820   1.230   3.933   3.921
 4938TIP3    H214821   1.201   4.082   3.912
 4939TIP3   OH214822   3.557   2.191   3.132
 4939TIP3    H114823   3.557   2.271   3.080
 4939TIP3    H214824   3.467   2.184   3.166
 4940TIP3   OH214825   0.656   3.844   2.111
 4940TIP3    H114826   0.582   3.888   2.151
 4940TIP3    H214827   0.654   3.871   2.019
 4941TIP3   OH214828   0.282   3.002   0.834
 4941TIP3    H114829   0.198   2.958   0.818
 4941TIP3    H214830   0.260   3.095   0.839
 4942TIP3   OH214831   0.036   5.432   2.526
 4942TIP3    H114832  -0.042   5.377   2.528
 4942TIP3    H214833   0.096   5.386   2.467
 4943TIP3   OH214834   4.051   5.026   1.690
 4943TIP3    H114835   3.991   4.993   1.757
 4943TIP3    H214836   4.026   5.118   1.678
 4944TIP3   OH214837   4.191   1.481   1.747
 4944TIP3    H114838   4.178   1.510   1.656
 4944TIP3    H214839   4.193   1.562   1.798
 4945TIP3   OH214840   0.224   2.466   4.284
 4945TIP3    H114841   0.313   2.447   4.312
 4945TIP3    H214842   0.205   2.552   4.323
 4946TIP3   OH214843   3.939   1.790   4.770
 4946TIP3    H114844   3.985   1.858   4.720
 4946TIP3    H214845   3.953   1.710   4.720
 4947TIP3   OH214846   5.808   1.885   4.551
 4947TIP3    H114847   5.789   1.791   4.540
 4947TIP3    H214848   5.749   1.928   4.489
 4948TIP3   OH214849   2.633   3.713   3.699
 4948TIP3    H114850   2.723   3.741   3.679
 4948TIP3    H214851   2.641   3.663   3.780
 4949TIP3   OH214852   3.764   3.540   1.497
 4949TIP3    H114853   3.680   3.550   1.541
 4949TIP3    H214854   3.754   3.590   1.415
 4950TIP3   OH214855   1.371   4.679   4.252
 4950TIP3    H114856   1.316   4.666   4.175
 4950TIP3    H214857   1.374   4.774   4.264
 4951TIP3   OH214858   5.283   5.853   2.532
 4951TIP3    H114859   5.187   5.860   2.530
 4951TIP3    H214860   5.302   5.768   2.493
 4952TIP3   OH214861   3.999   5.228   0.391
 4952TIP3    H114862   4.002   5.137   0.361
 4952TIP3    H214863   4.020   5.223   0.484
 4953TIP3   OH214864   1.294   3.379   0.933
 4953TIP3    H114865   1.377   3.406   0.972
 4953TIP3    H214866   1.317   3.313   0.869
 4954TIP3   OH214867   1.475   0.849   3.240
 4954TIP3    H114868   1.423   0.885   3.312
 4954TIP3    H214869   1.412   0.796   3.190
 4955TIP3   OH214870   2.899   5.717   1.838
 4955TIP3    H114871   2.900   5.729   1.743
 4955TIP3    H214872   2.807   5.704   1.859
 4956TIP3   OH214873   3.447   3.664   1.313
 4956TIP3    H114874   3.450   3.583   1.364
 4956TIP3    H214875   3.354   3.682   1.300
 4957TIP3   OH214876   3.504   1.049   0.890
 4957TIP3    H114877   3.578   1.105   0.911
 4957TIP3    H214878   3.480   1.008   0.973
 4958TIP3   OH214879   4.231   4.582   2.349
 4958TIP3    H114880   4.207   4.507   2.294
 4958TIP3    H214881   4.281   4.544   2.421
 4959TIP3   OH214882   5.019   1.237   5.169
 4959TIP3    H114883   5.102   1.190   5.163
 4959TIP3    H214884   5.041   1.328   5.152
 4960TIP3   OH214885   0.069   2.036   3.956
 4960TIP3    H114886   0.037   1.961   4.007
 4960TIP3    H214887   0.164   2.029   3.961
 4961TIP3   OH214888   5.173   2.661   3.418
 4961TIP3    H114889   5.148   2.610   3.340
 4961TIP3    H214890   5.224   2.600   3.471
 4962TIP3   OH214891   1.885   2.909   2.891
 4962TIP3    H114892   1.907   2.920   2.798
 4962TIP3    H214893   1.924   2.825   2.914
 4963TIP3   OH214894   4.848   4.056   2.555
 4963TIP3    H114895   4.921   3.999   2.530
 4963TIP3    H214896   4.838   4.043   2.649
 4964TIP3   OH214897   6.136   2.042   1.960
 4964TIP3    H114898   6.047   2.057   1.928
 4964TIP3    H214899   6.192   2.074   1.889
 4965TIP3   OH214900   1.857   5.833   1.179
 4965TIP3    H114901   1.821   5.914   1.142
 4965TIP3    H214902   1.805   5.763   1.139
 4966TIP3   OH214903   5.748   5.347   3.930
 4966TIP3    H114904   5.785   5.259   3.934
 4966TIP3    H214905   5.791   5.394   4.001
 4967TIP3   OH214906   5.591   2.579   4.777
 4967TIP3    H114907   5.612   2.541   4.692
 4967TIP3    H214908   5.575   2.503   4.834
 4968TIP3   OH214909   4.328   1.583   1.097
 4968TIP3    H114910   4.255   1.523   1.106
 4968TIP3    H214911   4.296   1.652   1.040
 4969TIP3   OH214912   4.066   5.685   0.263
 4969TIP3    H114913   4.043   5.730   0.182
 4969TIP3    H214914   4.016   5.731   0.331
 4970TIP3   OH214915   2.592   3.710   4.388
 4970TIP3    H114916   2.668   3.676   4.435
 4970TIP3    H214917   2.582   3.799   4.420
 4971TIP3   OH214918   0.807   5.052   1.174
 4971TIP3    H114919   0.851   4.982   1.124
 4971TIP3    H214920   0.854   5.132   1.149
 4972TIP3   OH214921   0.076   1.763   3.448
 4972TIP3    H114922   0.144   1.824   3.419
 4972TIP3    H214923   0.114   1.720   3.524
 4973TIP3   OH214924   2.026   3.131   4.602
 4973TIP3    H114925   1.983   3.216   4.587
 4973TIP3    H214926   2.030   3.090   4.516
 4974TIP3   OH214927   0.774   1.678   4.780
 4974TIP3    H114928   0.837   1.734   4.826
 4974TIP3    H214929   0.806   1.589   4.796
 4975TIP3   OH214930   0.636   1.598   0.483
 4975TIP3    H114931   0.567   1.602   0.418
 4975TIP3    H214932   0.690   1.676   0.465
 4976TIP3   OH214933   3.491   3.410   1.409
 4976TIP3    H114934   3.580   3.378   1.395
 4976TIP3    H214935   3.438   3.331   1.414
 4977TIP3   OH214936   3.794   4.799   2.370
 4977TIP3    H114937   3.814   4.706   2.382
 4977TIP3    H214938   3.783   4.833   2.459
 4978TIP3   OH214939   5.090   5.222   3.178
 4978TIP3    H114940   5.174   5.196   3.217
 4978TIP3    H214941   5.085   5.317   3.193
 4979TIP3   OH214942   0.511   3.015   2.369
 4979TIP3    H114943   0.474   2.927   2.360
 4979TIP3    H214944   0.444   3.064   2.416
 4980TIP3   OH214945   0.029   0.529   4.846
 4980TIP3    H114946   0.123   0.523   4.864
 4980TIP3    H214947   0.021   0.608   4.793
 4981TIP3   OH214948   1.997   4.634   1.400
 4981TIP3    H114949   2.024   4.700   1.464
 4981TIP3    H214950   1.945   4.571   1.451
 4982TIP3   OH214951   5.179   4.467   1.848
 4982TIP3    H114952   5.201   4.448   1.757
 4982TIP3    H214953   5.150   4.384   1.884
 4983TIP3   OH214954   0.936   4.188   1.909
 4983TIP3    H114955   0.974   4.115   1.862
 4983TIP3    H214956   0.891   4.240   1.842
 4984TIP3   OH214957   5.526   2.339   3.850
 4984TIP3    H114958   5.517   2.294   3.766
 4984TIP3    H214959   5.512   2.431   3.829
 4985TIP3   OH214960   3.024   3.776   4.756
 4985TIP3    H114961   3.098   3.730   4.796
 4985TIP3    H214962   2.951   3.760   4.816
 4986TIP3   OH214963   2.800   3.167   0.443
 4986TIP3    H114964   2.811   3.172   0.348
 4986TIP3    H214965   2.828   3.078   0.466
 4987TIP3   OH214966   1.594   2.803   1.184
 4987TIP3    H114967   1.626   2.859   1.255
 4987TIP3    H214968   1.638   2.837   1.105
 4988TIP3   OH214969   0.546   2.176   3.487
 4988TIP3    H114970   0.569   2.237   3.416
 4988TIP3    H214971   0.571   2.222   3.567
 4989TIP3   OH214972   4.145   5.312   1.604
 4989TIP3    H114973   4.176   5.249   1.539
 4989TIP3    H214974   4.211   5.309   1.674
 4990TIP3   OH214975   3.539   1.277   3.033
 4990TIP3    H114976   3.590   1.344   3.079
 4990TIP3    H214977   3.530   1.311   2.944
 4991TIP3   OH214978   4.095   3.067   4.618
 4991TIP3    H114979   4.171   3.121   4.637
 4991TIP3    H214980   4.089   3.006   4.692
 4992TIP3   OH214981  -0.046   0.292   0.355
 4992TIP3    H114982  -0.049   0.245   0.272
 4992TIP3    H214983   0.048   0.303   0.373
 4993TIP3   OH214984   1.319   3.050   4.369
 4993TIP3    H114985   1.268   2.975   4.400
 4993TIP3    H214986   1.266   3.088   4.299
 4994TIP3   OH214987   4.333   1.645   4.896
 4994TIP3    H114988   4.393   1.720   4.897
 4994TIP3    H214989   4.386   1.573   4.860
 4995TIP3   OH214990   1.727   2.548   1.843
 4995TIP3    H114991   1.762   2.627   1.802
 4995TIP3    H214992   1.786   2.532   1.917
 4996TIP3   OH214993   5.665   0.095   2.906
 4996TIP3    H114994   5.599   0.119   2.841
 4996TIP3    H214995   5.717   0.027   2.864
 4997TIP3   OH214996   0.576   3.471   4.967
 4997TIP3    H114997   0.654   3.506   4.924
 4997TIP3    H214998   0.532   3.420   4.899
 4998TIP3   OH214999   4.330   0.595   1.996
 4998TIP3    H115000   4.392   0.601   1.924
 4998TIP3    H215001   4.334   0.681   2.038
 4999TIP3   OH215002   3.869   5.947   2.430
 4999TIP3    H115003   3.889   5.861   2.468
 4999TIP3    H215004   3.941   6.003   2.460
 5000TIP3   OH215005   0.128   5.432   4.369
 5000TIP3    H115006   0.165   5.519   4.382
 5000TIP3    H215007   0.183   5.374   4.421
 5001TIP3   OH215008   2.874   5.056   0.200
 5001TIP3    H115009   2.910   4.973   0.230
 5001TIP3    H215010   2.899   5.120   0.267
 5002TIP3   OH215011   2.237   3.917   0.290
 5002TIP3    H115012   2.159   3.961   0.325
 5002TIP3    H215013   2.283   3.986   0.242
 5003TIP3   OH215014   4.615   5.198   4.009
 5003TIP3    H115015   4.707   5.207   4.036
 5003TIP3    H215016   4.587   5.287   3.989
 5004TIP3   OH215017   0.284   1.695   4.182
 5004TIP3    H115018   0.340   1.617   4.182
 5004TIP3    H215019   0.274   1.717   4.275
 5005TIP3   OH215020   0.507   3.516   4.092
 5005TIP3    H115021   0.592   3.559   4.101
 5005TIP3    H215022   0.528   3.427   4.064
 5006TIP3   OH215023   0.540   2.414   0.023
 5006TIP3    H115024   0.603   2.453   0.083
 5006TIP3    H215025   0.481   2.486   0.000
 5007TIP3   OH215026   5.801   1.652   0.458
 5007TIP3    H115027   5.750   1.714   0.406
 5007TIP3    H215028   5.807   1.693   0.545
 5008TIP3   OH215029   6.182   2.784   3.318
 5008TIP3    H115030   6.200   2.733   3.239
 5008TIP3    H215031   6.088   2.800   3.315
 5009TIP3   OH215032   4.116   1.555   2.101
 5009TIP3    H115033   4.082   1.475   2.061
 5009TIP3    H215034   4.130   1.615   2.028
 5010TIP3   OH215035   5.314   3.525   1.669
 5010TIP3    H115036   5.336   3.435   1.644
 5010TIP3    H215037   5.376   3.579   1.620
 5011TIP3   OH215038   3.040   2.693   3.968
 5011TIP3    H115039   2.970   2.648   3.920
 5011TIP3    H215040   3.000   2.774   3.998
 5012TIP3   OH215041   4.932   2.105   0.219
 5012TIP3    H115042   4.986   2.079   0.293
 5012TIP3    H215043   4.935   2.030   0.159
 5013TIP3   OH215044   4.624   0.492   2.394
 5013TIP3    H115045   4.539   0.506   2.353
 5013TIP3    H215046   4.610   0.419   2.455
 5014TIP3   OH215047   4.060   1.129   3.906
 5014TIP3    H115048   3.974   1.088   3.910
 5014TIP3    H215049   4.045   1.214   3.865
 5015TIP3   OH215050   1.872   2.746   4.887
 5015TIP3    H115051   1.832   2.825   4.925
 5015TIP3    H215052   1.955   2.776   4.851
 5016TIP3   OH215053   1.198   0.642   4.983
 5016TIP3    H115054   1.145   0.564   4.971
 5016TIP3    H215055   1.261   0.640   4.911
 5017TIP3   OH215056   0.095   2.773   2.657
 5017TIP3    H115057   0.008   2.800   2.687
 5017TIP3    H215058   0.139   2.854   2.634
 5018TIP3   OH215059   5.687   5.814   3.657
 5018TIP3    H115060   5.628   5.799   3.583
 5018TIP3    H215061   5.726   5.728   3.674
 5019TIP3   OH215062   6.163   2.215   4.006
 5019TIP3    H115063   6.177   2.268   4.084
 5019TIP3    H215064   6.250   2.182   3.984
 5020TIP3   OH215065   2.478   3.444   0.701
 5020TIP3    H115066   2.564   3.421   0.666
 5020TIP3    H215067   2.447   3.363   0.743
 5021TIP3   OH215068   0.560   5.525   0.762
 5021TIP3    H115069   0.599   5.570   0.837
 5021TIP3    H215070   0.487   5.475   0.798
 5022TIP3   OH215071   0.053   1.183   1.990
 5022TIP3    H115072   0.080   1.134   2.068
 5022TIP3    H215073   0.127   1.177   1.930
 5023TIP3   OH215074   3.903   2.892   4.170
 5023TIP3    H115075   3.823   2.843   4.150
 5023TIP3    H215076   3.921   2.872   4.262
 5024TIP3   OH215077   2.654   5.066   2.606
 5024TIP3    H115078   2.669   5.140   2.665
 5024TIP3    H215079   2.686   4.990   2.655
 5025TIP3   OH215080   3.562   5.007   3.119
 5025TIP3    H115081   3.623   4.955   3.172
 5025TIP3    H215082   3.618   5.065   3.068
 5026TIP3   OH215083   5.021   3.472   1.060
 5026TIP3    H115084   5.026   3.378   1.045
 5026TIP3    H215085   4.985   3.481   1.149
 5027TIP3   OH215086   4.209   4.722   0.069
 5027TIP3    H115087   4.277   4.729   0.136
 5027TIP3    H215088   4.165   4.639   0.087
 5028TIP3   OH215089   1.619   0.022   4.015
 5028TIP3    H115090   1.618  -0.013   4.104
 5028TIP3    H215091   1.683  -0.031   3.968
 5029TIP3   OH215092   4.709   0.711   1.131
 5029TIP3    H115093   4.624   0.749   1.107
 5029TIP3    H215094   4.711   0.626   1.086
 5030TIP3   OH215095   2.038   1.140   0.561
 5030TIP3    H115096   1.987   1.107   0.634
 5030TIP3    H215097   2.065   1.062   0.513
 5031TIP3   OH215098   4.844   2.705   1.741
 5031TIP3    H115099   4.810   2.634   1.687
 5031TIP3    H215100   4.934   2.716   1.711
 5032TIP3   OH215101   0.773   3.734   1.379
 5032TIP3    H115102   0.868   3.724   1.385
 5032TIP3    H215103   0.750   3.785   1.457
 5033TIP3   OH215104   2.474   4.948   0.547
 5033TIP3    H115105   2.436   4.877   0.495
 5033TIP3    H215106   2.492   4.908   0.632
 5034TIP3   OH215107   5.991   5.790   3.554
 5034TIP3    H115108   5.953   5.811   3.639
 5034TIP3    H215109   6.059   5.725   3.574
 5035TIP3   OH215110   3.387   0.127   0.949
 5035TIP3    H115111   3.319   0.060   0.947
 5035TIP3    H215112   3.344   0.204   0.985
 5036TIP3   OH215113   6.195   0.298   5.058
 5036TIP3    H115114   6.216   0.338   5.142
 5036TIP3    H215115   6.280   0.274   5.021
 5037TIP3   OH215116   0.692   0.360   1.951
 5037TIP3    H115117   0.714   0.430   1.890
 5037TIP3    H215118   0.714   0.396   2.037
 5038TIP3   OH215119   4.838   2.971   1.783
 5038TIP3    H115120   4.831   2.877   1.769
 5038TIP3    H215121   4.932   2.988   1.787
 5039TIP3   OH215122   4.606   5.688   0.176
 5039TIP3    H115123   4.659   5.609   0.163
 5039TIP3    H215124   4.568   5.677   0.263
 5040TIP3   OH215125   5.521   1.823   4.409
 5040TIP3    H115126   5.439   1.805   4.362
 5040TIP3    H215127   5.529   1.918   4.408
 5041TIP3   OH215128   1.299   5.182   0.243
 5041TIP3    H115129   1.347   5.252   0.286
 5041TIP3    H215130   1.269   5.126   0.314
 5042TIP3   OH215131   5.582   0.599   4.326
 5042TIP3    H115132   5.558   0.678   4.276
 5042TIP3    H215133   5.521   0.532   4.296
 5043TIP3   OH215134   1.556   0.281   0.944
 5043TIP3    H115135   1.510   0.261   1.026
 5043TIP3    H215136   1.515   0.224   0.879
 5044TIP3   OH215137   1.130   4.562   4.474
 5044TIP3    H115138   1.035   4.573   4.478
 5044TIP3    H215139   1.164   4.650   4.458
 5045TIP3   OH215140   4.350   3.037   2.554
 5045TIP3    H115141   4.402   3.005   2.481
 5045TIP3    H215142   4.381   3.127   2.567
 5046TIP3   OH215143   5.303   2.711   0.402
 5046TIP3    H115144   5.337   2.763   0.475
 5046TIP3    H215145   5.360   2.732   0.329
 5047TIP3   OH215146   2.944   5.472   4.512
 5047TIP3    H115147   2.934   5.548   4.454
 5047TIP3    H215148   2.865   5.473   4.566
 5048TIP3   OH215149   5.570   4.549   2.612
 5048TIP3    H115150   5.620   4.473   2.641
 5048TIP3    H215151   5.480   4.518   2.606
 5049TIP3   OH215152   5.274   1.036   0.308
 5049TIP3    H115153   5.323   0.962   0.273
 5049TIP3    H215154   5.221   0.999   0.379
 5050TIP3   OH215155   0.141   0.955   1.001
 5050TIP3    H115156   0.053   0.938   1.035
 5050TIP3    H215157   0.130   0.953   0.906
 5051TIP3   OH215158   1.369   5.522   0.176
 5051TIP3    H115159   1.300   5.514   0.242
 5051TIP3    H215160   1.411   5.436   0.176
 5052TIP3   OH215161   1.053   5.792   4.101
 5052TIP3    H115162   1.105   5.762   4.176
 5052TIP3    H215163   1.113   5.790   4.027
 5053TIP3   OH215164   4.570   3.703   1.930
 5053TIP3    H115165   4.650   3.698   1.878
 5053TIP3    H215166   4.601   3.722   2.019
 5054TIP3   OH215167   5.158   5.004   0.348
 5054TIP3    H115168   5.166   5.085   0.297
 5054TIP3    H215169   5.175   5.031   0.439
 5055TIP3   OH215170   0.019   2.673   0.234
 5055TIP3    H115171   0.072   2.646   0.309
 5055TIP3    H215172   0.037   2.608   0.166
 5056TIP3   OH215173   1.090   5.595   4.844
 5056TIP3    H115174   1.051   5.628   4.925
 5056TIP3    H215175   1.140   5.669   4.810
 5057TIP3   OH215176   4.187   5.901   4.511
 5057TIP3    H115177   4.250   5.875   4.445
 5057TIP3    H215178   4.170   5.994   4.493
 5058TIP3   OH215179   0.972   2.468   2.304
 5058TIP3    H115180   1.003   2.473   2.213
 5058TIP3    H215181   0.993   2.379   2.331
 5059TIP3   OH215182   4.738   2.967   2.245
 5059TIP3    H115183   4.794   3.044   2.230
 5059TIP3    H215184   4.784   2.916   2.310
 5060TIP3   OH215185   5.458   4.004   0.567
 5060TIP3    H115186   5.527   3.938   0.568
 5060TIP3    H215187   5.501   4.084   0.596
 5061TIP3   OH215188   2.415   2.914   1.393
 5061TIP3    H115189   2.384   2.941   1.307
 5061TIP3    H215190   2.381   2.825   1.403
 5062TIP3   OH215191   2.092   4.391   5.003
 5062TIP3    H115192   2.066   4.440   5.081
 5062TIP3    H215193   2.044   4.309   5.009
 5063TIP3   OH215194   3.136   5.240   4.480
 5063TIP3    H115195   3.218   5.286   4.502
 5063TIP3    H215196   3.067   5.302   4.504
 5064TIP3   OH215197   4.636   4.825   2.294
 5064TIP3    H115198   4.675   4.858   2.213
 5064TIP3    H215199   4.542   4.832   2.281
 5065TIP3   OH215200   3.936   2.322   3.283
 5065TIP3    H115201   3.854   2.292   3.322
 5065TIP3    H215202   3.991   2.344   3.358
 5066TIP3   OH215203   1.624   0.867   0.971
 5066TIP3    H115204   1.712   0.901   0.984
 5066TIP3    H215205   1.626   0.780   1.011
 5067TIP3   OH215206   2.307   4.145   0.659
 5067TIP3    H115207   2.338   4.224   0.704
 5067TIP3    H215208   2.364   4.139   0.582
 5068TIP3   OH215209   1.461   5.971   0.827
 5068TIP3    H115210   1.394   6.020   0.874
 5068TIP3    H215211   1.422   5.955   0.741
 5069TIP3   OH215212   4.786   2.111   3.204
 5069TIP3    H115213   4.832   2.074   3.129
 5069TIP3    H215214   4.783   2.205   3.186
 5070TIP3   OH215215   4.074   4.249   0.398
 5070TIP3    H115216   4.020   4.233   0.321
 5070TIP3    H215217   4.102   4.162   0.427
 5071TIP3   OH215218   0.548   2.989   4.726
 5071TIP3    H115219   0.601   2.949   4.657
 5071TIP3    H215220   0.479   3.037   4.678
 5072TIP3   OH215221   1.253   3.221   1.749
 5072TIP3    H115222   1.315   3.177   1.691
 5072TIP3    H215223   1.293   3.307   1.766
 5073TIP3   OH215224   4.120   5.783   1.015
 5073TIP3    H115225   4.067   5.713   1.052
 5073TIP3    H215226   4.136   5.842   1.088
 5074TIP3   OH215227   5.814   5.026   0.064
 5074TIP3    H115228   5.773   5.061  -0.015
 5074TIP3    H215229   5.770   5.071   0.136
 5075TIP3   OH215230   4.176   0.070   0.575
 5075TIP3    H115231   4.094   0.077   0.526
 5075TIP3    H215232   4.242   0.112   0.520
 5076TIP3   OH215233   6.052   1.333   4.921
 5076TIP3    H115234   5.987   1.263   4.920
 5076TIP3    H215235   6.136   1.288   4.930
 5077TIP3   OH215236   2.694   1.544   1.064
 5077TIP3    H115237   2.677   1.617   1.124
 5077TIP3    H215238   2.775   1.568   1.019
 5078TIP3   OH215239   4.410   5.886   3.132
 5078TIP3    H115240   4.494   5.842   3.121
 5078TIP3    H215241   4.361   5.866   3.052
 5079TIP3   OH215242   4.146   5.427   3.899
 5079TIP3    H115243   4.051   5.437   3.906
 5079TIP3    H215244   4.176   5.420   3.990
 5080TIP3   OH215245   3.253   3.779   1.028
 5080TIP3    H115246   3.170   3.790   0.982
 5080TIP3    H215247   3.228   3.747   1.115
 5081TIP3   OH215248   5.879   0.373   2.427
 5081TIP3    H115249   5.807   0.391   2.367
 5081TIP3    H215250   5.867   0.436   2.498
 5082TIP3   OH215251   4.940   3.951   0.853
 5082TIP3    H115252   5.020   4.002   0.869
 5082TIP3    H215253   4.957   3.867   0.895
 5083TIP3   OH215254   1.896   0.434   3.770
 5083TIP3    H115255   1.908   0.507   3.831
 5083TIP3    H215256   1.832   0.378   3.813
 5084TIP3   OH215257   4.324   5.228   2.968
 5084TIP3    H115258   4.287   5.151   2.925
 5084TIP3    H215259   4.359   5.281   2.896
 5085TIP3   OH215260   1.809   3.246   1.351
 5085TIP3    H115261   1.790   3.214   1.439
 5085TIP3    H215262   1.794   3.340   1.356
 5086TIP3   OH215263   0.682   2.694   4.834
 5086TIP3    H115264   0.722   2.708   4.920
 5086TIP3    H215265   0.740   2.632   4.790
 5087TIP3   OH215266   0.638   5.931   4.923
 5087TIP3    H115267   0.713   5.984   4.950
 5087TIP3    H215268   0.641   5.854   4.980
 5088TIP3   OH215269   5.165   2.670   3.074
 5088TIP3    H115270   5.135   2.595   3.124
 5088TIP3    H215271   5.202   2.633   2.994
 5089TIP3   OH215272   5.827   1.457   5.086
 5089TIP3    H115273   5.907   1.506   5.070
 5089TIP3    H215274   5.857   1.371   5.118
 5090TIP3   OH215275   5.214   4.443   0.145
 5090TIP3    H115276   5.233   4.479   0.059
 5090TIP3    H215277   5.298   4.445   0.191
 5091TIP3   OH215278   3.077   3.054   1.004
 5091TIP3    H115279   3.154   3.092   0.962
 5091TIP3    H215280   3.016   3.035   0.933
 5092TIP3   OH215281   0.852   4.701   2.369
 5092TIP3    H115282   0.928   4.758   2.362
 5092TIP3    H215283   0.784   4.745   2.318
 5093TIP3   OH215284   3.963   0.153   2.499
 5093TIP3    H115285   3.989   0.240   2.466
 5093TIP3    H215286   4.028   0.133   2.566
 5094TIP3   OH215287   0.250   5.706   5.139
 5094TIP3    H115288   0.279   5.798   5.141
 5094TIP3    H215289   0.331   5.656   5.128
 5095TIP3   OH215290   3.514   3.361   2.896
 5095TIP3    H115291   3.517   3.297   2.824
 5095TIP3    H215292   3.586   3.421   2.876
 5096TIP3   OH215293   2.746   3.000   4.368
 5096TIP3    H115294   2.758   3.047   4.285
 5096TIP3    H215295   2.747   3.068   4.435
 5097TIP3   OH215296   5.265   4.811   2.712
 5097TIP3    H115297   5.187   4.839   2.664
 5097TIP3    H215298   5.280   4.721   2.681
 5098TIP3   OH215299   6.133   3.336   3.652
 5098TIP3    H115300   6.155   3.270   3.586
 5098TIP3    H215301   6.038   3.343   3.648
 5099TIP3   OH215302   5.241   5.083   0.623
 5099TIP3    H115303   5.287   5.020   0.679
 5099TIP3    H215304   5.150   5.080   0.653
 5100TIP3   OH215305   2.870   5.342   1.742
 5100TIP3    H115306   2.862   5.421   1.688
 5100TIP3    H215307   2.823   5.363   1.822
 5101TIP3   OH215308   4.683   0.823   2.646
 5101TIP3    H115309   4.705   0.916   2.641
 5101TIP3    H215310   4.647   0.811   2.734
 5102TIP3   OH215311   2.093   5.274   0.952
 5102TIP3    H115312   2.093   5.369   0.940
 5102TIP3    H215313   2.005   5.247   0.926
 5103TIP3   OH215314   0.037   3.489   2.745
 5103TIP3    H115315   0.129   3.514   2.754
 5103TIP3    H215316  -0.011   3.561   2.787
 5104TIP3   OH215317   1.912   2.232   1.923
 5104TIP3    H115318   1.938   2.144   1.950
 5104TIP3    H215319   1.967   2.250   1.847
 5105TIP3   OH215320   2.824   2.150   0.636
 5105TIP3    H115321   2.879   2.203   0.694
 5105TIP3    H215322   2.737   2.155   0.674
 5106TIP3   OH215323   2.888   0.378   4.319
 5106TIP3    H115324   2.881   0.469   4.346
 5106TIP3    H215325   2.858   0.377   4.228
 5107TIP3   OH215326   5.535   4.191   0.999
 5107TIP3    H115327   5.543   4.184   0.904
 5107TIP3    H215328   5.625   4.201   1.030
 5108TIP3   OH215329   3.171   2.230   2.147
 5108TIP3    H115330   3.135   2.253   2.233
 5108TIP3    H215331   3.148   2.138   2.135
 5109TIP3   OH215332   3.542   4.194   2.726
 5109TIP3    H115333   3.619   4.142   2.704
 5109TIP3    H215334   3.564   4.283   2.697
 5110TIP3   OH215335   2.422   1.814   3.862
 5110TIP3    H115336   2.425   1.721   3.883
 5110TIP3    H215337   2.504   1.850   3.895
 5111TIP3   OH215338   5.389   3.531   0.870
 5111TIP3    H115339   5.354   3.575   0.947
 5111TIP3    H215340   5.441   3.458   0.904
 5112TIP3   OH215341   2.169   5.555   1.909
 5112TIP3    H115342   2.127   5.641   1.902
 5112TIP3    H215343   2.101   5.498   1.946
 5113TIP3   OH215344   0.288   5.652   4.466
 5113TIP3    H115345   0.379   5.624   4.477
 5113TIP3    H215346   0.294   5.741   4.430
 5114TIP3   OH215347   6.198   4.699   4.914
 5114TIP3    H115348   6.135   4.720   4.983
 5114TIP3    H215349   6.155   4.630   4.862
 5115TIP3   OH215350   1.576   1.050   4.535
 5115TIP3    H115351   1.523   0.970   4.541
 5115TIP3    H215352   1.594   1.074   4.626
 5116TIP3   OH215353   1.258   1.765   0.476
 5116TIP3    H115354   1.272   1.678   0.514
 5116TIP3    H215355   1.170   1.789   0.505
 5117TIP3   OH215356   3.290   4.753   1.679
 5117TIP3    H115357   3.199   4.768   1.704
 5117TIP3    H215358   3.308   4.663   1.706
 5118TIP3   OH215359   1.247   3.440   3.950
 5118TIP3    H115360   1.301   3.509   3.988
 5118TIP3    H215361   1.174   3.487   3.909
 5119TIP3   OH215362   2.500   5.659   0.465
 5119TIP3    H115363   2.543   5.650   0.550
 5119TIP3    H215364   2.518   5.575   0.421
 5120TIP3   OH215365   2.137   2.344   0.781
 5120TIP3    H115366   2.215   2.386   0.816
 5120TIP3    H215367   2.084   2.323   0.859
 5121TIP3   OH215368   1.701   1.052   4.261
 5121TIP3    H115369   1.666   0.988   4.323
 5121TIP3    H215370   1.764   1.103   4.313
 5122TIP3   OH215371   5.743   4.270   1.141
 5122TIP3    H115372   5.696   4.266   1.224
 5122TIP3    H215373   5.823   4.221   1.156
 5123TIP3   OH215374   5.506   3.350   0.262
 5123TIP3    H115375   5.488   3.269   0.309
 5123TIP3    H215376   5.491   3.419   0.328
 5124TIP3   OH215377   1.831   1.493   1.184
 5124TIP3    H115378   1.769   1.565   1.175
 5124TIP3    H215379   1.851   1.465   1.095
 5125TIP3   OH215380   0.431   3.989   5.119
 5125TIP3    H115381   0.352   4.035   5.148
 5125TIP3    H215382   0.490   4.060   5.092
 5126TIP3   OH215383   2.553   3.900   1.181
 5126TIP3    H115384   2.638   3.942   1.166
 5126TIP3    H215385   2.550   3.882   1.275
 5127TIP3   OH215386   5.105   3.128   4.786
 5127TIP3    H115387   5.156   3.196   4.742
 5127TIP3    H215388   5.022   3.170   4.807
 5128TIP3   OH215389   5.099   0.551   1.117
 5128TIP3    H115390   5.055   0.585   1.195
 5128TIP3    H215391   5.146   0.473   1.148
 5129TIP3   OH215392   2.236   3.260   2.341
 5129TIP3    H115393   2.192   3.323   2.283
 5129TIP3    H215394   2.282   3.201   2.281
 5130TIP3   OH215395   0.819   2.207   1.979
 5130TIP3    H115396   0.786   2.296   1.994
 5130TIP3    H215397   0.767   2.175   1.905
 5131TIP3   OH215398   2.209   1.363   0.308
 5131TIP3    H115399   2.242   1.425   0.372
 5131TIP3    H215400   2.114   1.378   0.308
 5132TIP3   OH215401   3.355   5.430   0.748
 5132TIP3    H115402   3.286   5.485   0.786
 5132TIP3    H215403   3.323   5.340   0.762
 5133TIP3   OH215404   4.796   1.499   3.742
 5133TIP3    H115405   4.793   1.415   3.695
 5133TIP3    H215406   4.866   1.488   3.806
 5134TIP3   OH215407   2.239   1.999   3.800
 5134TIP3    H115408   2.243   2.066   3.868
 5134TIP3    H215409   2.304   1.933   3.827
 5135TIP3   OH215410   1.829   0.074   5.098
 5135TIP3    H115411   1.871   0.045   5.178
 5135TIP3    H215412   1.861   0.014   5.031
 5136TIP3   OH215413   3.463   2.927   1.927
 5136TIP3    H115414   3.396   2.995   1.932
 5136TIP3    H215415   3.413   2.845   1.923
 5137TIP3   OH215416   2.166   1.268   3.838
 5137TIP3    H115417   2.118   1.349   3.823
 5137TIP3    H215418   2.100   1.199   3.830
 5138TIP3   OH215419   2.492   5.773   4.633
 5138TIP3    H115420   2.441   5.823   4.570
 5138TIP3    H215421   2.575   5.819   4.641
 5139TIP3   OH215422   0.289   1.305   4.038
 5139TIP3    H115423   0.344   1.379   4.063
 5139TIP3    H215424   0.351   1.236   4.014
 5140TIP3   OH215425   3.073   0.735   0.805
 5140TIP3    H115426   3.063   0.815   0.753
 5140TIP3    H215427   2.987   0.722   0.845
 5141TIP3   OH215428   1.727   3.792   0.221
 5141TIP3    H115429   1.710   3.794   0.315
 5141TIP3    H215430   1.679   3.868   0.186
 5142TIP3   OH215431   1.644   1.173   1.216
 5142TIP3    H115432   1.625   1.248   1.272
 5142TIP3    H215433   1.724   1.135   1.254
 5143TIP3   OH215434   5.421   5.583   2.116
 5143TIP3    H115435   5.384   5.649   2.174
 5143TIP3    H215436   5.349   5.521   2.103
 5144TIP3   OH215437   5.847   0.519   1.092
 5144TIP3    H115438   5.851   0.604   1.047
 5144TIP3    H215439   5.931   0.477   1.070
 5145TIP3   OH215440   4.273   4.757   3.820
 5145TIP3    H115441   4.257   4.818   3.749
 5145TIP3    H215442   4.213   4.784   3.890
 5146TIP3   OH215443   4.803   4.553   1.135
 5146TIP3    H115444   4.816   4.460   1.153
 5146TIP3    H215445   4.875   4.577   1.077
 5147TIP3   OH215446   4.077   0.845   4.311
 5147TIP3    H115447   4.154   0.788   4.317
 5147TIP3    H215448   4.042   0.826   4.224
 5148TIP3   OH215449   5.182   4.882   4.673
 5148TIP3    H115450   5.141   4.801   4.642
 5148TIP3    H215451   5.276   4.863   4.671
 5149TIP3   OH215452   5.478   2.206   1.552
 5149TIP3    H115453   5.534   2.282   1.568
 5149TIP3    H215454   5.448   2.180   1.639
 5150TIP3   OH215455   5.217   4.971   1.649
 5150TIP3    H115456   5.205   4.881   1.681
 5150TIP3    H215457   5.185   4.969   1.559
 5151TIP3   OH215458   5.462   3.834   4.827
 5151TIP3    H115459   5.469   3.893   4.902
 5151TIP3    H215460   5.431   3.751   4.864
 5152TIP3   OH215461   0.783   3.311   3.109
 5152TIP3    H115462   0.751   3.304   3.019
 5152TIP3    H215463   0.809   3.403   3.118
 5153TIP3   OH215464   5.193   2.370   1.552
 5153TIP3    H115465   5.247   2.330   1.620
 5153TIP3    H215466   5.219   2.326   1.471
 5154TIP3   OH215467   2.110   4.201   1.016
 5154TIP3    H115468   2.187   4.258   1.016
 5154TIP3    H215469   2.060   4.227   1.093
 5155TIP3   OH215470   0.043   5.657   3.509
 5155TIP3    H115471   0.030   5.751   3.500
 5155TIP3    H215472   0.048   5.641   3.603
 5156TIP3   OH215473   4.590   4.089   1.089
 5156TIP3    H115474   4.563   4.160   1.146
 5156TIP3    H215475   4.685   4.093   1.087
 5157TIP3   OH215476   0.382   1.545   2.307
 5157TIP3    H115477   0.377   1.453   2.332
 5157TIP3    H215478   0.397   1.592   2.389
 5158TIP3   OH215479   5.605   0.389   1.198
 5158TIP3    H115480   5.545   0.457   1.169
 5158TIP3    H215481   5.686   0.406   1.151
 5159TIP3   OH215482   4.754   1.276   0.138
 5159TIP3    H115483   4.816   1.205   0.154
 5159TIP3    H215484   4.807   1.346   0.100
 5160TIP3   OH215485   6.211   1.111   2.303
 5160TIP3    H115486   6.188   1.188   2.355
 5160TIP3    H215487   6.301   1.126   2.276
 5161TIP3   OH215488   0.651   4.195   1.613
 5161TIP3    H115489   0.725   4.214   1.555
 5161TIP3    H215490   0.652   4.266   1.677
 5162TIP3   OH215491   0.069   0.079   3.864
 5162TIP3    H115492   0.137   0.143   3.887
 5162TIP3    H215493   0.117   0.007   3.823
 5163TIP3   OH215494   3.550   2.499   1.902
 5163TIP3    H115495   3.517   2.441   1.970
 5163TIP3    H215496   3.594   2.441   1.840
 5164TIP3   OH215497   5.695   3.015   2.636
 5164TIP3    H115498   5.721   3.071   2.563
 5164TIP3    H215499   5.638   2.949   2.597
 5165TIP3   OH215500   4.106   3.368   3.018
 5165TIP3    H115501   4.143   3.287   3.053
 5165TIP3    H215502   4.179   3.430   3.021
 5166TIP3   OH215503   4.374   0.728   3.199
 5166TIP3    H115504   4.449   0.787   3.192
 5166TIP3    H215505   4.307   0.780   3.243
 5167TIP3   OH215506   1.330   2.906   0.416
 5167TIP3    H115507   1.355   2.967   0.346
 5167TIP3    H215508   1.378   2.936   0.493
 5168TIP3   OH215509   1.008   3.510   4.711
 5168TIP3    H115510   1.029   3.445   4.644
 5168TIP3    H215511   0.946   3.466   4.769
 5169TIP3   OH215512   5.801   3.926   4.397
 5169TIP3    H115513   5.886   3.940   4.439
 5169TIP3    H215514   5.807   3.837   4.361
 5170TIP3   OH215515   5.026   3.763   4.510
 5170TIP3    H115516   5.084   3.786   4.438
 5170TIP3    H215517   5.022   3.842   4.564
 5171TIP3   OH215518   5.709   1.768   3.693
 5171TIP3    H115519   5.619   1.746   3.670
 5171TIP3    H215520   5.761   1.695   3.658
 5172TIP3   OH215521   4.251   4.665   3.069
 5172TIP3    H115522   4.314   4.667   3.141
 5172TIP3    H215523   4.166   4.673   3.111
 5173TIP3   OH215524   2.833   0.595   4.514
 5173TIP3    H115525   2.830   0.530   4.584
 5173TIP3    H215526   2.903   0.655   4.540
 5174TIP3   OH215527   1.931   3.480   0.397
 5174TIP3    H115528   1.943   3.574   0.413
 5174TIP3    H215529   1.871   3.476   0.322
 5175TIP3   OH215530   2.116   2.091   5.041
 5175TIP3    H115531   2.086   2.080   5.131
 5175TIP3    H215532   2.043   2.134   4.996
 5176TIP3   OH215533   4.525   5.055   4.630
 5176TIP3    H115534   4.596   5.022   4.575
 5176TIP3    H215535   4.520   5.148   4.608
 5177TIP3   OH215536   4.131   1.415   4.130
 5177TIP3    H115537   4.125   1.395   4.037
 5177TIP3    H215538   4.181   1.497   4.133
 5178TIP3   OH215539   1.871   2.225   3.488
 5178TIP3    H115540   1.892   2.188   3.402
 5178TIP3    H215541   1.952   2.216   3.539
 5179TIP3   OH215542   3.571   3.547   4.811
 5179TIP3    H115543   3.631   3.621   4.801
 5179TIP3    H215544   3.531   3.560   4.897
 5180TIP3   OH215545   4.951   3.904   2.850
 5180TIP3    H115546   5.016   3.852   2.898
 5180TIP3    H215547   4.970   3.994   2.875
 5181TIP3   OH215548   0.181   0.945   3.892
 5181TIP3    H115549   0.094   0.925   3.926
 5181TIP3    H215550   0.239   0.885   3.939
 5182TIP3   OH215551   6.040   3.245   0.329
 5182TIP3    H115552   6.080   3.210   0.409
 5182TIP3    H215553   6.080   3.195   0.258
 5183TIP3   OH215554   3.405   4.857   5.098
 5183TIP3    H115555   3.481   4.838   5.042
 5183TIP3    H215556   3.337   4.798   5.068
 5184TIP3   OH215557   4.985   4.316   1.029
 5184TIP3    H115558   5.058   4.274   0.984
 5184TIP3    H215559   5.014   4.407   1.040
 5185TIP3   OH215560   2.028   0.701   1.255
 5185TIP3    H115561   1.939   0.669   1.244
 5185TIP3    H215562   2.074   0.630   1.300
 5186TIP3   OH215563   1.085   5.361   3.375
 5186TIP3    H115564   1.129   5.386   3.455
 5186TIP3    H215565   0.999   5.402   3.381
 5187TIP3   OH215566   5.042   1.181   3.582
 5187TIP3    H115567   5.090   1.107   3.617
 5187TIP3    H215568   5.045   1.168   3.487
 5188TIP3   OH215569   2.902   2.929   0.106
 5188TIP3    H115570   2.866   2.846   0.076
 5188TIP3    H215571   2.910   2.919   0.201
 5189TIP3   OH215572   0.660   2.419   3.608
 5189TIP3    H115573   0.581   2.467   3.584
 5189TIP3    H215574   0.725   2.447   3.544
 5190TIP3   OH215575   5.521   5.249   3.481
 5190TIP3    H115576   5.493   5.173   3.531
 5190TIP3    H215577   5.555   5.310   3.546
 5191TIP3   OH215578   4.765   4.299   4.057
 5191TIP3    H115579   4.732   4.332   3.973
 5191TIP3    H215580   4.751   4.372   4.118
 5192TIP3   OH215581   4.131   2.051   0.230
 5192TIP3    H115582   4.073   2.127   0.227
 5192TIP3    H215583   4.074   1.978   0.258
 5193TIP3   OH215584   4.832   3.761   2.401
 5193TIP3    H115585   4.914   3.805   2.378
 5193TIP3    H215586   4.823   3.775   2.496
 5194TIP3   OH215587   3.467   4.787   3.805
 5194TIP3    H115588   3.526   4.861   3.793
 5194TIP3    H215589   3.410   4.789   3.728
 5195TIP3   OH215590   4.301   5.779   2.901
 5195TIP3    H115591   4.207   5.786   2.917
 5195TIP3    H215592   4.312   5.695   2.857
 5196TIP3   OH215593   5.539   4.229   0.704
 5196TIP3    H115594   5.456   4.276   0.716
 5196TIP3    H215595   5.595   4.291   0.657
 5197TIP3   OH215596   2.079   4.590   3.798
 5197TIP3    H115597   2.115   4.516   3.847
 5197TIP3    H215598   2.082   4.663   3.860
 5198TIP3   OH215599   5.048   4.883   4.911
 5198TIP3    H115600   5.084   4.894   4.823
 5198TIP3    H215601   5.124   4.887   4.969
 5199TIP3   OH215602   2.379   3.917   4.987
 5199TIP3    H115603   2.346   3.828   4.997
 5199TIP3    H215604   2.301   3.972   4.984
 5200TIP3   OH215605   1.862   2.170   2.235
 5200TIP3    H115606   1.956   2.168   2.217
 5200TIP3    H215607   1.852   2.116   2.313
 5201TIP3   OH215608   3.392   5.782   3.962
 5201TIP3    H115609   3.385   5.835   4.042
 5201TIP3    H215610   3.303   5.755   3.942
 5202TIP3   OH215611   4.918   5.918   3.033
 5202TIP3    H115612   4.989   5.916   3.098
 5202TIP3    H215613   4.963   5.908   2.949
 5203TIP3   OH215614   3.234   4.318   3.963
 5203TIP3    H115615   3.238   4.243   3.904
 5203TIP3    H215616   3.301   4.300   4.029
 5204TIP3   OH215617   1.508   2.363   0.536
 5204TIP3    H115618   1.441   2.302   0.507
 5204TIP3    H215619   1.568   2.309   0.588
 5205TIP3   OH215620   4.265   1.271   0.932
 5205TIP3    H115621   4.346   1.246   0.888
 5205TIP3    H215622   4.200   1.207   0.902
 5206TIP3   OH215623   2.728   1.251   3.601
 5206TIP3    H115624   2.773   1.324   3.558
 5206TIP3    H215625   2.691   1.290   3.680
 5207TIP3   OH215626   3.259   4.594   3.979
 5207TIP3    H115627   3.183   4.631   3.933
 5207TIP3    H215628   3.250   4.499   3.968
 5208TIP3   OH215629   5.726   1.256   3.137
 5208TIP3    H115630   5.667   1.183   3.155
 5208TIP3    H215631   5.690   1.297   3.059
 5209TIP3   OH215632   4.314   0.393   4.057
 5209TIP3    H115633   4.220   0.398   4.042
 5209TIP3    H215634   4.344   0.483   4.047
 5210TIP3   OH215635   6.375   5.203   3.935
 5210TIP3    H115636   6.302   5.141   3.927
 5210TIP3    H215637   6.363   5.242   4.021
 5211TIP3   OH215638   4.689   1.900   1.439
 5211TIP3    H115639   4.616   1.943   1.394
 5211TIP3    H215640   4.734   1.851   1.371
 5212TIP3   OH215641   1.897   4.215   3.936
 5212TIP3    H115642   1.860   4.299   3.959
 5212TIP3    H215643   1.832   4.151   3.964
 5213TIP3   OH215644   1.021   3.553   4.220
 5213TIP3    H115645   1.097   3.588   4.172
 5213TIP3    H215646   1.033   3.584   4.310
 5214TIP3   OH215647   5.475   0.748   2.375
 5214TIP3    H115648   5.522   0.820   2.334
 5214TIP3    H215649   5.509   0.669   2.332
 5215TIP3   OH215650   0.617   5.714   0.970
 5215TIP3    H115651   0.616   5.716   1.065
 5215TIP3    H215652   0.550   5.777   0.943
 5216TIP3   OH215653   1.970   0.890   3.670
 5216TIP3    H115654   2.000   0.827   3.605
 5216TIP3    H215655   1.875   0.881   3.671
 5217TIP3   OH215656   5.736   4.812   0.214
 5217TIP3    H115657   5.756   4.880   0.150
 5217TIP3    H215658   5.668   4.850   0.269
 5218TIP3   OH215659   5.878   4.561   3.284
 5218TIP3    H115660   5.911   4.475   3.262
 5218TIP3    H215661   5.869   4.559   3.380
 5219TIP3   OH215662   5.122   4.303   2.454
 5219TIP3    H115663   5.029   4.314   2.434
 5219TIP3    H215664   5.163   4.282   2.370
 5220TIP3   OH215665   5.675   3.562   2.593
 5220TIP3    H115666   5.647   3.551   2.502
 5220TIP3    H215667   5.750   3.502   2.601
 5221TIP3   OH215668   4.954   3.471   4.181
 5221TIP3    H115669   5.015   3.405   4.151
 5221TIP3    H215670   5.007   3.550   4.191
 5222TIP3   OH215671   0.036   5.836   3.765
 5222TIP3    H115672   0.105   5.802   3.820
 5222TIP3    H215673  -0.028   5.765   3.759
 5223TIP3   OH215674   3.202   5.632   4.494
 5223TIP3    H115675   3.162   5.546   4.510
 5223TIP3    H215676   3.267   5.641   4.564
 5224TIP3   OH215677   0.343   3.134   4.610
 5224TIP3    H115678   0.314   3.170   4.526
 5224TIP3    H215679   0.263   3.131   4.663
 5225TIP3   OH215680   1.038   5.227   5.092
 5225TIP3    H115681   1.037   5.170   5.169
 5225TIP3    H215682   1.014   5.314   5.126
 5226TIP3   OH215683   1.520   2.035   4.378
 5226TIP3    H115684   1.483   1.990   4.453
 5226TIP3    H215685   1.447   2.084   4.340
 5227TIP3   OH215686   3.701   4.163   3.033
 5227TIP3    H115687   3.747   4.167   3.117
 5227TIP3    H215688   3.650   4.244   3.030
 5228TIP3   OH215689   1.963   3.413   4.235
 5228TIP3    H115690   1.974   3.328   4.278
 5228TIP3    H215691   1.868   3.429   4.239
 5229TIP3   OH215692   3.193   1.322   3.423
 5229TIP3    H115693   3.240   1.245   3.392
 5229TIP3    H215694   3.195   1.316   3.518
 5230TIP3   OH215695   2.841   4.685   4.988
 5230TIP3    H115696   2.932   4.712   4.976
 5230TIP3    H215697   2.804   4.688   4.900
 5231TIP3   OH215698   1.951   0.358   2.059
 5231TIP3    H115699   1.991   0.444   2.069
 5231TIP3    H215700   1.925   0.354   1.967
 5232TIP3   OH215701   3.200   3.605   2.625
 5232TIP3    H115702   3.142   3.567   2.691
 5232TIP3    H215703   3.281   3.555   2.632
 5233TIP3   OH215704   0.747   2.845   3.506
 5233TIP3    H115705   0.791   2.765   3.534
 5233TIP3    H215706   0.746   2.840   3.411
 5234TIP3   OH215707   5.183   2.982   0.912
 5234TIP3    H115708   5.201   2.892   0.942
 5234TIP3    H215709   5.101   2.975   0.863
 5235TIP3   OH215710   0.431   0.483   0.945
 5235TIP3    H115711   0.423   0.429   1.023
 5235TIP3    H215712   0.375   0.559   0.962
 5236TIP3   OH215713   3.811   2.851   1.017
 5236TIP3    H115714   3.770   2.774   0.978
 5236TIP3    H215715   3.822   2.912   0.945
 5237TIP3   OH215716   2.151   3.839   3.735
 5237TIP3    H115717   2.236   3.843   3.779
 5237TIP3    H215718   2.167   3.876   3.648
 5238TIP3   OH215719   5.475   5.158   1.998
 5238TIP3    H115720   5.514   5.074   2.022
 5238TIP3    H215721   5.406   5.136   1.936
 5239TIP3   OH215722   1.376   5.164   2.686
 5239TIP3    H115723   1.446   5.099   2.692
 5239TIP3    H215724   1.314   5.138   2.755
 5240TIP3   OH215725   1.659   5.748   2.180
 5240TIP3    H115726   1.682   5.841   2.184
 5240TIP3    H215727   1.571   5.747   2.142
 5241TIP3   OH215728   5.844   0.641   1.363
 5241TIP3    H115729   5.831   0.619   1.271
 5241TIP3    H215730   5.834   0.736   1.366
 5242TIP3   OH215731   2.782   0.772   3.683
 5242TIP3    H115732   2.849   0.807   3.624
 5242TIP3    H215733   2.779   0.679   3.663
 5243TIP3   OH215734   5.913   4.151   2.721
 5243TIP3    H115735   5.963   4.200   2.656
 5243TIP3    H215736   5.852   4.098   2.670
 5244TIP3   OH215737   2.028   0.379   4.288
 5244TIP3    H115738   2.065   0.293   4.307
 5244TIP3    H215739   2.025   0.384   4.193
 5245TIP3   OH215740   0.715   2.758   1.413
 5245TIP3    H115741   0.763   2.835   1.443
 5245TIP3    H215742   0.772   2.718   1.348
 5246TIP3   OH215743   4.247   4.069   4.883
 5246TIP3    H115744   4.211   4.029   4.804
 5246TIP3    H215745   4.195   4.148   4.895
 5247TIP3   OH215746   4.431   3.998   4.472
 5247TIP3    H115747   4.430   4.066   4.406
 5247TIP3    H215748   4.522   3.993   4.502
 5248TIP3   OH215749   0.103   0.471   0.744
 5248TIP3    H115750   0.117   0.473   0.838
 5248TIP3    H215751   0.175   0.418   0.710
 5249TIP3   OH215752   6.105   1.094   0.184
 5249TIP3    H115753   6.168   1.048   0.129
 5249TIP3    H215754   6.136   1.079   0.273
 5250TIP3   OH215755   0.168   3.960   2.650
 5250TIP3    H115756   0.085   3.975   2.694
 5250TIP3    H215757   0.186   4.041   2.603
 5251TIP3   OH215758   4.768   5.289   2.749
 5251TIP3    H115759   4.763   5.357   2.816
 5251TIP3    H215760   4.838   5.318   2.691
 5252TIP3   OH215761   4.549   1.936   0.819
 5252TIP3    H115762   4.520   1.846   0.830
 5252TIP3    H215763   4.507   1.965   0.737
 5253TIP3   OH215764   3.563   4.133   4.628
 5253TIP3    H115765   3.586   4.040   4.619
 5253TIP3    H215766   3.468   4.132   4.644
 5254TIP3   OH215767   2.494   0.888   0.297
 5254TIP3    H115768   2.464   0.951   0.362
 5254TIP3    H215769   2.551   0.938   0.238
 5255TIP3   OH215770   5.425   1.405   4.663
 5255TIP3    H115771   5.375   1.376   4.739
 5255TIP3    H215772   5.425   1.500   4.669
 5256TIP3   OH215773   0.926   3.133   0.673
 5256TIP3    H115774   1.007   3.084   0.663
 5256TIP3    H215775   0.871   3.078   0.729
 5257TIP3   OH215776   0.253   3.855   3.092
 5257TIP3    H115777   0.291   3.919   3.151
 5257TIP3    H215778   0.287   3.771   3.122
 5258TIP3   OH215779   1.904   3.785   1.970
 5258TIP3    H115780   1.952   3.735   2.036
 5258TIP3    H215781   1.834   3.726   1.942
 5259TIP3   OH215782   5.058   3.766   2.017
 5259TIP3    H115783   4.966   3.741   2.025
 5259TIP3    H215784   5.085   3.731   1.932
 5260TIP3   OH215785   2.581   3.709   0.953
 5260TIP3    H115786   2.560   3.766   1.028
 5260TIP3    H215787   2.508   3.723   0.892
 5261TIP3   OH215788   5.408   3.039   2.620
 5261TIP3    H115789   5.441   3.028   2.709
 5261TIP3    H215790   5.377   3.130   2.617
 5262TIP3   OH215791   3.162   0.595   1.272
 5262TIP3    H115792   3.174   0.689   1.256
 5262TIP3    H215793   3.213   0.578   1.351
 5263TIP3   OH215794   2.208   0.096   3.651
 5263TIP3    H115795   2.204   0.020   3.709
 5263TIP3    H215796   2.237   0.060   3.567
 5264TIP3   OH215797   6.166   2.437   4.905
 5264TIP3    H115798   6.228   2.433   4.832
 5264TIP3    H215799   6.210   2.495   4.969
 5265TIP3   OH215800   0.887   3.525   5.179
 5265TIP3    H115801   0.818   3.583   5.147
 5265TIP3    H215802   0.969   3.565   5.148
 5266TIP3   OH215803   0.082   3.542   0.011
 5266TIP3    H115804   0.138   3.619   0.005
 5266TIP3    H215805   0.015   3.566   0.076
 5267TIP3   OH215806   1.574   2.783   2.990
 5267TIP3    H115807   1.606   2.693   2.984
 5267TIP3    H215808   1.639   2.835   2.941
 5268TIP3   OH215809   1.113   0.141   2.787
 5268TIP3    H115810   1.107   0.221   2.838
 5268TIP3    H215811   1.059   0.158   2.710
 5269TIP3   OH215812   3.956   2.476   4.858
 5269TIP3    H115813   4.039   2.509   4.826
 5269TIP3    H215814   3.967   2.381   4.859
 5270TIP3   OH215815   2.767   0.507   1.245
 5270TIP3    H115816   2.829   0.434   1.252
 5270TIP3    H215817   2.815   0.574   1.196
 5271TIP3   OH215818   1.690   5.200   4.885
 5271TIP3    H115819   1.601   5.193   4.921
 5271TIP3    H215820   1.702   5.293   4.867
 5272TIP3   OH215821   0.696   1.507   5.173
 5272TIP3    H115822   0.639   1.562   5.227
 5272TIP3    H215823   0.674   1.418   5.198
 5273TIP3   OH215824   3.816   5.478   0.607
 5273TIP3    H115825   3.769   5.501   0.527
 5273TIP3    H215826   3.806   5.555   0.663
 5274TIP3   OH215827   6.299   0.342   2.643
 5274TIP3    H115828   6.293   0.416   2.703
 5274TIP3    H215829   6.305   0.265   2.700
 5275TIP3   OH215830   2.181   4.679   4.934
 5275TIP3    H115831   2.198   4.634   5.017
 5275TIP3    H215832   2.087   4.667   4.919
 5276TIP3   OH215833   1.466   2.672   3.224
 5276TIP3    H115834   1.503   2.730   3.157
 5276TIP3    H215835   1.395   2.626   3.179
 5277TIP3   OH215836   3.535   4.206   4.315
 5277TIP3    H115837   3.623   4.228   4.345
 5277TIP3    H215838   3.491   4.171   4.392
 5278TIP3   OH215839   0.211   1.242   0.045
 5278TIP3    H115840   0.261   1.166   0.076
 5278TIP3    H215841   0.182   1.286   0.125
 5279TIP3   OH215842   3.301   0.371   0.121
 5279TIP3    H115843   3.238   0.387   0.051
 5279TIP3    H215844   3.296   0.277   0.137
 5280TIP3   OH215845   0.986   3.319   2.753
 5280TIP3    H115846   0.981   3.405   2.796
 5280TIP3    H215847   1.074   3.316   2.716
 5281TIP3   OH215848   2.228   2.037   4.629
 5281TIP3    H115849   2.280   1.968   4.669
 5281TIP3    H215850   2.147   2.038   4.680
 5282TIP3   OH215851   0.907   1.148   4.384
 5282TIP3    H115852   0.992   1.118   4.417
 5282TIP3    H215853   0.852   1.154   4.461
 5283TIP3   OH215854   2.615   4.244   1.128
 5283TIP3    H115855   2.681   4.175   1.131
 5283TIP3    H215856   2.579   4.248   1.217
 5284TIP3   OH215857   5.094   4.861   3.874
 5284TIP3    H115858   5.055   4.806   3.806
 5284TIP3    H215859   5.038   4.939   3.877
 5285TIP3   OH215860   3.440   0.530   2.552
 5285TIP3    H115861   3.350   0.513   2.579
 5285TIP3    H215862   3.463   0.456   2.497
 5286TIP3   OH215863   5.163   4.791   1.883
 5286TIP3    H115864   5.204   4.705   1.868
 5286TIP3    H215865   5.226   4.837   1.939
 5287TIP3   OH215866   6.033   3.126   2.009
 5287TIP3    H115867   6.118   3.082   2.021
 5287TIP3    H215868   6.007   3.151   2.098
 5288TIP3   OH215869   3.683   4.846   2.631
 5288TIP3    H115870   3.750   4.810   2.689
 5288TIP3    H215871   3.603   4.800   2.656
 5289TIP3   OH215872   5.962   5.084   0.836
 5289TIP3    H115873   5.951   5.177   0.858
 5289TIP3    H215874   6.057   5.071   0.831
 5290TIP3   OH215875   4.881   4.044   4.375
 5290TIP3    H115876   4.816   4.080   4.314
 5290TIP3    H215877   4.848   4.068   4.461
 5291TIP3   OH215878   1.867   1.269   4.383
 5291TIP3    H115879   1.901   1.291   4.297
 5291TIP3    H215880   1.882   1.346   4.437
 5292TIP3   OH215881   2.471   4.678   4.481
 5292TIP3    H115882   2.494   4.682   4.574
 5292TIP3    H215883   2.393   4.624   4.478
 5293TIP3   OH215884   2.795   0.972   5.175
 5293TIP3    H115885   2.816   1.046   5.118
 5293TIP3    H215886   2.868   0.967   5.237
 5294TIP3   OH215887   4.425   1.399   1.460
 5294TIP3    H115888   4.487   1.353   1.403
 5294TIP3    H215889   4.481   1.451   1.518
 5295TIP3   OH215890   4.136   4.725   2.566
 5295TIP3    H115891   4.190   4.666   2.619
 5295TIP3    H215892   4.170   4.716   2.477
 5296TIP3   OH215893   5.492   1.738   0.870
 5296TIP3    H115894   5.461   1.820   0.910
 5296TIP3    H215895   5.431   1.671   0.902
 5297TIP3   OH215896   1.525   3.605   0.992
 5297TIP3    H115897   1.583   3.671   1.029
 5297TIP3    H215898   1.566   3.580   0.909
 5298TIP3   OH215899   6.144   2.453   4.419
 5298TIP3    H115900   6.057   2.431   4.386
 5298TIP3    H215901   6.201   2.446   4.343
 5299TIP3   OH215902   3.257   3.357   2.371
 5299TIP3    H115903   3.219   3.364   2.283
 5299TIP3    H215904   3.186   3.383   2.429
 5300TIP3   OH215905   0.438   5.043   4.788
 5300TIP3    H115906   0.402   4.993   4.715
 5300TIP3    H215907   0.430   4.984   4.863
 5301TIP3   OH215908   4.781   5.549   4.309
 5301TIP3    H115909   4.866   5.545   4.352
 5301TIP3    H215910   4.797   5.517   4.221
 5302TIP3   OH215911   3.183   3.965   4.846
 5302TIP3    H115912   3.101   3.944   4.801
 5302TIP3    H215913   3.203   3.886   4.896
 5303TIP3   OH215914   0.311   5.901   2.164
 5303TIP3    H115915   0.227   5.947   2.159
 5303TIP3    H215916   0.376   5.971   2.160
 5304TIP3   OH215917   6.262   5.273   2.029
 5304TIP3    H115918   6.349   5.283   1.990
 5304TIP3    H215919   6.232   5.187   1.998
 5305TIP3   OH215920   2.905   1.426   5.044
 5305TIP3    H115921   2.994   1.455   5.023
 5305TIP3    H215922   2.857   1.506   5.063
 5306TIP3   OH215923   2.328   2.826   2.688
 5306TIP3    H115924   2.384   2.840   2.611
 5306TIP3    H215925   2.249   2.785   2.652
 5307TIP3   OH215926   3.665   5.095   3.477
 5307TIP3    H115927   3.662   5.022   3.415
 5307TIP3    H215928   3.619   5.166   3.433
 5308TIP3   OH215929   4.591   4.636   0.836
 5308TIP3    H115930   4.589   4.570   0.766
 5308TIP3    H215931   4.619   4.717   0.792
 5309TIP3   OH215932   5.638   4.267   1.396
 5309TIP3    H115933   5.547   4.293   1.384
 5309TIP3    H215934   5.687   4.349   1.402
 5310TIP3   OH215935   5.722   3.271   4.704
 5310TIP3    H115936   5.649   3.210   4.702
 5310TIP3    H215937   5.711   3.325   4.626
 5311TIP3   OH215938   0.442   4.729   3.061
 5311TIP3    H115939   0.415   4.806   3.012
 5311TIP3    H215940   0.398   4.737   3.145
 5312TIP3   OH215941   1.812   5.935   0.157
 5312TIP3    H115942   1.774   5.884   0.228
 5312TIP3    H215943   1.772   6.021   0.165
 5313TIP3   OH215944   5.836   0.012   2.210
 5313TIP3    H115945   5.910  -0.004   2.269
 5313TIP3    H215946   5.858  -0.035   2.130
 5314TIP3   OH215947   2.947   2.422   5.062
 5314TIP3    H115948   2.863   2.428   5.107
 5314TIP3    H215949   2.996   2.356   5.110
 5315TIP3   OH215950   3.403   1.900   3.888
 5315TIP3    H115951   3.496   1.905   3.868
 5315TIP3    H215952   3.397   1.836   3.960
 5316TIP3   OH215953   0.401   2.970   1.599
 5316TIP3    H115954   0.320   2.974   1.651
 5316TIP3    H215955   0.377   3.009   1.514
 5317TIP3   OH215956   0.854   5.129   1.668
 5317TIP3    H115957   0.819   5.211   1.634
 5317TIP3    H215958   0.870   5.075   1.590
 5318TIP3   OH215959   5.106   4.768   4.115
 5318TIP3    H115960   5.062   4.683   4.108
 5318TIP3    H215961   5.089   4.812   4.032
 5319TIP3   OH215962   1.136   0.427   1.063
 5319TIP3    H115963   1.199   0.362   1.095
 5319TIP3    H215964   1.118   0.401   0.973
 5320TIP3   OH215965   3.688   4.867   0.955
 5320TIP3    H115966   3.778   4.856   0.986
 5320TIP3    H215967   3.674   4.794   0.895
 5321TIP3   OH215968   5.789   5.887   1.073
 5321TIP3    H115969   5.758   5.905   0.984
 5321TIP3    H215970   5.816   5.795   1.071
 5322TIP3   OH215971   2.918   2.811   1.444
 5322TIP3    H115972   2.824   2.807   1.460
 5322TIP3    H215973   2.957   2.774   1.523
 5323TIP3   OH215974   2.075   5.541   4.325
 5323TIP3    H115975   2.166   5.561   4.302
 5323TIP3    H215976   2.056   5.461   4.276
 5324TIP3   OH215977   1.755   4.483   5.002
 5324TIP3    H115978   1.680   4.505   5.057
 5324TIP3    H215979   1.725   4.411   4.948
 5325TIP3   OH215980   4.145   2.878   3.101
 5325TIP3    H115981   4.201   2.801   3.091
 5325TIP3    H215982   4.062   2.854   3.062
 5326TIP3   OH215983   0.459   4.810   1.749
 5326TIP3    H115984   0.465   4.818   1.844
 5326TIP3    H215985   0.550   4.807   1.719
 5327TIP3   OH215986   4.081   2.636   3.415
 5327TIP3    H115987   4.151   2.634   3.350
 5327TIP3    H215988   4.078   2.547   3.449
 5328TIP3   OH215989   1.568   5.366   3.281
 5328TIP3    H115990   1.641   5.426   3.266
 5328TIP3    H215991   1.521   5.402   3.356
 5329TIP3   OH215992   4.968   1.770   1.019
 5329TIP3    H115993   4.894   1.716   0.994
 5329TIP3    H215994   5.026   1.769   0.942
 5330TIP3   OH215995   2.697   2.089   3.503
 5330TIP3    H115996   2.771   2.150   3.511
 5330TIP3    H215997   2.704   2.034   3.581
 5331TIP3   OH215998   1.135   2.674   2.431
 5331TIP3    H115999   1.088   2.598   2.397
 5331TIP3    H216000   1.088   2.749   2.393
 5332TIP3   OH216001   3.150   4.658   3.407
 5332TIP3    H116002   3.199   4.699   3.478
 5332TIP3    H216003   3.069   4.628   3.448
 5333TIP3   OH216004   2.370   3.103   2.149
 5333TIP3    H116005   2.305   3.058   2.096
 5333TIP3    H216006   2.401   3.175   2.094
 5334TIP3   OH216007   2.781   3.163  -0.016
 5334TIP3    H116008   2.870   3.176   0.015
 5334TIP3    H216009   2.756   3.077   0.018
 5335TIP3   OH216010   0.189   1.073   1.296
 5335TIP3    H116011   0.124   1.130   1.338
 5335TIP3    H216012   0.171   1.081   1.202
 5336TIP3   OH216013   3.822   5.110   4.019
 5336TIP3    H116014   3.732   5.119   3.990
 5336TIP3    H216015   3.841   5.191   4.066
 5337TIP3   OH216016   2.768   1.014   1.130
 5337TIP3    H116017   2.777   0.997   1.224
 5337TIP3    H216018   2.692   0.962   1.104
 5338TIP3   OH216019   2.290   3.815   3.244
 5338TIP3    H116020   2.229   3.784   3.177
 5338TIP3    H216021   2.364   3.849   3.195
 5339TIP3   OH216022   5.426   4.823   1.960
 5339TIP3    H116023   5.499   4.885   1.968
 5339TIP3    H216024   5.467   4.737   1.964
 5340TIP3   OH216025   3.220   2.168   0.883
 5340TIP3    H116026   3.132   2.137   0.907
 5340TIP3    H216027   3.203   2.243   0.825
 5341TIP3   OH216028   5.218   0.363   3.490
 5341TIP3    H116029   5.199   0.441   3.438
 5341TIP3    H216030   5.304   0.379   3.528
 5342TIP3   OH216031   2.056   0.132   2.396
 5342TIP3    H116032   2.073   0.038   2.404
 5342TIP3    H216033   2.143   0.171   2.388
 5343TIP3   OH216034   0.546   3.377   0.268
 5343TIP3    H116035   0.564   3.451   0.326
 5343TIP3    H216036   0.454   3.356   0.283
 5344TIP3   OH216037   5.616   4.866   1.597
 5344TIP3    H116038   5.609   4.952   1.639
 5344TIP3    H216039   5.612   4.884   1.504
 5345TIP3   OH216040   3.402   3.255   3.965
 5345TIP3    H116041   3.379   3.243   4.057
 5345TIP3    H216042   3.318   3.265   3.920
 5346TIP3   OH216043   2.901   3.758   1.183
 5346TIP3    H116044   2.848   3.684   1.213
 5346TIP3    H216045   2.897   3.754   1.087
 5347TIP3   OH216046   3.917   5.900   4.605
 5347TIP3    H116047   3.966   5.932   4.529
 5347TIP3    H216048   3.924   5.970   4.670
 5348TIP3   OH216049   1.001   0.197   2.539
 5348TIP3    H116050   0.914   0.165   2.515
 5348TIP3    H216051   1.041   0.222   2.456
 5349TIP3   OH216052   0.950   4.243   4.598
 5349TIP3    H116053   0.927   4.310   4.533
 5349TIP3    H216054   0.871   4.190   4.607
 5350TIP3   OH216055   5.727   4.289   4.384
 5350TIP3    H116056   5.725   4.301   4.479
 5350TIP3    H216057   5.661   4.222   4.367
 5351TIP3   OH216058   2.702   2.368   4.412
 5351TIP3    H116059   2.779   2.366   4.355
 5351TIP3    H216060   2.734   2.407   4.494
 5352TIP3   OH216061   3.630   2.321   4.137
 5352TIP3    H116062   3.702   2.381   4.158
 5352TIP3    H216063   3.645   2.244   4.192
 5353TIP3   OH216064   0.139   4.733   1.889
 5353TIP3    H116065   0.232   4.749   1.870
 5353TIP3    H216066   0.117   4.655   1.838
 5354TIP3   OH216067   4.802   3.311   2.959
 5354TIP3    H116068   4.750   3.333   3.036
 5354TIP3    H216069   4.750   3.342   2.885
 5355TIP3   OH216070   0.526   5.526   4.430
 5355TIP3    H116071   0.528   5.493   4.340
 5355TIP3    H216072   0.601   5.485   4.472
 5356TIP3   OH216073   6.026   5.404   2.064
 5356TIP3    H116074   5.971   5.342   2.112
 5356TIP3    H216075   6.100   5.352   2.034
 5357TIP3   OH216076   3.562   2.904   1.389
 5357TIP3    H116077   3.558   2.827   1.334
 5357TIP3    H216078   3.574   2.870   1.478
 5358TIP3   OH216079   2.233   1.122   4.540
 5358TIP3    H116080   2.236   1.049   4.478
 5358TIP3    H216081   2.295   1.098   4.609
 5359TIP3   OH216082   4.372   4.810   2.216
 5359TIP3    H116083   4.389   4.784   2.126
 5359TIP3    H216084   4.310   4.745   2.248
 5360TIP3   OH216085   1.074   3.462   3.510
 5360TIP3    H116086   1.027   3.395   3.460
 5360TIP3    H216087   1.154   3.418   3.539
 5361TIP3   OH216088   2.545   0.647   4.488
 5361TIP3    H116089   2.530   0.646   4.394
 5361TIP3    H216090   2.640   0.644   4.498
 5362TIP3   OH216091   0.456   4.202   1.057
 5362TIP3    H116092   0.527   4.264   1.072
 5362TIP3    H216093   0.438   4.166   1.144
 5363TIP3   OH216094   1.698   3.926   1.635
 5363TIP3    H116095   1.719   3.847   1.686
 5363TIP3    H216096   1.613   3.908   1.596
 5364TIP3   OH216097   2.876   5.812   0.354
 5364TIP3    H116098   2.906   5.724   0.378
 5364TIP3    H216099   2.823   5.798   0.275
 5365TIP3   OH216100   6.065   0.239   3.235
 5365TIP3    H116101   6.062   0.180   3.159
 5365TIP3    H216102   6.010   0.195   3.301
 5366TIP3   OH216103   2.943   1.418   2.318
 5366TIP3    H116104   2.979   1.487   2.262
 5366TIP3    H216105   2.987   1.431   2.402
 5367TIP3   OH216106   5.556   5.884   3.303
 5367TIP3    H116107   5.644   5.856   3.331
 5367TIP3    H216108   5.499   5.813   3.331
 5368TIP3   OH216109   1.208   5.739   2.347
 5368TIP3    H116110   1.266   5.743   2.272
 5368TIP3    H216111   1.137   5.800   2.326
 5369TIP3   OH216112   3.113   1.500   3.676
 5369TIP3    H116113   3.045   1.568   3.677
 5369TIP3    H216114   3.107   1.461   3.763
 5370TIP3   OH216115   0.326   3.415   1.280
 5370TIP3    H116116   0.360   3.342   1.228
 5370TIP3    H216117   0.397   3.480   1.278
 5371TIP3   OH216118   3.464   0.504   3.146
 5371TIP3    H116119   3.374   0.500   3.113
 5371TIP3    H216120   3.512   0.552   3.079
 5372TIP3   OH216121   5.883   2.109   2.699
 5372TIP3    H116122   5.945   2.044   2.665
 5372TIP3    H216123   5.916   2.130   2.786
 5373TIP3   OH216124   4.168   5.406   3.416
 5373TIP3    H116125   4.239   5.413   3.480
 5373TIP3    H216126   4.195   5.335   3.358
 5374TIP3   OH216127   4.241   3.119   3.473
 5374TIP3    H116128   4.185   3.127   3.395
 5374TIP3    H216129   4.267   3.209   3.493
 5375TIP3   OH216130   0.525   5.724   1.977
 5375TIP3    H116131   0.480   5.767   2.049
 5375TIP3    H216132   0.501   5.775   1.900
 5376TIP3   OH216133   3.329   5.660   4.821
 5376TIP3    H116134   3.395   5.591   4.831
 5376TIP3    H216135   3.374   5.741   4.847
 5377TIP3   OH216136   2.975   1.786   0.542
 5377TIP3    H116137   2.896   1.838   0.525
 5377TIP3    H216138   3.010   1.823   0.623
 5378TIP3   OH216139   0.969   1.587   1.413
 5378TIP3    H116140   0.999   1.589   1.504
 5378TIP3    H216141   0.893   1.528   1.414
 5379TIP3   OH216142   5.082   2.886   2.678
 5379TIP3    H116143   5.162   2.916   2.634
 5379TIP3    H216144   5.093   2.791   2.686
 5380TIP3   OH216145   4.597   3.674   1.598
 5380TIP3    H116146   4.687   3.646   1.612
 5380TIP3    H216147   4.543   3.603   1.633
 5381TIP3   OH216148   5.237   3.122   0.097
 5381TIP3    H116149   5.295   3.197   0.114
 5381TIP3    H216150   5.173   3.125   0.169
 5382TIP3   OH216151   2.022   1.503   3.787
 5382TIP3    H116152   2.038   1.597   3.794
 5382TIP3    H216153   1.936   1.496   3.746
 5383TIP3   OH216154   3.237   0.670   2.055
 5383TIP3    H116155   3.222   0.757   2.091
 5383TIP3    H216156   3.200   0.674   1.966
 5384TIP3   OH216157   5.432   5.066   2.662
 5384TIP3    H116158   5.364   4.998   2.665
 5384TIP3    H216159   5.514   5.018   2.660
 5385TIP3   OH216160   2.314   0.937   3.779
 5385TIP3    H116161   2.405   0.954   3.754
 5385TIP3    H216162   2.314   0.943   3.874
 5386TIP3   OH216163   5.587   3.325   2.409
 5386TIP3    H116164   5.537   3.368   2.339
 5386TIP3    H216165   5.521   3.299   2.473
 5387TIP3   OH216166   0.294   4.440   3.217
 5387TIP3    H116167   0.200   4.457   3.214
 5387TIP3    H216168   0.332   4.506   3.158
 5388TIP3   OH216169   5.677   4.849   0.860
 5388TIP3    H116170   5.762   4.820   0.893
 5388TIP3    H216171   5.698   4.915   0.794
 5389TIP3   OH216172   2.080   3.902   0.589
 5389TIP3    H116173   2.130   3.979   0.617
 5389TIP3    H216174   2.018   3.886   0.660
 5390TIP3   OH216175   6.253   0.489   0.525
 5390TIP3    H116176   6.322   0.487   0.591
 5390TIP3    H216177   6.269   0.412   0.471
 5391TIP3   OH216178   4.266   5.304   1.870
 5391TIP3    H116179   4.328   5.232   1.859
 5391TIP3    H216180   4.319   5.377   1.902
 5392TIP3   OH216181   4.711   2.493   3.145
 5392TIP3    H116182   4.715   2.439   3.066
 5392TIP3    H216183   4.634   2.549   3.132
 5393TIP3   OH216184   0.621   4.011   3.390
 5393TIP3    H116185   0.643   3.993   3.481
 5393TIP3    H216186   0.685   3.962   3.339
 5394TIP3   OH216187   5.233   1.577   2.411
 5394TIP3    H116188   5.309   1.525   2.387
 5394TIP3    H216189   5.220   1.560   2.504
 5395TIP3   OH216190   2.982   5.288   0.446
 5395TIP3    H116191   3.075   5.269   0.455
 5395TIP3    H216192   2.940   5.236   0.515
 5396TIP3   OH216193   1.584   3.575   3.738
 5396TIP3    H116194   1.576   3.489   3.780
 5396TIP3    H216195   1.576   3.556   3.644
 5397TIP3   OH216196   2.400   5.242   2.834
 5397TIP3    H116197   2.439   5.329   2.842
 5397TIP3    H216198   2.461   5.184   2.879
 5398TIP3   OH216199   2.848   0.088   4.032
 5398TIP3    H116200   2.899   0.157   4.073
 5398TIP3    H216201   2.780   0.135   3.983
 5399TIP3   OH216202   6.090   5.710   0.947
 5399TIP3    H116203   6.056   5.624   0.969
 5399TIP3    H216204   6.131   5.698   0.861
 5400TIP3   OH216205   1.479   0.324   1.935
 5400TIP3    H116206   1.407   0.378   1.901
 5400TIP3    H216207   1.476   0.338   2.029
 5401TIP3   OH216208   4.032   3.215   4.336
 5401TIP3    H116209   4.122   3.243   4.350
 5401TIP3    H216210   3.986   3.239   4.417
 5402TIP3   OH216211   4.049   4.576   1.611
 5402TIP3    H116212   4.125   4.533   1.572
 5402TIP3    H216213   4.024   4.520   1.684
 5403TIP3   OH216214   2.063   4.721   0.646
 5403TIP3    H116215   2.128   4.703   0.578
 5403TIP3    H216216   2.089   4.805   0.683
 5404TIP3   OH216217   6.283   1.692   5.020
 5404TIP3    H116218   6.312   1.719   4.933
 5404TIP3    H216219   6.343   1.737   5.080
 5405TIP3   OH216220   5.401   3.283   1.613
 5405TIP3    H116221   5.473   3.249   1.667
 5405TIP3    H216222   5.422   3.253   1.525
 5406TIP3   OH216223   3.975   4.173   1.366
 5406TIP3    H116224   3.902   4.182   1.427
 5406TIP3    H216225   3.962   4.243   1.301
 5407TIP3   OH216226   0.701   0.884   2.702
 5407TIP3    H116227   0.791   0.867   2.733
 5407TIP3    H216228   0.672   0.801   2.666
 5408TIP3   OH216229   4.943   3.411   3.734
 5408TIP3    H116230   4.865   3.432   3.683
 5408TIP3    H216231   4.991   3.493   3.741
 5409TIP3   OH216232   4.935   0.885   1.737
 5409TIP3    H116233   4.966   0.795   1.726
 5409TIP3    H216234   4.981   0.917   1.815
 5410TIP3   OH216235   1.921   3.745   0.934
 5410TIP3    H116236   1.977   3.815   0.899
 5410TIP3    H216237   1.922   3.677   0.866
 5411TIP3   OH216238   4.419   5.598   1.185
 5411TIP3    H116239   4.347   5.602   1.247
 5411TIP3    H216240   4.467   5.680   1.198
 5412TIP3   OH216241   4.700   2.816   3.528
 5412TIP3    H116242   4.751   2.878   3.580
 5412TIP3    H216243   4.741   2.815   3.442
 5413TIP3   OH216244   5.119   3.575   4.857
 5413TIP3    H116245   5.166   3.533   4.929
 5413TIP3    H216246   5.097   3.662   4.890
 5414TIP3   OH216247   5.329   0.710   4.502
 5414TIP3    H116248   5.309   0.616   4.507
 5414TIP3    H216249   5.289   0.738   4.419
 5415TIP3   OH216250   4.453   3.659   4.081
 5415TIP3    H116251   4.453   3.727   4.149
 5415TIP3    H216252   4.521   3.598   4.107
 5416TIP3   OH216253   5.073   3.500   4.597
 5416TIP3    H116254   5.096   3.527   4.686
 5416TIP3    H216255   5.051   3.582   4.553
 5417TIP3   OH216256   1.048   1.378   4.265
 5417TIP3    H116257   0.995   1.299   4.277
 5417TIP3    H216258   1.056   1.388   4.171
 5418TIP3   OH216259   3.145   5.123   4.218
 5418TIP3    H116260   3.055   5.095   4.235
 5418TIP3    H216261   3.164   5.187   4.287
 5419TIP3   OH216262   2.362   5.973   3.768
 5419TIP3    H116263   2.301   6.026   3.820
 5419TIP3    H216264   2.321   5.887   3.764
 5420TIP3   OH216265   6.242   3.456   0.302
 5420TIP3    H116266   6.167   3.425   0.352
 5420TIP3    H216267   6.204   3.515   0.237
 5421TIP3   OH216268   5.883   2.453   0.769
 5421TIP3    H116269   5.866   2.540   0.805
 5421TIP3    H216270   5.809   2.399   0.798
 5422TIP3   OH216271   5.033   5.143   1.493
 5422TIP3    H116272   5.003   5.141   1.584
 5422TIP3    H216273   4.987   5.217   1.454
 5423TIP3   OH216274   2.183   3.052   3.976
 5423TIP3    H116275   2.170   3.019   4.065
 5423TIP3    H216276   2.114   3.117   3.964
 5424TIP3   OH216277   5.333   2.836   0.148
 5424TIP3    H116278   5.402   2.787   0.104
 5424TIP3    H216279   5.328   2.918   0.099
 5425TIP3   OH216280   0.107   5.505   3.033
 5425TIP3    H116281   0.155   5.429   3.067
 5425TIP3    H216282   0.044   5.526   3.102
 5426TIP3   OH216283   1.817   1.430   0.450
 5426TIP3    H116284   1.725   1.444   0.428
 5426TIP3    H216285   1.855   1.393   0.370
 5427TIP3   OH216286   1.251   1.877   4.450
 5427TIP3    H116287   1.333   1.867   4.500
 5427TIP3    H216288   1.182   1.868   4.516
 5428TIP3   OH216289   2.218   5.703   2.426
 5428TIP3    H116290   2.219   5.785   2.476
 5428TIP3    H216291   2.214   5.634   2.492
 5429TIP3   OH216292   3.688   3.565   0.210
 5429TIP3    H116293   3.686   3.506   0.135
 5429TIP3    H216294   3.723   3.512   0.282
 5430TIP3   OH216295   4.126   1.914   2.528
 5430TIP3    H116296   4.058   1.926   2.595
 5430TIP3    H216297   4.088   1.852   2.466
 5431TIP3   OH216298   0.813   2.504   4.688
 5431TIP3    H116299   0.742   2.444   4.708
 5431TIP3    H216300   0.844   2.478   4.601
 5432TIP3   OH216301   0.202   2.938   3.932
 5432TIP3    H116302   0.230   2.932   3.841
 5432TIP3    H216303   0.169   2.851   3.953
 5433TIP3   OH216304   3.887   3.067   1.980
 5433TIP3    H116305   3.830   3.045   1.907
 5433TIP3    H216306   3.967   3.100   1.940
 5434TIP3   OH216307   1.150   4.272   0.560
 5434TIP3    H116308   1.161   4.288   0.653
 5434TIP3    H216309   1.127   4.358   0.523
 5435TIP3   OH216310   4.286   3.260   4.450
 5435TIP3    H116311   4.354   3.260   4.518
 5435TIP3    H216312   4.331   3.228   4.372
 5436TIP3   OH216313   1.301  -0.026   2.583
 5436TIP3    H116314   1.215  -0.049   2.549
 5436TIP3    H216315   1.288   0.059   2.625
 5437TIP3   OH216316   1.616   5.234   1.597
 5437TIP3    H116317   1.592   5.325   1.615
 5437TIP3    H216318   1.591   5.221   1.505
 5438TIP3   OH216319   5.928   5.391   2.946
 5438TIP3    H116320   5.904   5.481   2.969
 5438TIP3    H216321   5.941   5.393   2.851
 5439TIP3   OH216322   3.577   4.231   4.940
 5439TIP3    H116323   3.657   4.280   4.960
 5439TIP3    H216324   3.526   4.289   4.884
 5440TIP3   OH216325   6.257   3.758   2.031
 5440TIP3    H116326   6.180   3.801   1.995
 5440TIP3    H216327   6.331   3.799   1.988
 5441TIP3   OH216328   2.672   3.021   1.151
 5441TIP3    H116329   2.715   3.105   1.133
 5441TIP3    H216330   2.719   2.958   1.097
 5442TIP3   OH216331   5.346   1.801   2.970
 5442TIP3    H116332   5.382   1.734   2.911
 5442TIP3    H216333   5.298   1.861   2.912
 5443TIP3   OH216334   0.215   0.719   0.083
 5443TIP3    H116335   0.225   0.665   0.005
 5443TIP3    H216336   0.220   0.658   0.156
 5444TIP3   OH216337   2.268   3.109   3.393
 5444TIP3    H116338   2.246   3.094   3.485
 5444TIP3    H216339   2.299   3.200   3.391
 5445TIP3   OH216340   4.171   3.729   5.110
 5445TIP3    H116341   4.114   3.805   5.121
 5445TIP3    H216342   4.224   3.727   5.189
 5446TIP3   OH216343   1.343   0.413   4.734
 5446TIP3    H116344   1.273   0.347   4.733
 5446TIP3    H216345   1.409   0.377   4.794
 5447TIP3   OH216346   1.899   3.956   3.759
 5447TIP3    H116347   1.923   4.013   3.832
 5447TIP3    H216348   1.981   3.912   3.736
 5448TIP3   OH216349   2.995   0.931   4.241
 5448TIP3    H116350   3.040   0.981   4.310
 5448TIP3    H216351   3.035   0.962   4.160
 5449TIP3   OH216352   0.280   4.880   4.943
 5449TIP3    H116353   0.267   4.850   4.853
 5449TIP3    H216354   0.252   4.972   4.942
 5450TIP3   OH216355   5.744   3.508   1.105
 5450TIP3    H116356   5.792   3.589   1.125
 5450TIP3    H216357   5.810   3.450   1.067
 5451TIP3   OH216358   3.292   1.544   2.906
 5451TIP3    H116359   3.277   1.549   3.000
 5451TIP3    H216360   3.292   1.635   2.876
 5452TIP3   OH216361   2.191   3.686   2.483
 5452TIP3    H116362   2.232   3.603   2.508
 5452TIP3    H216363   2.261   3.735   2.439
 5453TIP3   OH216364   3.848   0.101   3.784
 5453TIP3    H116365   3.875   0.039   3.716
 5453TIP3    H216366   3.858   0.052   3.866
 5454TIP3   OH216367   5.839   3.997   1.090
 5454TIP3    H116368   5.829   3.938   1.015
 5454TIP3    H216369   5.831   3.940   1.166
 5455TIP3   OH216370   5.492   0.093   2.675
 5455TIP3    H116371   5.536   0.106   2.590
 5455TIP3    H216372   5.435   0.018   2.661
 5456TIP3   OH216373   4.515   3.499   2.783
 5456TIP3    H116374   4.527   3.594   2.780
 5456TIP3    H216375   4.548   3.468   2.698
 5457TIP3   OH216376   2.110   1.281   4.157
 5457TIP3    H116377   2.082   1.191   4.175
 5457TIP3    H216378   2.203   1.282   4.181
 5458TIP3   OH216379   0.862   5.007   1.432
 5458TIP3    H116380   0.955   4.992   1.414
 5458TIP3    H216381   0.824   5.031   1.348
 5459TIP3   OH216382   3.818   1.005   3.366
 5459TIP3    H116383   3.742   0.961   3.329
 5459TIP3    H216384   3.821   0.975   3.457
 5460TIP3   OH216385   4.026   5.816   3.941
 5460TIP3    H116386   4.082   5.825   4.018
 5460TIP3    H216387   3.956   5.758   3.969
 5461TIP3   OH216388   0.734   4.732   1.436
 5461TIP3    H116389   0.682   4.762   1.361
 5461TIP3    H216390   0.748   4.810   1.490
 5462TIP3   OH216391   5.138   4.185   3.151
 5462TIP3    H116392   5.152   4.240   3.073
 5462TIP3    H216393   5.165   4.240   3.224
 5463TIP3   OH216394   2.649   5.711   1.539
 5463TIP3    H116395   2.737   5.693   1.504
 5463TIP3    H216396   2.638   5.649   1.611
 5464TIP3   OH216397   4.671   3.368   4.386
 5464TIP3    H116398   4.621   3.342   4.463
 5464TIP3    H216399   4.759   3.333   4.401
 5465TIP3   OH216400   0.480   5.666   3.818
 5465TIP3    H116401   0.487   5.684   3.911
 5465TIP3    H216402   0.386   5.652   3.803
 5466TIP3   OH216403   5.496   0.164   1.030
 5466TIP3    H116404   5.538   0.216   1.099
 5466TIP3    H216405   5.500   0.220   0.952
 5467TIP3   OH216406   3.294   1.904   0.395
 5467TIP3    H116407   3.367   1.898   0.333
 5467TIP3    H216408   3.220   1.863   0.349
 5468TIP3   OH216409   0.632   1.261   4.955
 5468TIP3    H116410   0.619   1.353   4.978
 5468TIP3    H216411   0.707   1.233   5.008
 5469TIP3   OH216412   3.876   1.364   0.463
 5469TIP3    H116413   3.957   1.398   0.424
 5469TIP3    H216414   3.807   1.399   0.407
 5470TIP3   OH216415   5.812   1.083   1.511
 5470TIP3    H116416   5.905   1.104   1.516
 5470TIP3    H216417   5.782   1.088   1.601
 5471TIP3   OH216418   0.318   1.546   1.450
 5471TIP3    H116419   0.336   1.462   1.406
 5471TIP3    H216420   0.343   1.531   1.541
 5472TIP3   OH216421   2.980   4.843   1.489
 5472TIP3    H116422   2.952   4.757   1.458
 5472TIP3    H216423   2.971   4.901   1.414
 5473TIP3   OH216424   5.576   3.783   4.028
 5473TIP3    H116425   5.625   3.848   3.979
 5473TIP3    H216426   5.601   3.798   4.119
 5474TIP3   OH216427   3.498   4.999   4.223
 5474TIP3    H116428   3.471   4.960   4.305
 5474TIP3    H216429   3.576   4.949   4.197
 5475TIP3   OH216430   6.204   1.428   3.399
 5475TIP3    H116431   6.234   1.350   3.354
 5475TIP3    H216432   6.115   1.407   3.428
 5476TIP3   OH216433   2.336   1.873   0.551
 5476TIP3    H116434   2.299   1.918   0.475
 5476TIP3    H216435   2.288   1.790   0.556
 5477TIP3   OH216436   3.615   3.917   2.965
 5477TIP3    H116437   3.627   3.898   3.058
 5477TIP3    H216438   3.659   4.002   2.951
 5478TIP3   OH216439   2.953   1.946   4.055
 5478TIP3    H116440   3.047   1.964   4.046
 5478TIP3    H216441   2.921   2.017   4.111
 5479TIP3   OH216442   1.429   4.330   3.757
 5479TIP3    H116443   1.436   4.251   3.810
 5479TIP3    H216444   1.497   4.320   3.689
 5480TIP3   OH216445   5.307   3.202   0.853
 5480TIP3    H116446   5.398   3.197   0.823
 5480TIP3    H216447   5.288   3.114   0.885
 5481TIP3   OH216448   4.424   1.180   3.365
 5481TIP3    H116449   4.439   1.232   3.286
 5481TIP3    H216450   4.375   1.238   3.423
 5482TIP3   OH216451   2.518   0.383   4.706
 5482TIP3    H116452   2.595   0.342   4.747
 5482TIP3    H216453   2.554   0.439   4.638
 5483TIP3   OH216454   2.019   1.612   3.099
 5483TIP3    H116455   2.067   1.547   3.047
 5483TIP3    H216456   2.057   1.605   3.186
 5484TIP3   OH216457   2.999   3.998   3.601
 5484TIP3    H116458   2.950   4.012   3.520
 5484TIP3    H216459   3.070   3.940   3.576
 5485TIP3   OH216460   4.273   1.046   2.420
 5485TIP3    H116461   4.188   1.003   2.423
 5485TIP3    H216462   4.269   1.102   2.342
 5486TIP3   OH216463   5.318   2.726   2.344
 5486TIP3    H116464   5.225   2.749   2.336
 5486TIP3    H216465   5.365   2.805   2.319
 5487TIP3   OH216466   2.289   2.227   1.627
 5487TIP3    H116467   2.310   2.280   1.704
 5487TIP3    H216468   2.368   2.232   1.573
 5488TIP3   OH216469   3.005   3.131   5.129
 5488TIP3    H116470   2.931   3.145   5.070
 5488TIP3    H216471   3.042   3.047   5.102
 5489TIP3   OH216472   2.706   1.229   3.951
 5489TIP3    H116473   2.614   1.253   3.954
 5489TIP3    H216474   2.710   1.142   3.988
 5490TIP3   OH216475   2.323   1.228   5.016
 5490TIP3    H116476   2.249   1.196   5.068
 5490TIP3    H216477   2.384   1.154   5.014
 5491TIP3   OH216478   5.006   3.197   1.016
 5491TIP3    H116479   4.930   3.158   0.972
 5491TIP3    H216480   5.082   3.154   0.976
 5492TIP3   OH216481   4.598   1.385   4.065
 5492TIP3    H116482   4.625   1.477   4.061
 5492TIP3    H216483   4.537   1.375   3.993
 5493TIP3   OH216484   4.430   2.506   4.142
 5493TIP3    H116485   4.363   2.546   4.199
 5493TIP3    H216486   4.380   2.453   4.081
 5494TIP3   OH216487   0.129   5.095   4.935
 5494TIP3    H116488   0.136   5.129   5.024
 5494TIP3    H216489   0.055   5.144   4.897
 5495TIP3   OH216490   6.257   2.939   3.726
 5495TIP3    H116491   6.312   2.917   3.801
 5495TIP3    H216492   6.223   2.855   3.696
 5496TIP3   OH216493   1.592   2.997   1.700
 5496TIP3    H116494   1.554   2.909   1.693
 5496TIP3    H216495   1.628   3.000   1.789
 5497TIP3   OH216496   5.507   4.184   4.073
 5497TIP3    H116497   5.526   4.270   4.035
 5497TIP3    H216498   5.592   4.149   4.099
 5498TIP3   OH216499   5.723   1.416   3.408
 5498TIP3    H116500   5.780   1.451   3.339
 5498TIP3    H216501   5.638   1.406   3.366
 5499TIP3   OH216502   5.564   3.809   0.933
 5499TIP3    H116503   5.657   3.815   0.911
 5499TIP3    H216504   5.529   3.744   0.873
 5500TIP3   OH216505   1.660   0.330   4.790
 5500TIP3    H116506   1.752   0.321   4.767
 5500TIP3    H216507   1.616   0.350   4.707
 5501TIP3   OH216508   4.885   1.502   4.462
 5501TIP3    H116509   4.929   1.481   4.380
 5501TIP3    H216510   4.936   1.456   4.529
 5502TIP3   OH216511   1.086   3.699   5.113
 5502TIP3    H116512   1.037   3.751   5.050
 5502TIP3    H216513   1.130   3.632   5.061
 5503TIP3   OH216514   1.411   3.396   4.935
 5503TIP3    H116515   1.404   3.301   4.928
 5503TIP3    H216516   1.453   3.412   5.019
 5504TIP3   OH216517   1.767   0.125   0.574
 5504TIP3    H116518   1.804   0.110   0.661
 5504TIP3    H216519   1.694   0.185   0.590
 5505TIP3   OH216520   5.844   1.379   0.722
 5505TIP3    H116521   5.794   1.458   0.744
 5505TIP3    H216522   5.808   1.311   0.780
 5506TIP3   OH216523   0.338   4.371   3.911
 5506TIP3    H116524   0.314   4.424   3.987
 5506TIP3    H216525   0.260   4.318   3.894
 5507TIP3   OH216526   5.305   3.847   2.821
 5507TIP3    H116527   5.307   3.937   2.854
 5507TIP3    H216528   5.335   3.854   2.730
 5508TIP3   OH216529   3.586   5.572   4.031
 5508TIP3    H116530   3.525   5.566   4.106
 5508TIP3    H216531   3.543   5.633   3.971
 5509TIP3   OH216532   6.325   3.743   4.922
 5509TIP3    H116533   6.402   3.798   4.931
 5509TIP3    H216534   6.321   3.693   5.004
 5510TIP3   OH216535   3.145   5.355   2.138
 5510TIP3    H116536   3.170   5.277   2.088
 5510TIP3    H216537   3.058   5.378   2.104
 5511TIP3   OH216538   5.128   5.041   2.104
 5511TIP3    H116539   5.054   5.100   2.122
 5511TIP3    H216540   5.166   5.075   2.024
 5512TIP3   OH216541   1.314   5.094   0.987
 5512TIP3    H116542   1.407   5.113   0.999
 5512TIP3    H216543   1.313   5.024   0.921
 5513TIP3   OH216544   2.647   2.749   3.222
 5513TIP3    H116545   2.713   2.817   3.230
 5513TIP3    H216546   2.637   2.714   3.311
 5514TIP3   OH216547   2.724   5.349   3.745
 5514TIP3    H116548   2.739   5.428   3.694
 5514TIP3    H216549   2.634   5.324   3.724
 5515TIP3   OH216550   0.041   4.850   4.497
 5515TIP3    H116551   0.015   4.941   4.508
 5515TIP3    H216552   0.056   4.818   4.586
 5516TIP3   OH216553   1.655   0.426   3.226
 5516TIP3    H116554   1.714   0.501   3.235
 5516TIP3    H216555   1.695   0.373   3.157
 5517TIP3   OH216556   4.653   0.064   2.336
 5517TIP3    H116557   4.651   0.011   2.416
 5517TIP3    H216558   4.581   0.127   2.347
 5518TIP3   OH216559   6.082   3.807   3.101
 5518TIP3    H116560   6.011   3.838   3.044
 5518TIP3    H216561   6.137   3.884   3.116
 5519TIP3   OH216562   1.616   0.358   0.310
 5519TIP3    H116563   1.692   0.393   0.356
 5519TIP3    H216564   1.592   0.427   0.247
 5520TIP3   OH216565   0.657   4.463   1.181
 5520TIP3    H116566   0.592   4.422   1.238
 5520TIP3    H216567   0.657   4.555   1.208
 5521TIP3   OH216568   0.109   1.356   0.726
 5521TIP3    H116569   0.161   1.294   0.676
 5521TIP3    H216570   0.133   1.338   0.818
 5522TIP3   OH216571   1.559   3.416   1.239
 5522TIP3    H116572   1.531   3.329   1.210
 5522TIP3    H216573   1.478   3.464   1.253
 5523TIP3   OH216574   0.696   4.451   0.617
 5523TIP3    H116575   0.657   4.365   0.602
 5523TIP3    H216576   0.687   4.465   0.711
 5524TIP3   OH216577   4.376   1.766   2.547
 5524TIP3    H116578   4.361   1.707   2.473
 5524TIP3    H216579   4.457   1.735   2.587
 5525TIP3   OH216580   3.641   1.745   3.694
 5525TIP3    H116581   3.670   1.809   3.760
 5525TIP3    H216582   3.570   1.790   3.648
 5526TIP3   OH216583   6.019   0.378   3.940
 5526TIP3    H116584   5.964   0.418   4.007
 5526TIP3    H216585   6.037   0.290   3.972
 5527TIP3   OH216586   1.115   0.166   1.345
 5527TIP3    H116587   1.151   0.248   1.378
 5527TIP3    H216588   1.030   0.190   1.308
 5528TIP3   OH216589   5.748   4.124  -0.062
 5528TIP3    H116590   5.759   4.220  -0.062
 5528TIP3    H216591   5.723   4.103   0.028
 5529TIP3   OH216592   2.647   4.402   4.998
 5529TIP3    H116593   2.622   4.395   5.090
 5529TIP3    H216594   2.564   4.400   4.950
 5530TIP3   OH216595   3.170   3.353   1.490
 5530TIP3    H116596   3.155   3.437   1.531
 5530TIP3    H216597   3.118   3.356   1.409
 5531TIP3   OH216598   5.551   3.477   0.033
 5531TIP3    H116599   5.536   3.421   0.109
 5531TIP3    H216600   5.557   3.566   0.070
 5532TIP3   OH216601   5.384   2.028   5.139
 5532TIP3    H116602   5.348   2.013   5.227
 5532TIP3    H216603   5.331   2.098   5.103
 5533TIP3   OH216604   3.925   5.513   4.442
 5533TIP3    H116605   3.946   5.589   4.388
 5533TIP3    H216606   3.877   5.548   4.517
 5534TIP3   OH216607   1.249   4.296   1.875
 5534TIP3    H116608   1.206   4.380   1.888
 5534TIP3    H216609   1.252   4.284   1.780
 5535TIP3   OH216610   2.097   1.665   1.242
 5535TIP3    H116611   2.026   1.615   1.280
 5535TIP3    H216612   2.164   1.600   1.220
 5536TIP3   OH216613   3.789   0.684   4.482
 5536TIP3    H116614   3.773   0.676   4.388
 5536TIP3    H216615   3.788   0.779   4.498
 5537TIP3   OH216616   4.617   5.553   3.639
 5537TIP3    H116617   4.659   5.585   3.719
 5537TIP3    H216618   4.659   5.469   3.622
 5538TIP3   OH216619   0.081   1.740   2.805
 5538TIP3    H116620   0.009   1.756   2.865
 5538TIP3    H216621   0.160   1.763   2.855
 5539TIP3   OH216622   4.592   2.391   5.096
 5539TIP3    H116623   4.606   2.482   5.071
 5539TIP3    H216624   4.497   2.382   5.103
 5540TIP3   OH216625   2.338   4.701   0.890
 5540TIP3    H116626   2.275   4.665   0.953
 5540TIP3    H216627   2.421   4.703   0.938
 5541TIP3   OH216628   5.939   4.738   0.913
 5541TIP3    H116629   5.921   4.650   0.879
 5541TIP3    H216630   5.951   4.724   1.007
 5542TIP3   OH216631   2.608   3.842   1.451
 5542TIP3    H116632   2.679   3.905   1.451
 5542TIP3    H216633   2.645   3.764   1.493
 5543TIP3   OH216634   5.347   2.969   1.423
 5543TIP3    H116635   5.331   3.031   1.352
 5543TIP3    H216636   5.272   2.981   1.481
 5544TIP3   OH216637   1.103   2.939   2.770
 5544TIP3    H116638   1.128   3.002   2.838
 5544TIP3    H216639   1.036   2.985   2.719
 5545TIP3   OH216640   5.017   3.725   1.465
 5545TIP3    H116641   5.081   3.689   1.403
 5545TIP3    H216642   4.952   3.769   1.410
 5546TIP3   OH216643   1.966   5.791  -0.030
 5546TIP3    H116644   1.929   5.861   0.026
 5546TIP3    H216645   1.908   5.716  -0.015
 5547TIP3   OH216646   3.085   0.110   0.577
 5547TIP3    H116647   3.090   0.191   0.628
 5547TIP3    H216648   3.065   0.042   0.641
 5548TIP3   OH216649   3.280   3.431   3.000
 5548TIP3    H116650   3.253   3.409   2.911
 5548TIP3    H216651   3.371   3.401   3.006
 5549TIP3   OH216652   0.792   4.673   4.843
 5549TIP3    H116653   0.736   4.598   4.866
 5549TIP3    H216654   0.800   4.669   4.748
 5550TIP3   OH216655   0.903   4.037   3.168
 5550TIP3    H116656   0.866   3.953   3.196
 5550TIP3    H216657   0.834   4.101   3.184
 5551TIP3   OH216658   4.035   2.324   3.868
 5551TIP3    H116659   3.960   2.362   3.915
 5551TIP3    H216660   4.100   2.309   3.936
 5552TIP3   OH216661   0.214   4.888   3.565
 5552TIP3    H116662   0.127   4.861   3.595
 5552TIP3    H216663   0.203   4.980   3.540
 5553TIP3   OH216664   2.927   5.484   1.195
 5553TIP3    H116665   2.907   5.550   1.262
 5553TIP3    H216666   3.020   5.496   1.177
 5554TIP3   OH216667   2.761   4.964   5.105
 5554TIP3    H116668   2.720   4.891   5.059
 5554TIP3    H216669   2.724   5.043   5.064
 5555TIP3   OH216670   2.004   5.209   3.890
 5555TIP3    H116671   2.013   5.268   3.815
 5555TIP3    H216672   1.911   5.214   3.913
 5556TIP3   OH216673   0.862   0.785   4.494
 5556TIP3    H116674   0.799   0.772   4.423
 5556TIP3    H216675   0.839   0.719   4.559
 5557TIP3   OH216676   0.608   4.366   0.175
 5557TIP3    H116677   0.661   4.396   0.101
 5557TIP3    H216678   0.632   4.425   0.247
 5558TIP3   OH216679   0.387   3.177   1.141
 5558TIP3    H116680   0.328   3.121   1.190
 5558TIP3    H216681   0.475   3.147   1.164
 5559TIP3   OH216682   6.294   4.984   1.483
 5559TIP3    H116683   6.264   4.900   1.518
 5559TIP3    H216684   6.390   4.977   1.482
 5560TIP3   OH216685   5.940   2.880   0.526
 5560TIP3    H116686   6.020   2.893   0.476
 5560TIP3    H216687   5.969   2.870   0.616
 5561TIP3   OH216688   5.481   1.289   1.113
 5561TIP3    H116689   5.527   1.258   1.191
 5561TIP3    H216690   5.392   1.307   1.143
 5562TIP3   OH216691   3.161   5.143   2.749
 5562TIP3    H116692   3.210   5.224   2.736
 5562TIP3    H216693   3.115   5.129   2.666
 5563TIP3   OH216694   2.957   5.777   2.616
 5563TIP3    H116695   2.870   5.797   2.653
 5563TIP3    H216696   2.957   5.681   2.606
 5564TIP3   OH216697   4.807   0.963   4.928
 5564TIP3    H116698   4.860   0.978   4.849
 5564TIP3    H216699   4.849   0.889   4.971
 5565TIP3   OH216700   1.457   3.855   2.887
 5565TIP3    H116701   1.545   3.821   2.869
 5565TIP3    H216702   1.436   3.823   2.974
 5566TIP3   OH216703   3.180   3.417   0.743
 5566TIP3    H116704   3.245   3.469   0.792
 5566TIP3    H216705   3.222   3.333   0.729
 5567TIP3   OH216706   4.003   2.777   3.664
 5567TIP3    H116707   4.016   2.745   3.575
 5567TIP3    H216708   4.065   2.849   3.674
 5568TIP3   OH216709   2.100   4.452   0.777
 5568TIP3    H116710   2.061   4.370   0.746
 5568TIP3    H216711   2.148   4.485   0.702
 5569TIP3   OH216712   3.498   2.119   0.845
 5569TIP3    H116713   3.409   2.149   0.827
 5569TIP3    H216714   3.550   2.199   0.848
 5570TIP3   OH216715   2.099   3.854   3.052
 5570TIP3    H116716   2.132   3.943   3.066
 5570TIP3    H216717   2.149   3.821   2.978
 5571TIP3   OH216718   2.065   3.798   4.614
 5571TIP3    H116719   1.987   3.844   4.583
 5571TIP3    H216720   2.107   3.766   4.534
 5572TIP3   OH216721   5.856   0.859   0.426
 5572TIP3    H116722   5.877   0.924   0.493
 5572TIP3    H216723   5.939   0.840   0.384
 5573TIP3   OH216724   0.163   2.614   0.632
 5573TIP3    H116725   0.131   2.553   0.698
 5573TIP3    H216726   0.230   2.666   0.677
 5574TIP3   OH216727   3.453   2.796   2.304
 5574TIP3    H116728   3.512   2.830   2.236
 5574TIP3    H216729   3.371   2.843   2.291
 5575TIP3   OH216730   2.697   5.285   3.436
 5575TIP3    H116731   2.620   5.303   3.489
 5575TIP3    H216732   2.731   5.372   3.413
 5576TIP3   OH216733   0.601   5.141   0.752
 5576TIP3    H116734   0.551   5.134   0.833
 5576TIP3    H216735   0.693   5.138   0.779
 5577TIP3   OH216736   6.016   3.929   3.774
 5577TIP3    H116737   6.037   3.878   3.696
 5577TIP3    H216738   5.921   3.925   3.781
 5578TIP3   OH216739   6.300   3.115   1.287
 5578TIP3    H116740   6.346   3.119   1.371
 5578TIP3    H216741   6.317   3.026   1.255
 5579TIP3   OH216742   3.770   2.706   4.885
 5579TIP3    H116743   3.798   2.735   4.798
 5579TIP3    H216744   3.829   2.633   4.905
 5580TIP3   OH216745   2.515   1.819   1.941
 5580TIP3    H116746   2.506   1.755   1.870
 5580TIP3    H216747   2.484   1.901   1.903
 5581TIP3   OH216748   0.263   2.991   1.351
 5581TIP3    H116749   0.215   3.040   1.417
 5581TIP3    H216750   0.198   2.931   1.314
 5582TIP3   OH216751   5.727   3.875   1.473
 5582TIP3    H116752   5.764   3.803   1.524
 5582TIP3    H216753   5.770   3.953   1.508
 5583TIP3   OH216754   5.816   2.647   4.581
 5583TIP3    H116755   5.872   2.654   4.504
 5583TIP3    H216756   5.871   2.674   4.654
 5584TIP3   OH216757   4.346   2.156   2.086
 5584TIP3    H116758   4.390   2.206   2.155
 5584TIP3    H216759   4.256   2.187   2.088
 5585TIP3   OH216760  -0.011   1.530   1.348
 5585TIP3    H116761  -0.051   1.443   1.342
 5585TIP3    H216762   0.062   1.527   1.286
 5586TIP3   OH216763   5.102   4.630   4.638
 5586TIP3    H116764   5.098   4.550   4.586
 5586TIP3    H216765   5.161   4.610   4.710
 5587TIP3   OH216766   0.918   2.901   0.341
 5587TIP3    H116767   0.835   2.904   0.293
 5587TIP3    H216768   0.956   2.987   0.328
 5588TIP3   OH216769   4.780   1.926   1.743
 5588TIP3    H116770   4.752   2.015   1.763
 5588TIP3    H216771   4.761   1.915   1.650
 5589TIP3   OH216772   0.490   2.963   3.519
 5589TIP3    H116773   0.515   3.026   3.450
 5589TIP3    H216774   0.568   2.909   3.530
 5590TIP3   OH216775   4.635   3.918   2.916
 5590TIP3    H116776   4.564   3.965   2.958
 5590TIP3    H216777   4.715   3.956   2.953
 5591TIP3   OH216778   0.689   2.410   0.388
 5591TIP3    H116779   0.776   2.403   0.348
 5591TIP3    H216780   0.658   2.319   0.393
 5592TIP3   OH216781   1.333   1.640   2.621
 5592TIP3    H116782   1.238   1.639   2.636
 5592TIP3    H216783   1.363   1.554   2.651
 5593TIP3   OH216784   5.544   4.317   3.500
 5593TIP3    H116785   5.620   4.366   3.470
 5593TIP3    H216786   5.488   4.382   3.541
 5594TIP3   OH216787   5.064   0.976   1.132
 5594TIP3    H116788   5.133   1.014   1.185
 5594TIP3    H216789   4.991   0.963   1.192
 5595TIP3   OH216790   2.704   3.510   0.198
 5595TIP3    H116791   2.642   3.495   0.270
 5595TIP3    H216792   2.780   3.456   0.220
 5596TIP3   OH216793   3.201   2.974   1.601
 5596TIP3    H116794   3.288   3.010   1.585
 5596TIP3    H216795   3.144   3.021   1.540
 5597TIP3   OH216796   4.009   3.805   4.035
 5597TIP3    H116797   4.043   3.722   4.002
 5597TIP3    H216798   3.964   3.782   4.116
 5598TIP3   OH216799   5.253   5.746   2.248
 5598TIP3    H116800   5.171   5.745   2.199
 5598TIP3    H216801   5.231   5.705   2.332
 5599TIP3   OH216802   0.180   4.087   0.514
 5599TIP3    H116803   0.173   4.061   0.422
 5599TIP3    H216804   0.103   4.142   0.529
 5600TIP3   OH216805   6.095   4.455   2.160
 5600TIP3    H116806   6.146   4.440   2.080
 5600TIP3    H216807   6.134   4.534   2.199
 5601TIP3   OH216808   4.222   2.026   0.880
 5601TIP3    H116809   4.142   2.033   0.829
 5601TIP3    H216810   4.292   2.031   0.815
 5602TIP3   OH216811   6.150   0.109   0.513
 5602TIP3    H116812   6.181   0.128   0.602
 5602TIP3    H216813   6.197   0.171   0.458
 5603TIP3   OH216814   3.986   3.807   2.517
 5603TIP3    H116815   3.894   3.785   2.530
 5603TIP3    H216816   3.984   3.889   2.468
 5604TIP3   OH216817   1.711   1.791   3.809
 5604TIP3    H116818   1.670   1.863   3.762
 5604TIP3    H216819   1.799   1.784   3.771
 5605TIP3   OH216820   0.971   2.306   2.591
 5605TIP3    H116821   0.893   2.292   2.646
 5605TIP3    H216822   1.030   2.357   2.647
 5606TIP3   OH216823   2.142   2.196   2.194
 5606TIP3    H116824   2.108   2.127   2.137
 5606TIP3    H216825   2.222   2.158   2.231
 5607TIP3   OH216826   0.839   2.691   5.101
 5607TIP3    H116827   0.770   2.633   5.133
 5607TIP3    H216828   0.876   2.731   5.181
 5608TIP3   OH216829   2.793   0.089   3.323
 5608TIP3    H116830   2.752   0.128   3.400
 5608TIP3    H216831   2.830   0.162   3.275
 5609TIP3   OH216832   6.207   4.553   0.299
 5609TIP3    H116833   6.185   4.534   0.390
 5609TIP3    H216834   6.200   4.648   0.292
 5610TIP3   OH216835   3.238   2.278   1.514
 5610TIP3    H116836   3.293   2.253   1.588
 5610TIP3    H216837   3.300   2.316   1.451
 5611TIP3   OH216838   3.821   4.577   0.555
 5611TIP3    H116839   3.886   4.526   0.604
 5611TIP3    H216840   3.872   4.645   0.511
 5612TIP3   OH216841   0.312   1.969   4.939
 5612TIP3    H116842   0.316   2.018   5.021
 5612TIP3    H216843   0.401   1.936   4.927
 5613TIP3   OH216844   0.467   2.819   0.426
 5613TIP3    H116845   0.449   2.772   0.508
 5613TIP3    H216846   0.380   2.839   0.391
 5614TIP3   OH216847   0.818   1.878   4.534
 5614TIP3    H116848   0.798   1.861   4.626
 5614TIP3    H216849   0.856   1.796   4.503
 5615TIP3   OH216850   6.355   4.488   3.240
 5615TIP3    H116851   6.354   4.412   3.182
 5615TIP3    H216852   6.305   4.555   3.193
 5616TIP3   OH216853   5.240   2.059   3.050
 5616TIP3    H116854   5.234   2.134   3.109
 5616TIP3    H216855   5.319   2.013   3.077
 5617TIP3   OH216856   3.421   0.587   4.644
 5617TIP3    H116857   3.419   0.676   4.608
 5617TIP3    H216858   3.515   0.567   4.650
 5618TIP3   OH216859   2.665   3.365   4.833
 5618TIP3    H116860   2.649   3.394   4.743
 5618TIP3    H216861   2.654   3.444   4.886
 5619TIP3   OH216862   4.503   2.226   1.033
 5619TIP3    H116863   4.592   2.205   1.060
 5619TIP3    H216864   4.510   2.251   0.941
 5620TIP3   OH216865   4.010   3.393   0.163
 5620TIP3    H116866   4.063   3.327   0.118
 5620TIP3    H216867   4.065   3.471   0.163
 5621TIP3   OH216868   0.814   4.080   4.319
 5621TIP3    H116869   0.798   4.165   4.278
 5621TIP3    H216870   0.890   4.095   4.376
 5622TIP3   OH216871   3.736   2.138   3.332
 5622TIP3    H116872   3.690   2.163   3.252
 5622TIP3    H216873   3.731   2.042   3.333
 5623TIP3   OH216874   1.755   2.528   2.945
 5623TIP3    H116875   1.775   2.444   2.904
 5623TIP3    H216876   1.755   2.591   2.873
 5624TIP3   OH216877   4.094   4.309   4.934
 5624TIP3    H116878   4.145   4.343   5.008
 5624TIP3    H216879   4.079   4.386   4.879
 5625TIP3   OH216880   2.797   0.793   0.859
 5625TIP3    H116881   2.793   0.779   0.765
 5625TIP3    H216882   2.709   0.775   0.891
 5626TIP3   OH216883   4.846   4.012   2.093
 5626TIP3    H116884   4.876   4.008   2.184
 5626TIP3    H216885   4.755   3.983   2.097
 5627TIP3   OH216886   1.537   0.713   3.804
 5627TIP3    H116887   1.493   0.654   3.866
 5627TIP3    H216888   1.465   0.762   3.765
 5628TIP3   OH216889   2.854   2.137   1.964
 5628TIP3    H116890   2.854   2.230   1.940
 5628TIP3    H216891   2.817   2.136   2.052
 5629TIP3   OH216892   3.762   3.125   2.834
 5629TIP3    H116893   3.842   3.112   2.783
 5629TIP3    H216894   3.699   3.160   2.772
 5630TIP3   OH216895   0.959   1.444   2.539
 5630TIP3    H116896   0.905   1.500   2.483
 5630TIP3    H216897   0.897   1.385   2.582
 5631TIP3   OH216898   2.916   0.679   1.075
 5631TIP3    H116899   3.010   0.699   1.082
 5631TIP3    H216900   2.884   0.740   1.009
 5632TIP3   OH216901   5.826   1.918   0.836
 5632TIP3    H116902   5.755   1.928   0.900
 5632TIP3    H216903   5.875   1.999   0.842
 5633TIP3   OH216904   3.691   2.378   0.221
 5633TIP3    H116905   3.644   2.306   0.263
 5633TIP3    H216906   3.684   2.359   0.127
 5634TIP3   OH216907   3.230   4.141   2.060
 5634TIP3    H116908   3.156   4.174   2.111
 5634TIP3    H216909   3.255   4.214   2.003
 5635TIP3   OH216910   2.841   1.733   2.594
 5635TIP3    H116911   2.775   1.741   2.663
 5635TIP3    H216912   2.823   1.649   2.552
 5636TIP3   OH216913   5.765   3.044   4.511
 5636TIP3    H116914   5.739   3.104   4.581
 5636TIP3    H216915   5.707   2.969   4.521
 5637TIP3   OH216916   6.275   3.382   3.269
 5637TIP3    H116917   6.222   3.444   3.218
 5637TIP3    H216918   6.212   3.315   3.297
 5638TIP3   OH216919   3.111   2.008   5.166
 5638TIP3    H116920   3.108   1.930   5.222
 5638TIP3    H216921   3.128   1.974   5.079
 5639TIP3   OH216922   0.887   3.678   0.272
 5639TIP3    H116923   0.978   3.651   0.262
 5639TIP3    H216924   0.842   3.600   0.303
 5640TIP3   OH216925   5.880   1.557   3.180
 5640TIP3    H116926   5.948   1.625   3.184
 5640TIP3    H216927   5.805   1.601   3.141
 5641TIP3   OH216928   4.357   3.044   4.763
 5641TIP3    H116929   4.324   3.073   4.848
 5641TIP3    H216930   4.450   3.025   4.779
 5642TIP3   OH216931   2.700   4.493   4.184
 5642TIP3    H116932   2.719   4.480   4.092
 5642TIP3    H216933   2.739   4.417   4.228
 5643TIP3   OH216934   1.912   3.669   4.086
 5643TIP3    H116935   1.977   3.639   4.023
 5643TIP3    H216936   1.879   3.589   4.127
 5644TIP3   OH216937   6.051   1.875   2.711
 5644TIP3    H116938   6.022   1.840   2.626
 5644TIP3    H216939   5.992   1.836   2.774
 5645TIP3   OH216940   0.927   4.645   3.146
 5645TIP3    H116941   0.867   4.571   3.152
 5645TIP3    H216942   1.014   4.605   3.139
 5646TIP3   OH216943   5.102   3.862   4.926
 5646TIP3    H116944   5.155   3.904   4.993
 5646TIP3    H216945   5.126   3.908   4.845
 5647TIP3   OH216946   4.044   0.412   1.561
 5647TIP3    H116947   3.995   0.468   1.620
 5647TIP3    H216948   4.096   0.355   1.618
 5648TIP3   OH216949   6.350   3.046   0.467
 5648TIP3    H116950   6.410   3.117   0.488
 5648TIP3    H216951   6.269   3.068   0.514
 5649TIP3   OH216952   0.883   1.184   0.899
 5649TIP3    H116953   0.807   1.204   0.844
 5649TIP3    H216954   0.870   1.093   0.926
 5650TIP3   OH216955   1.327   2.162   0.516
 5650TIP3    H116956   1.355   2.114   0.594
 5650TIP3    H216957   1.235   2.184   0.534
 5651TIP3   OH216958   1.754   4.244   2.193
 5651TIP3    H116959   1.786   4.199   2.114
 5651TIP3    H216960   1.763   4.179   2.263
 5652TIP3   OH216961   2.061   2.346   1.746
 5652TIP3    H116962   2.108   2.327   1.665
 5652TIP3    H216963   2.086   2.436   1.767
 5653TIP3   OH216964   0.074   2.914   1.800
 5653TIP3    H116965   0.157   2.948   1.834
 5653TIP3    H216966   0.009   2.940   1.865
 5654TIP3   OH216967   0.281   5.781   2.942
 5654TIP3    H116968   0.298   5.696   2.982
 5654TIP3    H216969   0.355   5.795   2.883
 5655TIP3   OH216970   2.322   0.193   2.392
 5655TIP3    H116971   2.357   0.121   2.444
 5655TIP3    H216972   2.397   0.250   2.376
 5656TIP3   OH216973   0.045   5.923   0.099
 5656TIP3    H116974   0.028   5.867   0.175
 5656TIP3    H216975   0.087   5.866   0.036
 5657TIP3   OH216976   4.744   1.169   5.103
 5657TIP3    H116977   4.773   1.081   5.077
 5657TIP3    H216978   4.824   1.215   5.127
 5658TIP3   OH216979   2.773   3.937   4.682
 5658TIP3    H116980   2.742   3.991   4.754
 5658TIP3    H216981   2.700   3.937   4.619
 5659TIP3   OH216982   4.370   2.429   4.710
 5659TIP3    H116983   4.341   2.465   4.626
 5659TIP3    H216984   4.421   2.499   4.750
 5660TIP3   OH216985   2.967   0.023   2.918
 5660TIP3    H116986   2.872   0.016   2.920
 5660TIP3    H216987   2.985   0.115   2.939
 5661TIP3   OH216988   2.416   0.617   0.298
 5661TIP3    H116989   2.446   0.527   0.288
 5661TIP3    H216990   2.493   0.670   0.278
 5662TIP3   OH216991   2.652   4.246   0.362
 5662TIP3    H116992   2.738   4.231   0.403
 5662TIP3    H216993   2.622   4.158   0.337
 5663TIP3   OH216994   0.970   3.675   2.231
 5663TIP3    H116995   1.009   3.613   2.293
 5663TIP3    H216996   1.024   3.753   2.236
 5664TIP3   OH216997   4.840   4.365   1.751
 5664TIP3    H116998   4.893   4.289   1.724
 5664TIP3    H216999   4.782   4.332   1.819
 5665TIP3   OH217000   4.268   5.789   3.538
 5665TIP3    H117001   4.325   5.736   3.482
 5665TIP3    H217002   4.268   5.742   3.622
 5666TIP3   OH217003   3.242   4.847   0.795
 5666TIP3    H117004   3.192   4.771   0.826
 5666TIP3    H217005   3.317   4.853   0.854
 5667TIP3   OH217006   2.515   1.084   2.973
 5667TIP3    H117007   2.605   1.074   3.004
 5667TIP3    H217008   2.467   1.010   3.011
 5668TIP3   OH217009   1.203   4.832   0.748
 5668TIP3    H117010   1.216   4.788   0.664
 5668TIP3    H217011   1.287   4.874   0.766
 5669TIP3   OH217012   3.350   1.103   1.571
 5669TIP3    H117013   3.283   1.136   1.512
 5669TIP3    H217014   3.320   1.015   1.594
 5670TIP3   OH217015   3.966   3.775   3.551
 5670TIP3    H117016   3.918   3.797   3.631
 5670TIP3    H217017   4.050   3.819   3.561
 5671TIP3   OH217018   1.374   1.981   0.723
 5671TIP3    H117019   1.444   1.926   0.688
 5671TIP3    H217020   1.385   1.978   0.818
 5672TIP3   OH217021   3.817   3.727   0.434
 5672TIP3    H117022   3.887   3.665   0.456
 5672TIP3    H217023   3.737   3.674   0.435
 5673TIP3   OH217024   0.716   2.741   1.694
 5673TIP3    H117025   0.621   2.739   1.681
 5673TIP3    H217026   0.752   2.759   1.607
 5674TIP3   OH217027   0.248   1.970   2.497
 5674TIP3    H117028   0.175   1.909   2.485
 5674TIP3    H217029   0.289   1.943   2.579
 5675TIP3   OH217030   0.152   3.197   3.749
 5675TIP3    H117031   0.098   3.118   3.747
 5675TIP3    H217032   0.241   3.165   3.734
 5676TIP3   OH217033   1.151   5.030   2.768
 5676TIP3    H117034   1.063   5.007   2.739
 5676TIP3    H217035   1.185   4.949   2.808
 5677TIP3   OH217036   0.522   1.046   3.426
 5677TIP3    H117037   0.457   1.094   3.375
 5677TIP3    H217038   0.482   1.036   3.512
 5678TIP3   OH217039   0.747   0.311   3.744
 5678TIP3    H117040   0.667   0.354   3.713
 5678TIP3    H217041   0.743   0.223   3.707
 5679TIP3   OH217042   5.560   5.400   1.171
 5679TIP3    H117043   5.619   5.326   1.160
 5679TIP3    H217044   5.552   5.411   1.266
 5680TIP3   OH217045   5.651   0.616   1.575
 5680TIP3    H117046   5.672   0.695   1.625
 5680TIP3    H217047   5.725   0.605   1.515
 5681TIP3   OH217048   3.411   3.055   0.158
 5681TIP3    H117049   3.502   3.046   0.186
 5681TIP3    H217050   3.379   2.965   0.152
 5682TIP3   OH217051   1.763   1.321   3.370
 5682TIP3    H117052   1.834   1.306   3.433
 5682TIP3    H217053   1.771   1.249   3.308
 5683TIP3   OH217054   1.696   3.286   2.964
 5683TIP3    H117055   1.640   3.271   2.888
 5683TIP3    H217056   1.635   3.300   3.037
 5684TIP3   OH217057   0.543   2.031   4.676
 5684TIP3    H117058   0.532   1.984   4.593
 5684TIP3    H217059   0.629   2.005   4.707
 5685TIP3   OH217060   2.240   0.538   2.408
 5685TIP3    H117061   2.259   0.631   2.395
 5685TIP3    H217062   2.325   0.495   2.397
 5686TIP3   OH217063   4.326   5.429   0.678
 5686TIP3    H117064   4.351   5.480   0.756
 5686TIP3    H217065   4.299   5.496   0.615
 5687TIP3   OH217066   0.681   0.581   3.022
 5687TIP3    H117067   0.586   0.575   3.014
 5687TIP3    H217068   0.706   0.504   3.073
 5688TIP3   OH217069   1.075   5.854   0.452
 5688TIP3    H117070   1.048   5.924   0.511
 5688TIP3    H217071   1.166   5.874   0.430
 5689TIP3   OH217072   2.181   0.640   0.941
 5689TIP3    H117073   2.196   0.712   0.880
 5689TIP3    H217074   2.249   0.650   1.007
 5690TIP3   OH217075   0.373   5.818   0.180
 5690TIP3    H117076   0.366   5.866   0.097
 5690TIP3    H217077   0.324   5.872   0.242
 5691TIP3   OH217078   4.202   2.179   3.287
 5691TIP3    H117079   4.123   2.137   3.323
 5691TIP3    H217080   4.216   2.134   3.203
 5692TIP3   OH217081   4.990   0.167   4.844
 5692TIP3    H117082   5.027   0.166   4.932
 5692TIP3    H217083   4.896   0.175   4.858
 5693TIP3   OH217084   1.538   4.712   2.327
 5693TIP3    H117085   1.501   4.656   2.396
 5693TIP3    H217086   1.503   4.676   2.246
 5694TIP3   OH217087   6.248   1.868   2.126
 5694TIP3    H117088   6.217   1.922   2.054
 5694TIP3    H217089   6.176   1.808   2.144
 5695TIP3   OH217090   4.995   0.539   4.023
 5695TIP3    H117091   4.920   0.493   4.059
 5695TIP3    H217092   5.067   0.477   4.031
 5696TIP3   OH217093   2.173   1.377   3.553
 5696TIP3    H117094   2.167   1.426   3.634
 5696TIP3    H217095   2.225   1.300   3.575
 5697TIP3   OH217096   3.218   5.853   2.623
 5697TIP3    H117097   3.129   5.817   2.622
 5697TIP3    H217098   3.274   5.778   2.644
 5698TIP3   OH217099   2.782   1.819   4.522
 5698TIP3    H117100   2.712   1.786   4.465
 5698TIP3    H217101   2.844   1.861   4.463
 5699TIP3   OH217102   2.322   3.354   3.961
 5699TIP3    H117103   2.235   3.315   3.967
 5699TIP3    H217104   2.312   3.428   3.901
 5700TIP3   OH217105   3.286   5.348   3.302
 5700TIP3    H117106   3.205   5.300   3.319
 5700TIP3    H217107   3.277   5.379   3.212
 5701TIP3   OH217108   3.203   2.458   4.982
 5701TIP3    H117109   3.145   2.534   4.982
 5701TIP3    H217110   3.144   2.383   4.981
 5702TIP3   OH217111   1.850   4.690   2.120
 5702TIP3    H117112   1.898   4.747   2.179
 5702TIP3    H217113   1.787   4.748   2.077
 5703TIP3   OH217114   3.741   3.750   4.805
 5703TIP3    H117115   3.738   3.806   4.883
 5703TIP3    H217116   3.832   3.721   4.800
 5704TIP3   OH217117   5.172   0.418   4.899
 5704TIP3    H117118   5.159   0.479   4.971
 5704TIP3    H217119   5.091   0.366   4.897
 5705TIP3   OH217120   1.596   0.636   4.756
 5705TIP3    H117121   1.503   0.654   4.741
 5705TIP3    H217122   1.621   0.579   4.684
 5706TIP3   OH217123   3.469   0.748   4.426
 5706TIP3    H117124   3.531   0.712   4.363
 5706TIP3    H217125   3.449   0.836   4.392
 5707TIP3   OH217126   0.498   0.387   2.286
 5707TIP3    H117127   0.537   0.305   2.255
 5707TIP3    H217128   0.570   0.449   2.289
 5708TIP3   OH217129   2.364   0.436   1.793
 5708TIP3    H117130   2.344   0.342   1.795
 5708TIP3    H217131   2.378   0.456   1.701
 5709TIP3   OH217132   5.657   0.741   2.958
 5709TIP3    H117133   5.669   0.816   2.899
 5709TIP3    H217134   5.596   0.773   3.025
 5710TIP3   OH217135   1.165   5.349   1.889
 5710TIP3    H117136   1.112   5.269   1.888
 5710TIP3    H217137   1.220   5.342   1.811
 5711TIP3   OH217138   3.634   1.259   3.761
 5711TIP3    H117139   3.559   1.294   3.712
 5711TIP3    H217140   3.661   1.330   3.818
 5712TIP3   OH217141   2.960   5.347   4.826
 5712TIP3    H117142   2.895   5.320   4.890
 5712TIP3    H217143   2.987   5.266   4.783
 5713TIP3   OH217144   5.176   0.121   1.403
 5713TIP3    H117145   5.132   0.080   1.328
 5713TIP3    H217146   5.267   0.133   1.374
 5714TIP3   OH217147   0.750   3.645   4.121
 5714TIP3    H117148   0.835   3.628   4.161
 5714TIP3    H217149   0.744   3.741   4.118
 5715TIP3   OH217150   1.431   4.489   2.472
 5715TIP3    H117151   1.451   4.396   2.464
 5715TIP3    H217152   1.340   4.496   2.442
 5716TIP3   OH217153   4.153   5.584   0.528
 5716TIP3    H117154   4.108   5.618   0.451
 5716TIP3    H217155   4.176   5.662   0.578
 5717TIP3   OH217156   2.921   5.499   3.367
 5717TIP3    H117157   2.923   5.548   3.285
 5717TIP3    H217158   2.944   5.409   3.343
 5718TIP3   OH217159   5.531   4.734   4.962
 5718TIP3    H117160   5.569   4.741   4.875
 5718TIP3    H217161   5.558   4.648   4.994
 5719TIP3   OH217162   4.379   3.769   0.703
 5719TIP3    H117163   4.332   3.835   0.753
 5719TIP3    H217164   4.404   3.814   0.622
 5720TIP3   OH217165   0.303   5.388   0.860
 5720TIP3    H117166   0.276   5.467   0.908
 5720TIP3    H217167   0.320   5.323   0.928
 5721TIP3   OH217168   1.779   0.308   1.397
 5721TIP3    H117169   1.705   0.368   1.388
 5721TIP3    H217170   1.739   0.225   1.424
 5722TIP3   OH217171   2.441   2.174   3.453
 5722TIP3    H117172   2.529   2.139   3.465
 5722TIP3    H217173   2.453   2.255   3.404
 5723TIP3   OH217174   1.161   2.437   3.633
 5723TIP3    H117175   1.198   2.428   3.545
 5723TIP3    H217176   1.111   2.518   3.630
 5724TIP3   OH217177   4.257   2.413   1.345
 5724TIP3    H117178   4.178   2.425   1.292
 5724TIP3    H217179   4.224   2.400   1.434
 5725TIP3   OH217180   2.143   5.642   3.154
 5725TIP3    H117181   2.179   5.564   3.196
 5725TIP3    H217182   2.217   5.681   3.109
 5726TIP3   OH217183   2.265   2.364   0.246
 5726TIP3    H117184   2.284   2.275   0.276
 5726TIP3    H217185   2.349   2.410   0.254
 5727TIP3   OH217186   2.976   3.277   1.278
 5727TIP3    H117187   3.012   3.208   1.333
 5727TIP3    H217188   2.920   3.230   1.216
 5728TIP3   OH217189   6.049   5.002   2.760
 5728TIP3    H117190   6.114   4.939   2.792
 5728TIP3    H217191   6.040   5.065   2.831
 5729TIP3   OH217192   5.966   5.423   0.605
 5729TIP3    H117193   6.054   5.386   0.598
 5729TIP3    H217194   5.940   5.407   0.696
 5730TIP3   OH217195   4.987   2.025   1.557
 5730TIP3    H117196   5.055   1.961   1.537
 5730TIP3    H217197   5.008   2.055   1.646
 5731TIP3   OH217198   1.587   0.502   0.069
 5731TIP3    H117199   1.664   0.524   0.016
 5731TIP3    H217200   1.515   0.545   0.025
 5732TIP3   OH217201   4.515   5.073   2.148
 5732TIP3    H117202   4.457   5.002   2.176
 5732TIP3    H217203   4.544   5.114   2.229
 5733TIP3   OH217204   0.943   3.108   2.171
 5733TIP3    H117205   1.011   3.148   2.117
 5733TIP3    H217206   0.867   3.166   2.161
 5734TIP3   OH217207   3.033   0.756   4.566
 5734TIP3    H117208   3.037   0.852   4.561
 5734TIP3    H217209   3.040   0.737   4.659
 5735TIP3   OH217210   1.355   2.860  -0.020
 5735TIP3    H117211   1.360   2.773   0.020
 5735TIP3    H217212   1.427   2.909   0.021
 5736TIP3   OH217213   5.768   4.557   1.700
 5736TIP3    H117214   5.725   4.567   1.615
 5736TIP3    H217215   5.844   4.501   1.682
 5737TIP3   OH217216   4.179   3.994   5.154
 5737TIP3    H117217   4.249   3.970   5.215
 5737TIP3    H217218   4.225   4.020   5.074
 5738TIP3   OH217219   2.009   3.012   2.657
 5738TIP3    H117220   1.998   3.105   2.635
 5738TIP3    H217221   1.971   2.965   2.583
 5739TIP3   OH217222   4.952   4.462   5.001
 5739TIP3    H117223   4.982   4.494   5.086
 5739TIP3    H217224   4.961   4.538   4.943
 5740TIP3   OH217225   5.856   5.643   4.490
 5740TIP3    H117226   5.804   5.661   4.412
 5740TIP3    H217227   5.800   5.588   4.544
 5741TIP3   OH217228   3.428   4.290   3.548
 5741TIP3    H117229   3.333   4.298   3.539
 5741TIP3    H217230   3.450   4.206   3.508
 5742TIP3   OH217231   1.784   3.254   4.905
 5742TIP3    H117232   1.751   3.175   4.947
 5742TIP3    H217233   1.715   3.319   4.921
 5743TIP3   OH217234   5.185   1.986   4.169
 5743TIP3    H117235   5.217   2.056   4.226
 5743TIP3    H217236   5.247   1.915   4.182
 5744TIP3   OH217237   1.191   2.266   4.539
 5744TIP3    H117238   1.250   2.226   4.475
 5744TIP3    H217239   1.123   2.309   4.486
 5745TIP3   OH217240   2.904   3.127   2.217
 5745TIP3    H117241   2.880   3.035   2.213
 5745TIP3    H217242   2.822   3.174   2.199
 5746TIP3   OH217243   2.006   0.776   2.652
 5746TIP3    H117244   2.014   0.706   2.717
 5746TIP3    H217245   2.008   0.857   2.704
 5747TIP3   OH217246   3.878   5.596   2.724
 5747TIP3    H117247   3.867   5.505   2.698
 5747TIP3    H217248   3.821   5.606   2.800
 5748TIP3   OH217249   1.760   5.288   2.950
 5748TIP3    H117250   1.738   5.266   2.859
 5748TIP3    H217251   1.692   5.246   3.002
 5749TIP3   OH217252   1.276   5.269   1.640
 5749TIP3    H117253   1.261   5.174   1.639
 5749TIP3    H217254   1.353   5.282   1.585
 5750TIP3   OH217255   0.475   2.541   3.875
 5750TIP3    H117256   0.467   2.562   3.782
 5750TIP3    H217257   0.472   2.445   3.878
 5751TIP3   OH217258   4.759   0.457   0.694
 5751TIP3    H117259   4.807   0.425   0.618
 5751TIP3    H217260   4.668   0.437   0.676
 5752TIP3   OH217261   4.020   4.588   0.350
 5752TIP3    H117262   4.089   4.545   0.300
 5752TIP3    H217263   4.037   4.561   0.441
 5753TIP3   OH217264   2.461   5.631   5.131
 5753TIP3    H117265   2.385   5.589   5.172
 5753TIP3    H217266   2.444   5.725   5.139
 5754TIP3   OH217267   3.842   0.070   0.894
 5754TIP3    H117268   3.769   0.012   0.870
 5754TIP3    H217269   3.807   0.158   0.880
 5755TIP3   OH217270   1.209   1.629   4.242
 5755TIP3    H117271   1.246   1.613   4.155
 5755TIP3    H217272   1.163   1.548   4.264
 5756TIP3   OH217273   6.143   2.935   1.627
 5756TIP3    H117274   6.080   3.004   1.606
 5756TIP3    H217275   6.221   2.957   1.576
 5757TIP3   OH217276   0.974   3.135   1.667
 5757TIP3    H117277   1.051   3.173   1.708
 5757TIP3    H217278   0.901   3.165   1.720
 5758TIP3   OH217279   4.335   0.841   2.170
 5758TIP3    H117280   4.252   0.887   2.157
 5758TIP3    H217281   4.349   0.843   2.264
 5759TIP3   OH217282   6.325   3.850   1.407
 5759TIP3    H117283   6.406   3.886   1.372
 5759TIP3    H217284   6.331   3.756   1.389
 5760TIP3   OH217285   0.691   3.652   2.447
 5760TIP3    H117286   0.722   3.726   2.498
 5760TIP3    H217287   0.769   3.619   2.402
 5761TIP3   OH217288   3.351   5.808   3.329
 5761TIP3    H117289   3.268   5.836   3.368
 5761TIP3    H217290   3.374   5.879   3.269
 5762TIP3   OH217291   5.430   2.307   2.217
 5762TIP3    H117292   5.428   2.397   2.184
 5762TIP3    H217293   5.380   2.257   2.152
 5763TIP3   OH217294   3.628   3.695   4.203
 5763TIP3    H117295   3.693   3.664   4.266
 5763TIP3    H217296   3.564   3.743   4.256
 5764TIP3   OH217297   4.583   3.575   0.600
 5764TIP3    H117298   4.495   3.607   0.581
 5764TIP3    H217299   4.594   3.588   0.694
 5765TIP3   OH217300   1.382   2.568   2.430
 5765TIP3    H117301   1.343   2.483   2.411
 5765TIP3    H217302   1.307   2.624   2.451
 5766TIP3   OH217303   3.480   0.236   1.775
 5766TIP3    H117304   3.450   0.294   1.705
 5766TIP3    H217305   3.483   0.149   1.734
 5767TIP3   OH217306   5.225   1.204   3.189
 5767TIP3    H117307   5.186   1.116   3.188
 5767TIP3    H217308   5.300   1.198   3.131
 5768TIP3   OH217309   3.719   5.223   5.088
 5768TIP3    H117310   3.641   5.181   5.125
 5768TIP3    H217311   3.711   5.315   5.116
 5769TIP3   OH217312   4.894   1.133   0.966
 5769TIP3    H117313   4.958   1.066   0.992
 5769TIP3    H217314   4.821   1.120   1.027
 5770TIP3   OH217315   1.137   4.974   1.358
 5770TIP3    H117316   1.190   4.968   1.437
 5770TIP3    H217317   1.187   4.926   1.292
 5771TIP3   OH217318   4.433   1.177   2.949
 5771TIP3    H117319   4.504   1.170   3.013
 5771TIP3    H217320   4.416   1.271   2.943
 5772TIP3   OH217321   3.925   4.692   3.931
 5772TIP3    H117322   3.883   4.709   3.847
 5772TIP3    H217323   3.868   4.734   3.995
 5773TIP3   OH217324   5.239   0.649   2.636
 5773TIP3    H117325   5.252   0.699   2.555
 5773TIP3    H217326   5.248   0.558   2.609
 5774TIP3   OH217327   1.252   3.395   2.717
 5774TIP3    H117328   1.304   3.375   2.639
 5774TIP3    H217329   1.254   3.490   2.725
 5775TIP3   OH217330   5.827   3.462   3.699
 5775TIP3    H117331   5.854   3.527   3.763
 5775TIP3    H217332   5.733   3.476   3.689
 5776TIP3   OH217333   4.534   0.270   3.333
 5776TIP3    H117334   4.596   0.328   3.289
 5776TIP3    H217335   4.580   0.242   3.412
 5777TIP3   OH217336   5.463   4.601   3.488
 5777TIP3    H117337   5.495   4.673   3.542
 5777TIP3    H217338   5.370   4.619   3.476
 5778TIP3   OH217339   5.459   3.444   1.151
 5778TIP3    H117340   5.553   3.446   1.131
 5778TIP3    H217341   5.436   3.536   1.165
 5779TIP3   OH217342   1.712   0.618   2.991
 5779TIP3    H117343   1.706   0.713   2.998
 5779TIP3    H217344   1.644   0.594   2.927
 5780TIP3   OH217345   5.751   0.728   4.054
 5780TIP3    H117346   5.811   0.801   4.067
 5780TIP3    H217347   5.665   0.761   4.081
 5781TIP3   OH217348   5.177   2.206   3.971
 5781TIP3    H117349   5.209   2.130   4.018
 5781TIP3    H217350   5.212   2.281   4.019
 5782TIP3   OH217351   3.350   3.659   0.718
 5782TIP3    H117352   3.425   3.711   0.746
 5782TIP3    H217353   3.274   3.711   0.745
 5783TIP3   OH217354   0.778   5.839   3.648
 5783TIP3    H117355   0.792   5.756   3.693
 5783TIP3    H217356   0.692   5.868   3.677
 5784TIP3   OH217357   6.035   0.782   4.609
 5784TIP3    H117358   5.959   0.796   4.554
 5784TIP3    H217359   6.096   0.731   4.556
 5785TIP3   OH217360   3.906   1.249   1.171
 5785TIP3    H117361   4.002   1.255   1.176
 5785TIP3    H217362   3.875   1.312   1.236
 5786TIP3   OH217363   0.679   1.267   1.278
 5786TIP3    H117364   0.675   1.322   1.356
 5786TIP3    H217365   0.761   1.292   1.236
 5787TIP3   OH217366   1.531   2.300   3.250
 5787TIP3    H117367   1.574   2.378   3.216
 5787TIP3    H217368   1.503   2.252   3.173
 5788TIP3   OH217369   6.100   0.574   4.962
 5788TIP3    H117370   6.188   0.593   4.932
 5788TIP3    H217371   6.077   0.491   4.919
 5789TIP3   OH217372   3.828   0.760   5.131
 5789TIP3    H117373   3.748   0.739   5.083
 5789TIP3    H217374   3.888   0.795   5.065
 5790TIP3   OH217375   5.583   2.756   2.626
 5790TIP3    H117376   5.605   2.663   2.622
 5790TIP3    H217377   5.579   2.776   2.720
 5791TIP3   OH217378   2.859   5.416   2.130
 5791TIP3    H117379   2.777   5.400   2.083
 5791TIP3    H217380   2.889   5.501   2.098
 5792TIP3   OH217381   2.407   0.351   1.430
 5792TIP3    H117382   2.364   0.295   1.495
 5792TIP3    H217383   2.458   0.413   1.482
 5793TIP3   OH217384   4.354   0.522   1.426
 5793TIP3    H117385   4.409   0.444   1.421
 5793TIP3    H217386   4.266   0.488   1.443
 5794TIP3   OH217387   6.186   2.393   2.644
 5794TIP3    H117388   6.193   2.299   2.630
 5794TIP3    H217389   6.142   2.401   2.728
 5795TIP3   OH217390   5.880   1.867   4.856
 5795TIP3    H117391   5.793   1.837   4.882
 5795TIP3    H217392   5.879   1.866   4.760
 5796TIP3   OH217393   5.729   4.127   3.655
 5796TIP3    H117394   5.639   4.120   3.622
 5796TIP3    H217395   5.748   4.221   3.651
 5797TIP3   OH217396   0.819   5.164   2.186
 5797TIP3    H117397   0.785   5.232   2.244
 5797TIP3    H217398   0.792   5.192   2.098
 5798TIP3   OH217399   2.787   0.324   2.189
 5798TIP3    H117400   2.849   0.333   2.116
 5798TIP3    H217401   2.807   0.397   2.247
 5799TIP3   OH217402   3.906   0.123   1.168
 5799TIP3    H117403   3.950   0.204   1.194
 5799TIP3    H217404   3.863   0.144   1.086
 5800TIP3   OH217405   2.887   5.050   3.125
 5800TIP3    H117406   2.805   5.001   3.125
 5800TIP3    H217407   2.954   4.985   3.145
 5801TIP3   OH217408   4.574   0.579   4.068
 5801TIP3    H117409   4.611   0.547   3.986
 5801TIP3    H217410   4.562   0.673   4.054
 5802TIP3   OH217411   4.078   1.006   4.713
 5802TIP3    H117412   4.036   1.043   4.635
 5802TIP3    H217413   4.135   0.937   4.678
 5803TIP3   OH217414   4.052   0.304   3.908
 5803TIP3    H117415   3.966   0.261   3.904
 5803TIP3    H217416   4.050   0.368   3.837
 5804TIP3   OH217417   4.903   0.481   4.931
 5804TIP3    H117418   4.887   0.515   5.019
 5804TIP3    H217419   4.851   0.400   4.927
 5805TIP3   OH217420   4.285   1.131   4.065
 5805TIP3    H117421   4.231   1.155   4.141
 5805TIP3    H217422   4.221   1.106   3.998
 5806TIP3   OH217423   1.568   5.311   0.260
 5806TIP3    H117424   1.580   5.247   0.330
 5806TIP3    H217425   1.646   5.303   0.206
 5807TIP3   OH217426   3.221   1.647   2.604
 5807TIP3    H117427   3.185   1.679   2.521
 5807TIP3    H217428   3.315   1.638   2.588
 5808TIP3   OH217429   0.888   5.129  -0.062
 5808TIP3    H117430   0.955   5.184  -0.022
 5808TIP3    H217431   0.812   5.186  -0.071
 5809TIP3   OH217432   0.928   1.582   4.480
 5809TIP3    H117433   0.988   1.546   4.415
 5809TIP3    H217434   0.971   1.566   4.564
 5810TIP3   OH217435   0.676   5.772   1.681
 5810TIP3    H117436   0.738   5.705   1.709
 5810TIP3    H217437   0.674   5.835   1.753
 5811TIP3   OH217438   2.093   1.005   1.826
 5811TIP3    H117439   2.146   1.073   1.786
 5811TIP3    H217440   2.039   1.051   1.890
 5812TIP3   OH217441   0.294   5.964   2.546
 5812TIP3    H117442   0.222   5.908   2.577
 5812TIP3    H217443   0.309   6.025   2.618
 5813TIP3   OH217444   5.590   2.822   4.510
 5813TIP3    H117445   5.670   2.773   4.527
 5813TIP3    H217446   5.520   2.757   4.512
 5814TIP3   OH217447   4.377   1.140   1.629
 5814TIP3    H117448   4.383   1.232   1.653
 5814TIP3    H217449   4.444   1.096   1.681
 5815TIP3   OH217450   3.656   1.720   0.147
 5815TIP3    H117451   3.658   1.675   0.232
 5815TIP3    H217452   3.635   1.651   0.084
 5816TIP3   OH217453   1.403   3.868   1.251
 5816TIP3    H117454   1.468   3.870   1.181
 5816TIP3    H217455   1.347   3.944   1.235
 5817TIP3   OH217456   6.276   4.575   3.699
 5817TIP3    H117457   6.337   4.603   3.768
 5817TIP3    H217458   6.328   4.515   3.645
 5818TIP3   OH217459   5.452   4.704   4.187
 5818TIP3    H117460   5.359   4.719   4.168
 5818TIP3    H217461   5.481   4.785   4.228
 5819TIP3   OH217462   4.652   5.045   2.792
 5819TIP3    H117463   4.726   4.988   2.816
 5819TIP3    H217464   4.693   5.128   2.769
 5820TIP3   OH217465   5.235   2.810   4.032
 5820TIP3    H117466   5.282   2.881   3.987
 5820TIP3    H217467   5.151   2.805   3.987
 5821TIP3   OH217468   4.975   5.115   3.709
 5821TIP3    H117469   4.979   5.123   3.614
 5821TIP3    H217470   4.893   5.067   3.725
 5822TIP3   OH217471   6.048   0.785   3.779
 5822TIP3    H117472   6.093   0.735   3.712
 5822TIP3    H217473   6.107   0.784   3.854
 5823TIP3   OH217474   5.667   1.766   3.370
 5823TIP3    H117475   5.739   1.742   3.428
 5823TIP3    H217476   5.589   1.766   3.427
 5824TIP3   OH217477   3.667   1.469   0.692
 5824TIP3    H117478   3.727   1.436   0.759
 5824TIP3    H217479   3.659   1.397   0.630
 5825TIP3   OH217480   4.857   1.493   2.577
 5825TIP3    H117481   4.906   1.574   2.582
 5825TIP3    H217482   4.818   1.483   2.664
 5826TIP3   OH217483   3.085   5.441   0.109
 5826TIP3    H117484   3.031   5.450   0.187
 5826TIP3    H217485   3.170   5.475   0.135
 5827TIP3   OH217486   5.918   0.222   2.852
 5827TIP3    H117487   5.846   0.178   2.896
 5827TIP3    H217488   5.887   0.311   2.837
 5828TIP3   OH217489   2.280   0.901   4.384
 5828TIP3    H117490   2.271   0.846   4.463
 5828TIP3    H217491   2.231   0.853   4.317
 5829TIP3   OH217492   2.019   3.308   0.201
 5829TIP3    H117493   2.018   3.320   0.296
 5829TIP3    H217494   2.091   3.247   0.186
 5830TIP3   OH217495   1.934   2.388   4.122
 5830TIP3    H117496   1.880   2.315   4.093
 5830TIP3    H217497   1.914   2.397   4.215
 5831TIP3   OH217498   0.177   2.159   4.802
 5831TIP3    H117499   0.147   2.243   4.837
 5831TIP3    H217500   0.236   2.124   4.869
 5832TIP3   OH217501   2.549   4.957   0.200
 5832TIP3    H117502   2.607   5.004   0.259
 5832TIP3    H217503   2.471   4.939   0.253
 5833TIP3   OH217504   4.129   0.628   2.281
 5833TIP3    H117505   4.067   0.668   2.343
 5833TIP3    H217506   4.145   0.696   2.216
 5834TIP3   OH217507   0.578   5.645   0.222
 5834TIP3    H117508   0.506   5.692   0.179
 5834TIP3    H217509   0.563   5.658   0.315
 5835TIP3   OH217510   1.772   5.021   3.173
 5835TIP3    H117511   1.852   5.066   3.198
 5835TIP3    H217512   1.729   5.080   3.112
 5836TIP3   OH217513   4.957   4.045   4.006
 5836TIP3    H117514   5.031   4.041   4.065
 5836TIP3    H217515   4.912   4.127   4.030
 5837TIP3   OH217516   1.020   2.710   0.949
 5837TIP3    H117517   0.979   2.703   0.863
 5837TIP3    H217518   1.093   2.649   0.946
 5838TIP3   OH217519   1.123   0.727   4.538
 5838TIP3    H117520   1.146   0.666   4.468
 5838TIP3    H217521   1.039   0.764   4.510
 5839TIP3   OH217522   2.146   3.531   1.676
 5839TIP3    H117523   2.100   3.610   1.646
 5839TIP3    H217524   2.078   3.464   1.681
 5840TIP3   OH217525   2.647   4.975   4.097
 5840TIP3    H117526   2.692   4.935   4.023
 5840TIP3    H217527   2.603   4.902   4.140
 5841TIP3   OH217528   1.430   0.098   0.760
 5841TIP3    H117529   1.433   0.005   0.737
 5841TIP3    H217530   1.443   0.143   0.677
 5842TIP3   OH217531   1.418   1.352   3.018
 5842TIP3    H117532   1.478   1.426   3.020
 5842TIP3    H217533   1.342   1.384   2.969
 5843TIP3   OH217534   4.387   3.979   0.210
 5843TIP3    H117535   4.428   3.893   0.209
 5843TIP3    H217536   4.454   4.040   0.179
 5844TIP3   OH217537   5.290   0.021   3.733
 5844TIP3    H117538   5.249   0.108   3.730
 5844TIP3    H217539   5.383   0.039   3.748
 5845TIP3   OH217540   4.621   0.082   1.905
 5845TIP3    H117541   4.529   0.096   1.929
 5845TIP3    H217542   4.648   0.008   1.959
 5846TIP3   OH217543   4.542   5.682   4.681
 5846TIP3    H117544   4.482   5.614   4.713
 5846TIP3    H217545   4.539   5.673   4.586
 5847TIP3   OH217546   2.296   3.552   1.346
 5847TIP3    H117547   2.233   3.519   1.410
 5847TIP3    H217548   2.335   3.628   1.388
 5848TIP3   OH217549   0.454   1.484   4.248
 5848TIP3    H117550   0.546   1.507   4.264
 5848TIP3    H217551   0.418   1.465   4.334
 5849TIP3   OH217552   0.621   3.812   4.471
 5849TIP3    H117553   0.538   3.784   4.510
 5849TIP3    H217554   0.685   3.799   4.541
 5850TIP3   OH217555   5.622   3.740   1.747
 5850TIP3    H117556   5.671   3.823   1.741
 5850TIP3    H217557   5.665   3.693   1.818
 5851TIP3   OH217558   1.913   0.372   4.698
 5851TIP3    H117559   1.979   0.438   4.674
 5851TIP3    H217560   1.932   0.352   4.790
 5852TIP3   OH217561   0.465   1.029   1.230
 5852TIP3    H117562   0.370   1.021   1.241
 5852TIP3    H217563   0.485   0.972   1.155
 5853TIP3   OH217564   4.838   1.048   3.308
 5853TIP3    H117565   4.820   1.125   3.256
 5853TIP3    H217566   4.927   1.021   3.284
 5854TIP3   OH217567   0.496   5.019   3.288
 5854TIP3    H117568   0.433   5.081   3.254
 5854TIP3    H217569   0.580   5.047   3.253
 5855TIP3   OH217570   5.080   3.544   3.269
 5855TIP3    H117571   5.071   3.480   3.198
 5855TIP3    H217572   5.003   3.600   3.260
 5856TIP3   OH217573   3.715   5.042   4.544
 5856TIP3    H117574   3.728   4.958   4.500
 5856TIP3    H217575   3.772   5.103   4.496
 5857TIP3   OH217576   3.634   1.123   2.327
 5857TIP3    H117577   3.544   1.111   2.357
 5857TIP3    H217578   3.626   1.173   2.246
 5858TIP3   OH217579   1.894   1.091   2.596
 5858TIP3    H117580   1.939   1.015   2.560
 5858TIP3    H217581   1.805   1.062   2.612
 5859TIP3   OH217582   2.752   5.250   4.993
 5859TIP3    H117583   2.675   5.227   4.940
 5859TIP3    H217584   2.717   5.302   5.065
 5860TIP3   OH217585   2.781   3.268   1.049
 5860TIP3    H117586   2.725   3.344   1.066
 5860TIP3    H217587   2.827   3.290   0.967
 5861TIP3   OH217588   3.947   4.357   1.161
 5861TIP3    H117589   3.937   4.345   1.066
 5861TIP3    H217590   3.889   4.431   1.182
 5862TIP3   OH217591   4.672   4.832   0.127
 5862TIP3    H117592   4.696   4.922   0.104
 5862TIP3    H217593   4.720   4.778   0.065
 5863TIP3   OH217594   4.922   0.081   1.909
 5863TIP3    H117595   4.830   0.097   1.888
 5863TIP3    H217596   4.970   0.115   1.834
 5864TIP3   OH217597   2.320   1.161   0.163
 5864TIP3    H117598   2.342   1.223   0.093
 5864TIP3    H217599   2.292   1.216   0.236
 5865TIP3   OH217600   3.700   0.336   3.789
 5865TIP3    H117601   3.722   0.343   3.881
 5865TIP3    H217602   3.736   0.252   3.761
 5866TIP3   OH217603   4.311   2.554   4.438
 5866TIP3    H117604   4.314   2.644   4.407
 5866TIP3    H217605   4.397   2.538   4.476
 5867TIP3   OH217606   3.124   2.556   3.503
 5867TIP3    H117607   3.147   2.529   3.591
 5867TIP3    H217608   3.208   2.560   3.456
 5868TIP3   OH217609   1.172   0.567   0.412
 5868TIP3    H117610   1.175   0.596   0.503
 5868TIP3    H217611   1.258   0.590   0.376
 5869TIP3   OH217612   4.258   5.320   1.133
 5869TIP3    H117613   4.310   5.289   1.059
 5869TIP3    H217614   4.174   5.345   1.094
 5870TIP3   OH217615   0.375   0.431   1.504
 5870TIP3    H117616   0.456   0.481   1.494
 5870TIP3    H217617   0.398   0.358   1.561
 5871TIP3   OH217618   0.392   0.560   3.011
 5871TIP3    H117619   0.325   0.494   2.993
 5871TIP3    H217620   0.401   0.560   3.106
 5872TIP3   OH217621   1.621   0.069   0.179
 5872TIP3    H117622   1.614  -0.025   0.196
 5872TIP3    H217623   1.622   0.110   0.265
 5873TIP3   OH217624   4.802   1.177   0.728
 5873TIP3    H117625   4.835   1.158   0.816
 5873TIP3    H217626   4.799   1.091   0.685
 5874TIP3   OH217627   4.690   0.620   5.097
 5874TIP3    H117628   4.659   0.683   5.162
 5874TIP3    H217629   4.635   0.634   5.020
 5875TIP3   OH217630   1.068   3.576   2.486
 5875TIP3    H117631   1.050   3.617   2.571
 5875TIP3    H217632   1.155   3.608   2.463
 5876TIP3   OH217633   3.093   1.370   2.542
 5876TIP3    H117634   3.182   1.342   2.522
 5876TIP3    H217635   3.093   1.381   2.637
 5877TIP3   OH217636   0.040   5.351   3.664
 5877TIP3    H117637  -0.037   5.328   3.611
 5877TIP3    H217638   0.005   5.405   3.734
 5878TIP3   OH217639   1.568   2.028   2.531
 5878TIP3    H117640   1.542   1.995   2.617
 5878TIP3    H217641   1.529   2.115   2.526
 5879TIP3   OH217642   2.285   5.309   4.028
 5879TIP3    H117643   2.246   5.252   4.094
 5879TIP3    H217644   2.211   5.338   3.974
 5880TIP3   OH217645   0.471   1.140   4.789
 5880TIP3    H117646   0.524   1.197   4.844
 5880TIP3    H217647   0.461   1.059   4.839
 5881TIP3   OH217648   5.838   3.693   3.871
 5881TIP3    H117649   5.798   3.779   3.875
 5881TIP3    H217650   5.918   3.701   3.922
 5882TIP3   OH217651   2.512   2.268   1.138
 5882TIP3    H117652   2.586   2.208   1.141
 5882TIP3    H217653   2.551   2.352   1.112
 5883TIP3   OH217654   2.173   4.977   0.666
 5883TIP3    H117655   2.255   5.015   0.636
 5883TIP3    H217656   2.108   5.046   0.654
 5884TIP3   OH217657   0.612   3.874   2.765
 5884TIP3    H117658   0.516   3.873   2.760
 5884TIP3    H217659   0.640   3.889   2.675
 5885TIP3   OH217660   1.862   2.498   3.534
 5885TIP3    H117661   1.835   2.415   3.493
 5885TIP3    H217662   1.952   2.511   3.506
 5886TIP3   OH217663   1.739   3.256   0.155
 5886TIP3    H117664   1.732   3.352   0.150
 5886TIP3    H217665   1.827   3.240   0.189
 5887TIP3   OH217666   3.101   4.649   0.950
 5887TIP3    H117667   3.112   4.575   1.009
 5887TIP3    H217668   3.009   4.674   0.958
 5888TIP3   OH217669   3.828   3.312   3.074
 5888TIP3    H117670   3.827   3.225   3.033
 5888TIP3    H217671   3.921   3.332   3.085
 5889TIP3   OH217672   3.736   4.876   3.272
 5889TIP3    H117673   3.806   4.813   3.256
 5889TIP3    H217674   3.677   4.833   3.334
 5890TIP3   OH217675   3.195   1.144   3.763
 5890TIP3    H117676   3.221   1.076   3.701
 5890TIP3    H217677   3.108   1.170   3.734
 5891TIP3   OH217678   0.436   0.201   4.708
 5891TIP3    H117679   0.402   0.244   4.787
 5891TIP3    H217680   0.377   0.127   4.693
 5892TIP3   OH217681   2.741   0.939   4.789
 5892TIP3    H117682   2.746   1.024   4.834
 5892TIP3    H217683   2.783   0.954   4.704
 5893TIP3   OH217684   0.780   5.451   5.021
 5893TIP3    H117685   0.876   5.454   5.032
 5893TIP3    H217686   0.750   5.397   5.094
 5894TIP3   OH217687   3.675   5.213   2.979
 5894TIP3    H117688   3.713   5.195   2.893
 5894TIP3    H217689   3.749   5.242   3.033
 5895TIP3   OH217690   5.889   5.179   2.282
 5895TIP3    H117691   5.823   5.117   2.315
 5895TIP3    H217692   5.964   5.166   2.340
 5896TIP3   OH217693   0.478   2.038   3.192
 5896TIP3    H117694   0.492   2.094   3.117
 5896TIP3    H217695   0.565   2.009   3.218
 5897TIP3   OH217696   1.898   5.759   3.053
 5897TIP3    H117697   1.966   5.703   3.092
 5897TIP3    H217698   1.945   5.812   2.988
 5898TIP3   OH217699   5.835   5.562   3.692
 5898TIP3    H117700   5.828   5.467   3.696
 5898TIP3    H217701   5.925   5.581   3.716
 5899TIP3   OH217702   0.496   0.824   4.428
 5899TIP3    H117703   0.471   0.890   4.364
 5899TIP3    H217704   0.462   0.742   4.393
 5900TIP3   OH217705   6.099   5.172   3.438
 5900TIP3    H117706   6.104   5.267   3.449
 5900TIP3    H217707   6.060   5.160   3.352
 5901TIP3   OH217708   4.093   5.433   0.191
 5901TIP3    H117709   4.081   5.525   0.214
 5901TIP3    H217710   4.068   5.385   0.270
 5902TIP3   OH217711   0.418   4.361   1.339
 5902TIP3    H117712   0.450   4.415   1.412
 5902TIP3    H217713   0.452   4.273   1.358
 5903TIP3   OH217714   0.988   4.009   1.370
 5903TIP3    H117715   1.028   3.926   1.398
 5903TIP3    H217716   0.974   3.998   1.276
 5904TIP3   OH217717   4.228   0.776   1.751
 5904TIP3    H117718   4.191   0.701   1.799
 5904TIP3    H217719   4.313   0.744   1.720
 5905TIP3   OH217720   5.748   3.953   3.875
 5905TIP3    H117721   5.770   4.007   3.952
 5905TIP3    H217722   5.727   4.017   3.807
 5906TIP3   OH217723   5.727   1.287   4.881
 5906TIP3    H117724   5.635   1.299   4.856
 5906TIP3    H217725   5.739   1.343   4.957
 5907TIP3   OH217726   1.000   5.130   1.892
 5907TIP3    H117727   0.964   5.115   1.805
 5907TIP3    H217728   0.937   5.190   1.933
 5908TIP3   OH217729   5.532   5.723   4.641
 5908TIP3    H117730   5.525   5.803   4.589
 5908TIP3    H217731   5.443   5.705   4.671
 5909TIP3   OH217732   0.079   3.070   1.550
 5909TIP3    H117733   0.096   3.155   1.590
 5909TIP3    H217734   0.035   3.019   1.618
 5910TIP3   OH217735   1.663   5.217   0.829
 5910TIP3    H117736   1.669   5.311   0.810
 5910TIP3    H217737   1.746   5.181   0.798
 5911TIP3   OH217738   6.285   2.905   2.290
 5911TIP3    H117739   6.284   2.967   2.363
 5911TIP3    H217740   6.345   2.835   2.318
 5912TIP3   OH217741   0.952   1.087   2.792
 5912TIP3    H117742   0.888   1.155   2.769
 5912TIP3    H217743   0.922   1.052   2.875
 5913TIP3   OH217744   1.011   4.559   2.150
 5913TIP3    H117745   1.043   4.537   2.063
 5913TIP3    H217746   1.068   4.631   2.179
 5914TIP3   OH217747   4.078   5.443   4.154
 5914TIP3    H117748   4.002   5.422   4.209
 5914TIP3    H217749   4.104   5.531   4.182
 5915TIP3   OH217750   3.903   3.108   3.589
 5915TIP3    H117751   3.939   3.188   3.551
 5915TIP3    H217752   3.825   3.090   3.536
 5916TIP3   OH217753   6.146   4.995   0.515
 5916TIP3    H117754   6.146   4.953   0.600
 5916TIP3    H217755   6.053   5.006   0.493
 5917TIP3   OH217756   3.173   1.377   3.922
 5917TIP3    H117757   3.249   1.393   3.978
 5917TIP3    H217758   3.187   1.288   3.889
 5918TIP3   OH217759   0.169   5.174   3.470
 5918TIP3    H117760   0.099   5.159   3.407
 5918TIP3    H217761   0.135   5.240   3.530
 5919TIP3   OH217762   2.868   4.593   0.326
 5919TIP3    H117763   2.852   4.627   0.414
 5919TIP3    H217764   2.951   4.547   0.332
 5920TIP3   OH217765   4.565   1.248   4.319
 5920TIP3    H117766   4.586   1.295   4.239
 5920TIP3    H217767   4.597   1.159   4.304
 5921TIP3   OH217768   1.081   4.790   1.704
 5921TIP3    H117769   1.097   4.823   1.792
 5921TIP3    H217770   0.988   4.766   1.703
 5922TIP3   OH217771   2.891   5.102   1.913
 5922TIP3    H117772   2.877   5.194   1.891
 5922TIP3    H217773   2.869   5.054   1.833
 5923TIP3   OH217774   4.212   1.467   3.186
 5923TIP3    H117775   4.216   1.371   3.181
 5923TIP3    H217776   4.121   1.488   3.165
 5924TIP3   OH217777   0.567   2.419   2.833
 5924TIP3    H117778   0.632   2.489   2.843
 5924TIP3    H217779   0.536   2.427   2.743
 5925TIP3   OH217780   5.467   0.245   4.828
 5925TIP3    H117781   5.442   0.268   4.738
 5925TIP3    H217782   5.548   0.195   4.818
 5926TIP3   OH217783   4.644   3.068   2.881
 5926TIP3    H117784   4.555   3.103   2.869
 5926TIP3    H217785   4.687   3.132   2.938
 5927TIP3   OH217786   4.185   3.134   3.173
 5927TIP3    H117787   4.164   3.040   3.170
 5927TIP3    H217788   4.115   3.172   3.227
 5928TIP3   OH217789   2.954   2.444   2.942
 5928TIP3    H117790   3.033   2.497   2.933
 5928TIP3    H217791   2.913   2.476   3.023
 5929TIP3   OH217792   0.098   1.129   3.052
 5929TIP3    H117793   0.027   1.074   3.020
 5929TIP3    H217794   0.169   1.118   2.989
 5930TIP3   OH217795   4.233   0.762   4.988
 5930TIP3    H117796   4.140   0.782   4.996
 5930TIP3    H217797   4.277   0.846   5.002
 5931TIP3   OH217798   2.625   5.742   1.140
 5931TIP3    H117799   2.621   5.656   1.182
 5931TIP3    H217800   2.537   5.758   1.108
 5932TIP3   OH217801   4.671   5.739   2.544
 5932TIP3    H117802   4.667   5.750   2.639
 5932TIP3    H217803   4.651   5.826   2.509
 5933TIP3   OH217804   1.740   0.060   1.485
 5933TIP3    H117805   1.712  -0.027   1.457
 5933TIP3    H217806   1.705   0.069   1.574
 5934TIP3   OH217807   4.459   1.032   2.030
 5934TIP3    H117808   4.432   0.946   2.062
 5934TIP3    H217809   4.555   1.030   2.031
 5935TIP3   OH217810   2.615   1.643   3.408
 5935TIP3    H117811   2.654   1.703   3.344
 5935TIP3    H217812   2.689   1.612   3.459
 5936TIP3   OH217813   6.149   4.615   3.018
 5936TIP3    H117814   6.089   4.686   3.041
 5936TIP3    H217815   6.149   4.614   2.922
 5937TIP3   OH217816   5.012   0.859   2.389
 5937TIP3    H117817   4.995   0.915   2.463
 5937TIP3    H217818   4.958   0.781   2.404
 5938TIP3   OH217819   2.254   4.022   1.926
 5938TIP3    H117820   2.274   4.116   1.930
 5938TIP3    H217821   2.227   4.007   1.835
 5939TIP3   OH217822   2.983   0.585   0.378
 5939TIP3    H117823   3.077   0.579   0.393
 5939TIP3    H217824   2.958   0.496   0.350
 5940TIP3   OH217825   1.346   5.083   3.992
 5940TIP3    H117826   1.423   5.105   3.941
 5940TIP3    H217827   1.361   4.994   4.022
 5941TIP3   OH217828   3.466   3.506   1.908
 5941TIP3    H117829   3.562   3.512   1.901
 5941TIP3    H217830   3.448   3.412   1.903
 5942TIP3   OH217831   1.850   2.751   4.563
 5942TIP3    H117832   1.832   2.685   4.629
 5942TIP3    H217833   1.912   2.709   4.503
 5943TIP3   OH217834   5.745   0.124   2.507
 5943TIP3    H117835   5.806   0.194   2.484
 5943TIP3    H217836   5.793   0.043   2.490
 5944TIP3   OH217837   1.921   4.959   1.753
 5944TIP3    H117838   1.979   4.910   1.694
 5944TIP3    H217839   1.980   5.009   1.809
 5945TIP3   OH217840   5.475   2.551   0.980
 5945TIP3    H117841   5.526   2.606   0.920
 5945TIP3    H217842   5.468   2.467   0.936
 5946TIP3   OH217843   1.825   1.462   2.844
 5946TIP3    H117844   1.903   1.432   2.891
 5946TIP3    H217845   1.772   1.505   2.911
 5947TIP3   OH217846   4.171   3.772   2.706
 5947TIP3    H117847   4.104   3.800   2.643
 5947TIP3    H217848   4.237   3.727   2.652
 5948TIP3   OH217849   2.152   4.870   3.576
 5948TIP3    H117850   2.063   4.842   3.597
 5948TIP3    H217851   2.168   4.945   3.632
 5949TIP3   OH217852   0.404   2.960   3.193
 5949TIP3    H117853   0.353   2.937   3.271
 5949TIP3    H217854   0.389   3.054   3.182
 5950TIP3   OH217855   5.496   1.736   0.512
 5950TIP3    H117856   5.502   1.646   0.544
 5950TIP3    H217857   5.527   1.731   0.422
 5951TIP3   OH217858   5.188   4.163   2.691
 5951TIP3    H117859   5.130   4.088   2.680
 5951TIP3    H217860   5.174   4.215   2.612
 5952TIP3   OH217861   4.207   2.246   1.824
 5952TIP3    H117862   4.203   2.329   1.776
 5952TIP3    H217863   4.234   2.271   1.912
 5953TIP3   OH217864   1.857   2.669   2.710
 5953TIP3    H117865   1.785   2.615   2.677
 5953TIP3    H217866   1.867   2.738   2.644
 5954TIP3   OH217867   2.895   3.335   1.823
 5954TIP3    H117868   2.865   3.250   1.792
 5954TIP3    H217869   2.988   3.323   1.841
 5955TIP3   OH217870   3.911   1.847   1.091
 5955TIP3    H117871   3.996   1.810   1.065
 5955TIP3    H217872   3.873   1.780   1.148
 5956TIP3   OH217873   4.268   3.503   1.201
 5956TIP3    H117874   4.288   3.486   1.293
 5956TIP3    H217875   4.177   3.531   1.201
 5957TIP3   OH217876   1.741   2.532   3.224
 5957TIP3    H117877   1.836   2.533   3.234
 5957TIP3    H217878   1.726   2.555   3.132
 5958TIP3   OH217879   0.129   4.652   4.325
 5958TIP3    H117880   0.042   4.627   4.292
 5958TIP3    H217881   0.112   4.725   4.384
 5959TIP3   OH217882   4.849   3.790   3.228
 5959TIP3    H117883   4.804   3.830   3.154
 5959TIP3    H217884   4.807   3.705   3.239
 5960TIP3   OH217885   5.120   0.970   0.518
 5960TIP3    H117886   5.145   0.911   0.589
 5960TIP3    H217887   5.098   1.052   0.562
 5961TIP3   OH217888   5.814   5.846   3.356
 5961TIP3    H117889   5.829   5.940   3.364
 5961TIP3    H217890   5.868   5.807   3.425
 5962TIP3   OH217891   3.687   3.975   4.139
 5962TIP3    H117892   3.692   3.885   4.172
 5962TIP3    H217893   3.637   3.968   4.058
 5963TIP3   OH217894   5.001   1.762   1.840
 5963TIP3    H117895   4.948   1.822   1.788
 5963TIP3    H217896   4.977   1.781   1.931
 5964TIP3   OH217897   4.741   3.540   3.304
 5964TIP3    H117898   4.711   3.552   3.394
 5964TIP3    H217899   4.777   3.451   3.303
 5965TIP3   OH217900   3.790   1.993   1.552
 5965TIP3    H117901   3.735   1.918   1.533
 5965TIP3    H217902   3.877   1.956   1.570
 5966TIP3   OH217903   3.959   5.069   3.531
 5966TIP3    H117904   3.996   5.154   3.554
 5966TIP3    H217905   3.864   5.081   3.534
 5967TIP3   OH217906   2.559   5.229   4.099
 5967TIP3    H117907   2.583   5.137   4.093
 5967TIP3    H217908   2.466   5.232   4.078
 5968TIP3   OH217909   2.002   1.331   3.018
 5968TIP3    H117910   2.085   1.285   3.006
 5968TIP3    H217911   1.987   1.331   3.112
 5969TIP3   OH217912   5.793   3.230   3.305
 5969TIP3    H117913   5.822   3.303   3.358
 5969TIP3    H217914   5.727   3.186   3.358
 5970TIP3   OH217915   4.821   5.393   0.012
 5970TIP3    H117916   4.847   5.402   0.103
 5970TIP3    H217917   4.734   5.353   0.015
 5971TIP3   OH217918   1.390   1.130   0.111
 5971TIP3    H117919   1.398   1.058   0.049
 5971TIP3    H217920   1.389   1.209   0.057
 5972TIP3   OH217921   2.666   1.784   2.799
 5972TIP3    H117922   2.642   1.851   2.864
 5972TIP3    H217923   2.583   1.739   2.780
 5973TIP3   OH217924   6.094   1.972   3.818
 5973TIP3    H117925   6.152   1.896   3.826
 5973TIP3    H217926   6.136   2.039   3.872
 5974TIP3   OH217927   1.083   4.135   5.094
 5974TIP3    H117928   1.017   4.076   5.131
 5974TIP3    H217929   1.068   4.132   5.000
 5975TIP3   OH217930   0.933   5.909   2.642
 5975TIP3    H117931   0.896   5.936   2.726
 5975TIP3    H217932   0.987   5.833   2.664
 5976TIP3   OH217933   1.695   3.793   1.072
 5976TIP3    H117934   1.730   3.872   1.114
 5976TIP3    H217935   1.754   3.776   0.999
 5977TIP3   OH217936   2.281   4.371   2.969
 5977TIP3    H117937   2.286   4.394   3.062
 5977TIP3    H217938   2.271   4.455   2.924
 5978TIP3   OH217939   1.884   0.301   1.789
 5978TIP3    H117940   1.789   0.289   1.782
 5978TIP3    H217941   1.904   0.369   1.726
 5979TIP3   OH217942   3.604   5.813   4.830
 5979TIP3    H117943   3.614   5.732   4.780
 5979TIP3    H217944   3.678   5.813   4.891
 5980TIP3   OH217945   2.158   2.476   3.443
 5980TIP3    H117946   2.205   2.415   3.499
 5980TIP3    H217947   2.226   2.529   3.401
 5981TIP3   OH217948   4.295   1.715   4.450
 5981TIP3    H117949   4.320   1.627   4.477
 5981TIP3    H217950   4.294   1.766   4.531
 5982TIP3   OH217951   3.495   5.270   4.151
 5982TIP3    H117952   3.507   5.336   4.220
 5982TIP3    H217953   3.484   5.188   4.198
 5983TIP3   OH217954   5.615   5.624   4.256
 5983TIP3    H117955   5.578   5.561   4.194
 5983TIP3    H217956   5.654   5.692   4.201
 5984TIP3   OH217957   0.150   4.229   1.812
 5984TIP3    H117958   0.102   4.155   1.776
 5984TIP3    H217959   0.236   4.224   1.770
 5985TIP3   OH217960   3.897   3.774   2.941
 5985TIP3    H117961   3.843   3.792   3.018
 5985TIP3    H217962   3.843   3.714   2.888
 5986TIP3   OH217963   3.870   0.635   3.440
 5986TIP3    H117964   3.779   0.662   3.449
 5986TIP3    H217965   3.900   0.620   3.529
 5987TIP3   OH217966   0.972   2.172   3.679
 5987TIP3    H117967   1.041   2.232   3.651
 5987TIP3    H217968   0.935   2.138   3.598
 5988TIP3   OH217969   3.746   2.684   0.779
 5988TIP3    H117970   3.709   2.772   0.768
 5988TIP3    H217971   3.703   2.631   0.712
 5989TIP3   OH217972   3.815  -0.021   2.818
 5989TIP3    H117973   3.794   0.004   2.908
 5989TIP3    H217974   3.775   0.048   2.764
 5990TIP3   OH217975   1.698   5.846   3.319
 5990TIP3    H117976   1.645   5.808   3.249
 5990TIP3    H217977   1.788   5.843   3.286
 5991TIP3   OH217978   2.390   5.550   3.774
 5991TIP3    H117979   2.430   5.514   3.854
 5991TIP3    H217980   2.453   5.615   3.743
 5992TIP3   OH217981   1.626   3.833   2.205
 5992TIP3    H117982   1.553   3.853   2.146
 5992TIP3    H217983   1.673   3.761   2.162
 5993TIP3   OH217984   3.287   0.355   0.434
 5993TIP3    H117985   3.284   0.336   0.340
 5993TIP3    H217986   3.283   0.450   0.439
 5994TIP3   OH217987   2.411   1.269   3.938
 5994TIP3    H117988   2.389   1.182   3.970
 5994TIP3    H217989   2.335   1.296   3.887
 5995TIP3   OH217990   6.241   5.419   0.720
 5995TIP3    H117991   6.228   5.511   0.697
 5995TIP3    H217992   6.269   5.421   0.812
 5996TIP3   OH217993   4.893   5.229   1.247
 5996TIP3    H117994   4.851   5.152   1.210
 5996TIP3    H217995   4.843   5.303   1.211
 5997TIP3   OH217996   4.689   0.691   4.299
 5997TIP3    H117997   4.618   0.662   4.242
 5997TIP3    H217998   4.726   0.611   4.334
 5998TIP3   OH217999   5.472   1.508   1.317
 5998TIP3    H118000   5.534   1.436   1.332
 5998TIP3    H218001   5.386   1.466   1.318
 5999TIP3   OH218002   3.894   1.577   4.591
 5999TIP3    H118003   3.926   1.546   4.506
 5999TIP3    H218004   3.951   1.535   4.655
 6000TIP3   OH218005   3.207   0.607   0.552
 6000TIP3    H118006   3.173   0.635   0.637
 6000TIP3    H218007   3.251   0.685   0.517
 6001TIP3   OH218008   4.493   2.079   2.961
 6001TIP3    H118009   4.436   2.050   2.890
 6001TIP3    H218010   4.506   2.001   3.015
 6002TIP3   OH218011   0.930   4.511   0.917
 6002TIP3    H118012   0.932   4.597   0.876
 6002TIP3    H218013   0.904   4.451   0.847
 6003TIP3   OH218014   3.267   3.689   3.073
 6003TIP3    H118015   3.321   3.691   3.152
 6003TIP3    H218016   3.329   3.707   3.002
 6004TIP3   OH218017   6.115   1.333   0.758
 6004TIP3    H118018   6.152   1.375   0.679
 6004TIP3    H218019   6.025   1.364   0.761
 6005TIP3   OH218020   2.498   1.399   0.979
 6005TIP3    H118021   2.572   1.450   1.011
 6005TIP3    H218022   2.532   1.310   0.968
 6006TIP3   OH218023   0.958   0.841   0.270
 6006TIP3    H118024   1.007   0.763   0.241
 6006TIP3    H218025   1.017   0.914   0.252
 6007TIP3   OH218026   2.761   4.518   2.736
 6007TIP3    H118027   2.675   4.505   2.775
 6007TIP3    H218028   2.822   4.516   2.810
 6008TIP3   OH218029   3.444   5.374   4.870
 6008TIP3    H118030   3.377   5.369   4.939
 6008TIP3    H218031   3.511   5.432   4.906
 6009TIP3   OH218032   5.938   0.830   4.856
 6009TIP3    H118033   5.981   0.834   4.770
 6009TIP3    H218034   5.945   0.738   4.882
 6010TIP3   OH218035   5.065   1.293   2.558
 6010TIP3    H118036   5.116   1.313   2.636
 6010TIP3    H218037   4.988   1.351   2.565
 6011TIP3   OH218038   2.376   4.749   1.880
 6011TIP3    H118039   2.299   4.756   1.937
 6011TIP3    H218040   2.450   4.759   1.939
 6012TIP3   OH218041   1.138   3.863   4.083
 6012TIP3    H118042   1.214   3.891   4.134
 6012TIP3    H218043   1.069   3.847   4.148
 6013TIP3   OH218044   2.031   3.735   1.529
 6013TIP3    H118045   2.097   3.755   1.462
 6013TIP3    H218046   1.947   3.757   1.488
 6014TIP3   OH218047   0.937   2.990   4.578
 6014TIP3    H118048   0.845   2.969   4.560
 6014TIP3    H218049   0.952   2.957   4.666
 6015TIP3   OH218050   4.459   3.463   4.880
 6015TIP3    H118051   4.447   3.550   4.917
 6015TIP3    H218052   4.546   3.466   4.838
 6016TIP3   OH218053   1.218   4.383   5.138
 6016TIP3    H118054   1.193   4.363   5.228
 6016TIP3    H218055   1.170   4.319   5.085
 6017TIP3   OH218056   2.622   5.013   4.729
 6017TIP3    H118057   2.529   5.033   4.718
 6017TIP3    H218058   2.666   5.064   4.661
 6018TIP3   OH218059   2.390   1.003   1.684
 6018TIP3    H118060   2.442   1.078   1.712
 6018TIP3    H218061   2.301   1.038   1.676
 6019TIP3   OH218062   1.037   3.365   0.763
 6019TIP3    H118063   1.118   3.342   0.808
 6019TIP3    H218064   1.000   3.281   0.736
 6020TIP3   OH218065   2.299   2.423   4.949
 6020TIP3    H118066   2.312   2.331   4.926
 6020TIP3    H218067   2.369   2.470   4.903
 6021TIP3   OH218068   2.804   0.427   4.742
 6021TIP3    H118069   2.891   0.461   4.762
 6021TIP3    H218070   2.761   0.418   4.827
 6022TIP3   OH218071   0.510   1.104   0.275
 6022TIP3    H118072   0.434   1.085   0.220
 6022TIP3    H218073   0.511   1.033   0.340
 6023TIP3   OH218074   1.203   1.805   5.228
 6023TIP3    H118075   1.128   1.864   5.219
 6023TIP3    H218076   1.275   1.850   5.183
 6024TIP3   OH218077   3.175   3.440   1.847
 6024TIP3    H118078   3.168   3.491   1.928
 6024TIP3    H218079   3.147   3.499   1.778
 6025TIP3   OH218080   1.424   3.262   3.852
 6025TIP3    H118081   1.358   3.331   3.856
 6025TIP3    H218082   1.394   3.203   3.782
 6026TIP3   OH218083   4.473   3.830   1.076
 6026TIP3    H118084   4.518   3.915   1.077
 6026TIP3    H218085   4.484   3.796   1.165
 6027TIP3   OH218086   2.551   4.341   2.574
 6027TIP3    H118087   2.458   4.349   2.598
 6027TIP3    H218088   2.596   4.323   2.656
 6028TIP3   OH218089   1.025   4.262   2.170
 6028TIP3    H118090   1.120   4.269   2.159
 6028TIP3    H218091   0.991   4.254   2.081
 6029TIP3   OH218092   5.775   2.334   4.447
 6029TIP3    H118093   5.808   2.372   4.529
 6029TIP3    H218094   5.705   2.393   4.420
 6030TIP3   OH218095   0.133   2.338   5.003
 6030TIP3    H118096   0.131   2.433   5.010
 6030TIP3    H218097   0.048   2.310   5.036
 6031TIP3   OH218098   4.403   3.150   4.234
 6031TIP3    H118099   4.321   3.155   4.185
 6031TIP3    H218100   4.469   3.187   4.175
 6032TIP3   OH218101   3.471   1.658   0.774
 6032TIP3    H118102   3.487   1.739   0.725
 6032TIP3    H218103   3.551   1.607   0.763
 6033TIP3   OH218104   0.751   0.895   4.919
 6033TIP3    H118105   0.839   0.917   4.949
 6033TIP3    H218106   0.764   0.821   4.860
 6034TIP3   OH218107   3.713   4.342   3.877
 6034TIP3    H118108   3.763   4.319   3.799
 6034TIP3    H218109   3.780   4.359   3.944
 6035TIP3   OH218110   4.202   2.955   4.381
 6035TIP3    H118111   4.154   3.023   4.428
 6035TIP3    H218112   4.239   2.900   4.449
 6036TIP3   OH218113   3.118   2.407   3.239
 6036TIP3    H118114   3.131   2.415   3.333
 6036TIP3    H218115   3.034   2.451   3.222
 6037TIP3   OH218116   4.750   0.329   3.086
 6037TIP3    H118117   4.769   0.408   3.137
 6037TIP3    H218118   4.829   0.314   3.035
 6038TIP3   OH218119   0.308   1.937   1.724
 6038TIP3    H118120   0.304   2.022   1.768
 6038TIP3    H218121   0.219   1.923   1.692
 6039TIP3   OH218122   5.486   0.954   3.607
 6039TIP3    H118123   5.515   1.020   3.544
 6039TIP3    H218124   5.543   0.878   3.588
 6040TIP3   OH218125   5.997   0.255   2.043
 6040TIP3    H118126   6.036   0.185   1.991
 6040TIP3    H218127   5.916   0.217   2.078
 6041TIP3   OH218128   2.429   0.225   4.997
 6041TIP3    H118129   2.368   0.209   4.926
 6041TIP3    H218130   2.386   0.290   5.052
 6042TIP3   OH218131   6.211   1.966   4.701
 6042TIP3    H118132   6.243   2.008   4.622
 6042TIP3    H218133   6.167   1.887   4.670
 6043TIP3   OH218134   4.723   3.233   1.768
 6043TIP3    H118135   4.647   3.221   1.712
 6043TIP3    H218136   4.764   3.146   1.772
 6044TIP3   OH218137   1.330   2.793   1.133
 6044TIP3    H118138   1.312   2.708   1.092
 6044TIP3    H218139   1.425   2.800   1.135
 6045TIP3   OH218140   2.150   3.010   0.091
 6045TIP3    H118141   2.138   2.918   0.111
 6045TIP3    H218142   2.187   3.048   0.170
 6046TIP3   OH218143   3.355   5.044   3.316
 6046TIP3    H118144   3.410   5.003   3.249
 6046TIP3    H218145   3.397   5.127   3.334
 6047TIP3   OH218146   3.623   2.600   4.322
 6047TIP3    H118147   3.545   2.547   4.308
 6047TIP3    H218148   3.623   2.618   4.416
 6048TIP3   OH218149   5.661   0.698   5.150
 6048TIP3    H118150   5.725   0.730   5.214
 6048TIP3    H218151   5.678   0.750   5.072
 6049TIP3   OH218152   1.197   3.032   1.949
 6049TIP3    H118153   1.228   3.087   1.877
 6049TIP3    H218154   1.152   3.093   2.007
 6050TIP3   OH218155   1.302   1.340   2.247
 6050TIP3    H118156   1.286   1.328   2.341
 6050TIP3    H218157   1.341   1.257   2.219
 6051TIP3   OH218158   3.925   1.711   4.157
 6051TIP3    H118159   3.961   1.742   4.240
 6051TIP3    H218160   3.859   1.776   4.134
 6052TIP3   OH218161   1.450   3.298   1.502
 6052TIP3    H118162   1.491   3.302   1.588
 6052TIP3    H218163   1.480   3.377   1.457
 6053TIP3   OH218164   4.058   0.314   1.291
 6053TIP3    H118165   4.046   0.314   1.385
 6053TIP3    H218166   4.031   0.402   1.263
 6054TIP3   OH218167   1.649   5.251   2.018
 6054TIP3    H118168   1.690   5.197   1.951
 6054TIP3    H218169   1.716   5.261   2.086
 6055TIP3   OH218170   5.243   1.396   4.900
 6055TIP3    H118171   5.293   1.408   4.981
 6055TIP3    H218172   5.194   1.315   4.912
 6056TIP3   OH218173   5.458   4.222   2.410
 6056TIP3    H118174   5.439   4.145   2.356
 6056TIP3    H218175   5.479   4.291   2.347
 6057TIP3   OH218176   0.291   4.688   0.739
 6057TIP3    H118177   0.249   4.661   0.658
 6057TIP3    H218178   0.381   4.708   0.713
 6058TIP3   OH218179   0.972   2.103   0.564
 6058TIP3    H118180   0.942   2.119   0.474
 6058TIP3    H218181   0.935   2.018   0.587
 6059TIP3   OH218182   3.008   4.987   5.161
 6059TIP3    H118183   2.927   4.937   5.154
 6059TIP3    H218184   3.066   4.951   5.094
 6060TIP3   OH218185   2.489   2.470   3.829
 6060TIP3    H118186   2.449   2.555   3.847
 6060TIP3    H218187   2.541   2.485   3.749
 6061TIP3   OH218188   1.900   4.076   2.013
 6061TIP3    H118189   1.958   4.109   1.944
 6061TIP3    H218190   1.899   3.981   1.999
 6062TIP3   OH218191   3.109   4.742   2.166
 6062TIP3    H118192   3.067   4.817   2.209
 6062TIP3    H218193   3.195   4.775   2.140
 6063TIP3   OH218194   3.702   3.497   2.353
 6063TIP3    H118195   3.783   3.510   2.304
 6063TIP3    H218196   3.717   3.542   2.436
 6064TIP3   OH218197   4.606   3.599   3.819
 6064TIP3    H118198   4.560   3.616   3.901
 6064TIP3    H218199   4.689   3.646   3.827
 6065TIP3   OH218200   1.723   2.157   0.979
 6065TIP3    H118201   1.734   2.136   1.071
 6065TIP3    H218202   1.803   2.203   0.955
 6066TIP3   OH218203   1.311   3.254   3.461
 6066TIP3    H118204   1.310   3.200   3.540
 6066TIP3    H218205   1.330   3.192   3.390
 6067TIP3   OH218206   2.725   0.108   0.776
 6067TIP3    H118207   2.736   0.096   0.870
 6067TIP3    H218208   2.783   0.042   0.737
 6068TIP3   OH218209   4.876   4.645   3.354
 6068TIP3    H118210   4.860   4.702   3.429
 6068TIP3    H218211   4.964   4.669   3.325
 6069TIP3   OH218212   3.423   1.931   4.264
 6069TIP3    H118213   3.456   1.994   4.200
 6069TIP3    H218214   3.490   1.863   4.267
 6070TIP3   OH218215   5.998   0.593   0.522
 6070TIP3    H118216   6.028   0.680   0.494
 6070TIP3    H218217   6.078   0.541   0.525
 6071TIP3   OH218218   1.648   2.610   4.235
 6071TIP3    H118219   1.662   2.591   4.328
 6071TIP3    H218220   1.575   2.554   4.210
 6072TIP3   OH218221   0.624   1.890   4.141
 6072TIP3    H118222   0.561   1.835   4.095
 6072TIP3    H218223   0.709   1.858   4.112
 6073TIP3   OH218224   1.092   4.610   2.747
 6073TIP3    H118225   1.122   4.538   2.804
 6073TIP3    H218226   1.006   4.634   2.782
 6074TIP3   OH218227   6.289   1.172   4.912
 6074TIP3    H118228   6.358   1.220   4.866
 6074TIP3    H218229   6.257   1.109   4.848
 6075TIP3   OH218230   1.653   4.647   4.209
 6075TIP3    H118231   1.680   4.721   4.264
 6075TIP3    H218232   1.564   4.627   4.237
 6076TIP3   OH218233   0.234   0.182   1.644
 6076TIP3    H118234   0.312   0.198   1.697
 6076TIP3    H218235   0.164   0.229   1.690
 6077TIP3   OH218236   2.968   5.544   0.350
 6077TIP3    H118237   2.958   5.462   0.398
 6077TIP3    H218238   2.879   5.573   0.332
 6078TIP3   OH218239   5.248   2.125   4.599
 6078TIP3    H118240   5.239   2.036   4.565
 6078TIP3    H218241   5.328   2.159   4.558
 6079TIP3   OH218242   2.638   0.221   1.557
 6079TIP3    H118243   2.567   0.157   1.547
 6079TIP3    H218244   2.666   0.241   1.468
 6080TIP3   OH218245   3.059   3.950   2.900
 6080TIP3    H118246   3.141   3.981   2.862
 6080TIP3    H218247   3.082   3.870   2.948
 6081TIP3   OH218248   2.025   2.911   1.071
 6081TIP3    H118249   2.069   2.829   1.049
 6081TIP3    H218250   1.940   2.906   1.026
 6082TIP3   OH218251   1.358   0.717   3.039
 6082TIP3    H118252   1.424   0.730   2.971
 6082TIP3    H218253   1.281   0.686   2.992
 6083TIP3   OH218254   0.856   0.542   3.941
 6083TIP3    H118255   0.875   0.486   4.016
 6083TIP3    H218256   0.828   0.481   3.872
 6084TIP3   OH218257   2.895   2.534   0.268
 6084TIP3    H118258   2.842   2.574   0.337
 6084TIP3    H218259   2.983   2.529   0.306
 6085TIP3   OH218260   2.670   5.316   2.747
 6085TIP3    H118261   2.742   5.363   2.788
 6085TIP3    H218262   2.661   5.355   2.661
 6086TIP3   OH218263   2.357   3.106   4.371
 6086TIP3    H118264   2.295   3.035   4.386
 6086TIP3    H218265   2.344   3.164   4.446
 6087TIP3   OH218266   3.099   4.188   1.359
 6087TIP3    H118267   3.016   4.209   1.402
 6087TIP3    H218268   3.074   4.149   1.275
 6088TIP3   OH218269   2.777   0.656   1.590
 6088TIP3    H118270   2.842   0.600   1.548
 6088TIP3    H218271   2.791   0.742   1.551
 6089TIP3   OH218272   3.409   2.409   1.306
 6089TIP3    H118273   3.390   2.422   1.212
 6089TIP3    H218274   3.470   2.480   1.327
 6090TIP3   OH218275   2.215   4.881  -0.004
 6090TIP3    H118276   2.243   4.836   0.076
 6090TIP3    H218277   2.284   4.945  -0.021
 6091TIP3   OH218278   1.496   2.405   1.515
 6091TIP3    H118279   1.440   2.382   1.441
 6091TIP3    H218280   1.494   2.501   1.517
 6092TIP3   OH218281   0.720   0.709   2.504
 6092TIP3    H118282   0.800   0.716   2.453
 6092TIP3    H218283   0.711   0.615   2.523
 6093TIP3   OH218284   4.371   0.149   2.043
 6093TIP3    H118285   4.308   0.080   2.064
 6093TIP3    H218286   4.411   0.171   2.127
 6094TIP3   OH218287   2.933   1.866   1.563
 6094TIP3    H118288   3.026   1.861   1.584
 6094TIP3    H218289   2.908   1.956   1.585
 6095TIP3   OH218290   1.624   0.145   3.379
 6095TIP3    H118291   1.649   0.225   3.426
 6095TIP3    H218292   1.585   0.177   3.297
 6096TIP3   OH218293   4.930   2.995   0.768
 6096TIP3    H118294   4.901   2.922   0.823
 6096TIP3    H218295   4.907   2.969   0.679
 6097TIP3   OH218296   5.040   0.817   4.970
 6097TIP3    H118297   5.033   0.764   5.049
 6097TIP3    H218298   5.060   0.754   4.901
 6098TIP3   OH218299   5.526   5.655   1.856
 6098TIP3    H118300   5.502   5.624   1.944
 6098TIP3    H218301   5.616   5.688   1.866
 6099TIP3   OH218302   2.995   5.066   4.719
 6099TIP3    H118303   2.944   4.988   4.696
 6099TIP3    H218304   3.067   5.033   4.773
 6100TIP3   OH218305   2.842   1.327   2.785
 6100TIP3    H118306   2.762   1.332   2.733
 6100TIP3    H218307   2.833   1.398   2.850
 6101TIP3   OH218308   2.297   0.722   3.263
 6101TIP3    H118309   2.258   0.745   3.347
 6101TIP3    H218310   2.241   0.653   3.228
 6102TIP3   OH218311   3.388   2.738   2.681
 6102TIP3    H118312   3.341   2.691   2.611
 6102TIP3    H218313   3.477   2.704   2.676
 6103TIP3   OH218314   1.412   5.753   4.796
 6103TIP3    H118315   1.439   5.822   4.857
 6103TIP3    H218316   1.489   5.736   4.743
 6104TIP3   OH218317   5.024   5.077   4.568
 6104TIP3    H118318   5.024   5.018   4.493
 6104TIP3    H218319   5.086   5.038   4.629
 6105TIP3   OH218320   0.814   0.740   3.701
 6105TIP3    H118321   0.771   0.667   3.656
 6105TIP3    H218322   0.843   0.702   3.785
 6106TIP3   OH218323   2.811   3.574   3.459
 6106TIP3    H118324   2.823   3.625   3.539
 6106TIP3    H218325   2.743   3.620   3.411
 6107TIP3   OH218326   3.732   2.475   2.238
 6107TIP3    H118327   3.764   2.470   2.148
 6107TIP3    H218328   3.773   2.554   2.273
 6108TIP3   OH218329   2.903   4.280   0.902
 6108TIP3    H118330   2.991   4.316   0.894
 6108TIP3    H218331   2.916   4.185   0.907
 6109TIP3   OH218332   5.273   5.476   0.196
 6109TIP3    H118333   5.191   5.521   0.217
 6109TIP3    H218334   5.253   5.428   0.116
 6110TIP3   OH218335   1.610   1.679   3.487
 6110TIP3    H118336   1.604   1.745   3.418
 6110TIP3    H218337   1.569   1.601   3.449
 6111TIP3   OH218338   1.464   0.403   2.878
 6111TIP3    H118339   1.413   0.475   2.842
 6111TIP3    H218340   1.439   0.400   2.971
 6112TIP3   OH218341   4.140   4.405   3.266
 6112TIP3    H118342   4.119   4.369   3.180
 6112TIP3    H218343   4.118   4.498   3.260
 6113TIP3   OH218344   4.109   5.925   3.275
 6113TIP3    H118345   4.138   5.991   3.211
 6113TIP3    H218346   4.101   5.844   3.223
 6114TIP3   OH218347   4.238   0.603   3.486
 6114TIP3    H118348   4.211   0.517   3.455
 6114TIP3    H218349   4.210   0.664   3.418
 6115TIP3   OH218350   1.143   1.449   4.022
 6115TIP3    H118351   1.147   1.362   3.982
 6115TIP3    H218352   1.079   1.497   3.968
 6116TIP3   OH218353   6.341   4.803   2.171
 6116TIP3    H118354   6.378   4.784   2.085
 6116TIP3    H218355   6.254   4.762   2.170
 6117TIP3   OH218356   0.477   2.232   3.008
 6117TIP3    H118357   0.425   2.298   3.053
 6117TIP3    H218358   0.527   2.281   2.943
 6118TIP3   OH218359   4.682   5.968   4.437
 6118TIP3    H118360   4.691   5.917   4.518
 6118TIP3    H218361   4.609   5.927   4.391
 6119TIP3   OH218362   4.252   1.977   2.788
 6119TIP3    H118363   4.297   1.895   2.811
 6119TIP3    H218364   4.238   1.970   2.693
 6120TIP3   OH218365   1.739   5.634   2.415
 6120TIP3    H118366   1.645   5.616   2.414
 6120TIP3    H218367   1.754   5.692   2.340
 6121TIP3   OH218368   5.397   2.603   1.432
 6121TIP3    H118369   5.401   2.533   1.497
 6121TIP3    H218370   5.405   2.558   1.348
 6122TIP3   OH218371   6.173   3.070   2.951
 6122TIP3    H118372   6.126   3.062   3.034
 6122TIP3    H218373   6.202   3.161   2.948
 6123TIP3   OH218374   0.492   1.915   3.544
 6123TIP3    H118375   0.527   2.004   3.533
 6123TIP3    H218376   0.544   1.878   3.615
 6124TIP3   OH218377   5.426   3.818   4.563
 6124TIP3    H118378   5.369   3.741   4.555
 6124TIP3    H218379   5.452   3.819   4.655
 6125TIP3   OH218380   5.300   4.832   0.199
 6125TIP3    H118381   5.207   4.835   0.221
 6125TIP3    H218382   5.342   4.882   0.268
 6126TIP3   OH218383   4.374   5.474   4.830
 6126TIP3    H118384   4.354   5.568   4.832
 6126TIP3    H218385   4.454   5.465   4.881
 6127TIP3   OH218386   3.853   2.024   4.134
 6127TIP3    H118387   3.809   2.057   4.212
 6127TIP3    H218388   3.946   2.041   4.150
 6128TIP3   OH218389   2.692   4.654   3.376
 6128TIP3    H118390   2.627   4.723   3.384
 6128TIP3    H218391   2.660   4.598   3.305
 6129TIP3   OH218392   1.075   3.137   2.964
 6129TIP3    H118393   1.054   3.195   2.890
 6129TIP3    H218394   1.139   3.185   3.015
 6130TIP3   OH218395   0.480   3.707   3.177
 6130TIP3    H118396   0.500   3.673   3.265
 6130TIP3    H218397   0.563   3.699   3.129
 6131TIP3   OH218398   0.272   2.281   3.458
 6131TIP3    H118399   0.228   2.220   3.517
 6131TIP3    H218400   0.359   2.242   3.446
 6132TIP3   OH218401   5.078   1.023   2.841
 6132TIP3    H118402   5.018   1.003   2.770
 6132TIP3    H218403   5.164   0.995   2.809
 6133TIP3   OH218404   2.444   2.233   4.607
 6133TIP3    H118405   2.388   2.163   4.642
 6133TIP3    H218406   2.497   2.190   4.540
 6134TIP3   OH218407   6.171   1.697   4.552
 6134TIP3    H118408   6.124   1.657   4.625
 6134TIP3    H218409   6.263   1.695   4.579
 6135TIP3   OH218410   1.820   2.975   1.285
 6135TIP3    H118411   1.882   2.983   1.213
 6135TIP3    H218412   1.809   3.065   1.317
 6136TIP3   OH218413   6.146   0.327   2.312
 6136TIP3    H118414   6.056   0.346   2.283
 6136TIP3    H218415   6.171   0.250   2.261
 6137TIP3   OH218416   5.573   1.521   0.242
 6137TIP3    H118417   5.513   1.449   0.263
 6137TIP3    H218418   5.660   1.481   0.242
 6138TIP3   OH218419   3.757   4.853   4.109
 6138TIP3    H118420   3.780   4.891   4.194
 6138TIP3    H218421   3.784   4.919   4.045
 6139TIP3   OH218422   0.326   3.897   0.644
 6139TIP3    H118423   0.290   3.974   0.601
 6139TIP3    H218424   0.382   3.856   0.577
 6140TIP3   OH218425   2.260   0.741   4.119
 6140TIP3    H118426   2.322   0.732   4.047
 6140TIP3    H218427   2.191   0.798   4.084
 6141TIP3   OH218428   5.235   1.362   1.360
 6141TIP3    H118429   5.272   1.339   1.446
 6141TIP3    H218430   5.166   1.297   1.346
 6142TIP3   OH218431   5.757   3.736   3.591
 6142TIP3    H118432   5.809   3.709   3.666
 6142TIP3    H218433   5.668   3.708   3.613
 6143TIP3   OH218434   2.557   5.099   3.790
 6143TIP3    H118435   2.633   5.042   3.785
 6143TIP3    H218436   2.538   5.108   3.883
 6144TIP3   OH218437   4.581   1.609   3.174
 6144TIP3    H118438   4.676   1.615   3.185
 6144TIP3    H218439   4.568   1.583   3.083
 6145TIP3   OH218440   4.461   1.716   2.058
 6145TIP3    H118441   4.532   1.711   1.994
 6145TIP3    H218442   4.400   1.780   2.022
 6146TIP3   OH218443   6.266   1.436   0.536
 6146TIP3    H118444   6.330   1.408   0.602
 6146TIP3    H218445   6.307   1.511   0.494
 6147TIP3   OH218446   1.823   5.351   0.578
 6147TIP3    H118447   1.745   5.369   0.525
 6147TIP3    H218448   1.835   5.429   0.632
 6148TIP3   OH218449   5.281   1.947   1.339
 6148TIP3    H118450   5.203   1.895   1.360
 6148TIP3    H218451   5.312   1.911   1.256
 6149TIP3   OH218452   2.716   3.893   0.374
 6149TIP3    H118453   2.758   3.811   0.403
 6149TIP3    H218454   2.687   3.935   0.455
 6150TIP3   OH218455   1.554   4.528   1.926
 6150TIP3    H118456   1.526   4.443   1.961
 6150TIP3    H218457   1.496   4.592   1.969
 6151TIP3   OH218458   1.260   2.312   2.353
 6151TIP3    H118459   1.208   2.241   2.390
 6151TIP3    H218460   1.296   2.277   2.272
 6152TIP3   OH218461   2.679   4.265   0.083
 6152TIP3    H118462   2.691   4.172   0.105
 6152TIP3    H218463   2.638   4.303   0.161
 6153TIP3   OH218464   6.224   5.175   0.932
 6153TIP3    H118465   6.271   5.174   0.849
 6153TIP3    H218466   6.208   5.268   0.949
 6154TIP3   OH218467   0.756   2.897   2.352
 6154TIP3    H118468   0.668   2.935   2.357
 6154TIP3    H218469   0.764   2.844   2.431
 6155TIP3   OH218470   4.064   3.358   0.496
 6155TIP3    H118471   3.987   3.413   0.489
 6155TIP3    H218472   4.132   3.404   0.446
 6156TIP3   OH218473   0.439   4.175   4.176
 6156TIP3    H118474   0.433   4.080   4.174
 6156TIP3    H218475   0.476   4.198   4.091
 6157TIP3   OH218476   1.488   4.470   0.409
 6157TIP3    H118477   1.398   4.464   0.377
 6157TIP3    H218478   1.541   4.477   0.331
 6158TIP3   OH218479   1.176   0.042   1.843
 6158TIP3    H118480   1.241  -0.013   1.800
 6158TIP3    H218481   1.207   0.048   1.933
 6159TIP3   OH218482   5.133   0.993   4.094
 6159TIP3    H118483   5.080   1.071   4.084
 6159TIP3    H218484   5.220   1.019   4.062
 6160TIP3   OH218485   1.688   5.074   1.809
 6160TIP3    H118486   1.669   5.107   1.722
 6160TIP3    H218487   1.766   5.019   1.798
 6161TIP3   OH218488   0.879   1.632   0.994
 6161TIP3    H118489   0.960   1.624   0.945
 6161TIP3    H218490   0.811   1.640   0.928
 6162TIP3   OH218491   2.239   5.181   3.556
 6162TIP3    H118492   2.162   5.162   3.504
 6162TIP3    H218493   2.219   5.146   3.643
 6163TIP3   OH218494   5.702   1.739   1.127
 6163TIP3    H118495   5.615   1.741   1.089
 6163TIP3    H218496   5.738   1.827   1.111
 6164TIP3   OH218497   2.549   5.558   3.257
 6164TIP3    H118498   2.559   5.471   3.220
 6164TIP3    H218499   2.488   5.546   3.330
 6165TIP3   OH218500   2.108   2.944   4.788
 6165TIP3    H118501   2.196   2.935   4.751
 6165TIP3    H218502   2.065   3.008   4.733
 6166TIP3   OH218503   4.234   3.873   0.928
 6166TIP3    H118504   4.316   3.855   0.973
 6166TIP3    H218505   4.195   3.945   0.977
 6167TIP3   OH218506   3.120   5.164   1.527
 6167TIP3    H118507   3.213   5.148   1.510
 6167TIP3    H218508   3.114   5.259   1.541
 6168TIP3   OH218509   1.029   0.365   3.687
 6168TIP3    H118510   0.939   0.332   3.690
 6168TIP3    H218511   1.026   0.438   3.626
 6169TIP3   OH218512   2.845   3.736   4.958
 6169TIP3    H118513   2.815   3.822   4.987
 6169TIP3    H218514   2.910   3.710   5.023
 6170TIP3   OH218515   0.092   0.365   1.811
 6170TIP3    H118516   0.107   0.456   1.786
 6170TIP3    H218517  -0.003   0.353   1.803
 6171TIP3   OH218518   1.706   1.138   3.990
 6171TIP3    H118519   1.702   1.231   3.968
 6171TIP3    H218520   1.718   1.138   4.085
 6172TIP3   OH218521   5.545   0.071   4.100
 6172TIP3    H118522   5.581   0.104   4.183
 6172TIP3    H218523   5.451   0.088   4.107
 6173TIP3   OH218524   0.279   0.351   2.453
 6173TIP3    H118525   0.312   0.339   2.543
 6173TIP3    H218526   0.355   0.383   2.404
 6174TIP3   OH218527   4.602   4.600   5.210
 6174TIP3    H118528   4.558   4.627   5.129
 6174TIP3    H218529   4.678   4.657   5.216
 6175TIP3   OH218530   5.518   1.916   2.122
 6175TIP3    H118531   5.613   1.924   2.111
 6175TIP3    H218532   5.482   1.996   2.084
 6176TIP3   OH218533   4.230   0.280   4.786
 6176TIP3    H118534   4.252   0.369   4.814
 6176TIP3    H218535   4.280   0.223   4.845
 6177TIP3   OH218536   4.707   1.625   2.236
 6177TIP3    H118537   4.729   1.711   2.272
 6177TIP3    H218538   4.641   1.643   2.168
 6178TIP3   OH218539   5.799   0.549   1.872
 6178TIP3    H118540   5.761   0.467   1.841
 6178TIP3    H218541   5.868   0.569   1.809
 6179TIP3   OH218542   3.831   4.717   2.848
 6179TIP3    H118543   3.821   4.644   2.910
 6179TIP3    H218544   3.904   4.768   2.883
 6180TIP3   OH218545   0.592   1.623   4.548
 6180TIP3    H118546   0.626   1.534   4.545
 6180TIP3    H218547   0.639   1.664   4.620
 6181TIP3   OH218548   5.188   2.230   1.285
 6181TIP3    H118549   5.244   2.162   1.322
 6181TIP3    H218550   5.215   2.237   1.194
 6182TIP3   OH218551   1.812   1.256   1.546
 6182TIP3    H118552   1.739   1.294   1.496
 6182TIP3    H218553   1.771   1.224   1.626
 6183TIP3   OH218554   3.476   0.891   1.817
 6183TIP3    H118555   3.525   0.862   1.739
 6183TIP3    H218556   3.387   0.903   1.786
 6184TIP3   OH218557   5.272   2.451   4.824
 6184TIP3    H118558   5.287   2.538   4.860
 6184TIP3    H218559   5.360   2.413   4.814
 6185TIP3   OH218560   6.163   5.958   4.528
 6185TIP3    H118561   6.112   6.039   4.522
 6185TIP3    H218562   6.114   5.904   4.590
 6186TIP3   OH218563   0.156   4.076   5.049
 6186TIP3    H118564   0.070   4.117   5.059
 6186TIP3    H218565   0.164   4.060   4.955
 6187TIP3   OH218566   1.867   2.868   2.467
 6187TIP3    H118567   1.945   2.835   2.423
 6187TIP3    H218568   1.807   2.890   2.396
 6188TIP3   OH218569   4.547   2.660   2.609
 6188TIP3    H118570   4.609   2.594   2.578
 6188TIP3    H218571   4.598   2.741   2.610
 6189TIP3   OH218572   2.181   3.295   1.420
 6189TIP3    H118573   2.139   3.263   1.500
 6189TIP3    H218574   2.157   3.231   1.353
 6190TIP3   OH218575   5.217   0.520   0.696
 6190TIP3    H118576   5.244   0.457   0.630
 6190TIP3    H218577   5.286   0.515   0.763
 6191TIP3   OH218578   0.918   0.401   4.792
 6191TIP3    H118579   0.863   0.326   4.812
 6191TIP3    H218580   1.005   0.377   4.826
 6192TIP3   OH218581   4.550   1.692   0.555
 6192TIP3    H118582   4.639   1.705   0.588
 6192TIP3    H218583   4.546   1.745   0.476
 6193TIP3   OH218584   3.311   4.296   3.228
 6193TIP3    H118585   3.348   4.221   3.274
 6193TIP3    H218586   3.355   4.297   3.143
 6194TIP3   OH218587   1.538   5.067   2.217
 6194TIP3    H118588   1.449   5.065   2.253
 6194TIP3    H218589   1.554   5.159   2.197
 6195TIP3   OH218590   5.673   0.434   5.181
 6195TIP3    H118591   5.693   0.524   5.155
 6195TIP3    H218592   5.597   0.410   5.128
 6196TIP3   OH218593   1.558   2.656   1.494
 6196TIP3    H118594   1.556   2.745   1.460
 6196TIP3    H218595   1.610   2.607   1.430
 6197TIP3   OH218596   2.401   1.679   0.285
 6197TIP3    H118597   2.448   1.648   0.208
 6197TIP3    H218598   2.423   1.616   0.354
 6198TIP3   OH218599   3.618   4.595   2.212
 6198TIP3    H118600   3.574   4.679   2.226
 6198TIP3    H218601   3.700   4.617   2.168
 6199TIP3   OH218602   3.206   4.654   4.345
 6199TIP3    H118603   3.283   4.711   4.340
 6199TIP3    H218604   3.237   4.569   4.314
 6200TIP3   OH218605   0.772   5.155   2.652
 6200TIP3    H118606   0.791   5.206   2.731
 6200TIP3    H218607   0.829   5.079   2.659
 6201TIP3   OH218608   0.635   4.564   0.359
 6201TIP3    H118609   0.551   4.607   0.371
 6201TIP3    H218610   0.663   4.538   0.447
 6202TIP3   OH218611   4.715   1.789   2.544
 6202TIP3    H118612   4.663   1.708   2.550
 6202TIP3    H218613   4.777   1.783   2.617
 6203TIP3   OH218614   3.287   2.740   4.580
 6203TIP3    H118615   3.351   2.674   4.607
 6203TIP3    H218616   3.202   2.696   4.591
 6204TIP3   OH218617   4.928   0.112   2.327
 6204TIP3    H118618   4.897   0.203   2.321
 6204TIP3    H218619   4.849   0.059   2.312
 6205TIP3   OH218620   0.251   4.223   2.904
 6205TIP3    H118621   0.179   4.188   2.955
 6205TIP3    H218622   0.330   4.200   2.954
 6206TIP3   OH218623   3.870   5.483   1.572
 6206TIP3    H118624   3.902   5.571   1.553
 6206TIP3    H218625   3.794   5.472   1.515
 6207TIP3   OH218626   4.177   5.505   1.294
 6207TIP3    H118627   4.221   5.434   1.247
 6207TIP3    H218628   4.115   5.461   1.352
 6208TIP3   OH218629   4.313   0.389   1.053
 6208TIP3    H118630   4.351   0.324   1.113
 6208TIP3    H218631   4.388   0.442   1.026
 6209TIP3   OH218632   4.962   0.316   2.895
 6209TIP3    H118633   4.943   0.350   2.808
 6209TIP3    H218634   5.043   0.266   2.884
 6210TIP3   OH218635   3.720   3.718   1.290
 6210TIP3    H118636   3.625   3.705   1.284
 6210TIP3    H218637   3.731   3.812   1.273
 6211TIP3   OH218638   5.047   0.123   0.406
 6211TIP3    H118639   5.099   0.191   0.450
 6211TIP3    H218640   5.084   0.118   0.318
 6212TIP3   OH218641   4.112   4.085   1.078
 6212TIP3    H118642   4.096   4.056   1.167
 6212TIP3    H218643   4.025   4.092   1.038
 6213TIP3   OH218644   1.229   4.465   4.717
 6213TIP3    H118645   1.173   4.501   4.647
 6213TIP3    H218646   1.187   4.495   4.798
 6214TIP3   OH218647   4.530   0.216   4.031
 6214TIP3    H118648   4.467   0.145   4.015
 6214TIP3    H218649   4.476   0.295   4.033
 6215TIP3   OH218650   5.015   4.028   2.302
 6215TIP3    H118651   5.076   4.098   2.277
 6215TIP3    H218652   5.065   3.947   2.290
 6216TIP3   OH218653   2.676   0.218   3.532
 6216TIP3    H118654   2.606   0.275   3.501
 6216TIP3    H218655   2.745   0.278   3.562
 6217TIP3   OH218656   0.473   3.856   0.891
 6217TIP3    H118657   0.418   3.884   0.818
 6217TIP3    H218658   0.554   3.827   0.850
 6218TIP3   OH218659   5.507   3.634   3.626
 6218TIP3    H118660   5.472   3.655   3.540
 6218TIP3    H218661   5.450   3.680   3.687
 6219TIP3   OH218662   1.218   1.541   1.225
 6219TIP3    H118663   1.243   1.460   1.269
 6219TIP3    H218664   1.141   1.572   1.274
 6220TIP3   OH218665   0.557   5.890   2.499
 6220TIP3    H118666   0.470   5.930   2.504
 6220TIP3    H218667   0.610   5.953   2.450
 6221TIP3   OH218668   1.382   3.493   2.140
 6221TIP3    H118669   1.478   3.495   2.148
 6221TIP3    H218670   1.360   3.579   2.105
 6222TIP3   OH218671   0.627   0.547   1.525
 6222TIP3    H118672   0.629   0.642   1.510
 6222TIP3    H218673   0.702   0.513   1.475
 6223TIP3   OH218674   5.672   4.814   2.606
 6223TIP3    H118675   5.613   4.743   2.583
 6223TIP3    H218676   5.681   4.807   2.701
 6224TIP3   OH218677   0.923   3.825   4.279
 6224TIP3    H118678   0.967   3.775   4.348
 6224TIP3    H218679   0.872   3.891   4.326
 6225TIP3   OH218680   0.724   3.658   0.013
 6225TIP3    H118681   0.713   3.706   0.095
 6225TIP3    H218682   0.637   3.656  -0.026
 6226TIP3   OH218683   3.232   3.909   1.785
 6226TIP3    H118684   3.316   3.925   1.828
 6226TIP3    H218685   3.194   3.834   1.832
 6227TIP3   OH218686   1.705   5.588   4.200
 6227TIP3    H118687   1.680   5.605   4.109
 6227TIP3    H218688   1.625   5.604   4.250
 6228TIP3   OH218689   0.556   2.240   1.479
 6228TIP3    H118690   0.529   2.318   1.527
 6228TIP3    H218691   0.551   2.265   1.387
 6229TIP3   OH218692   5.360   0.376   4.561
 6229TIP3    H118693   5.365   0.380   4.466
 6229TIP3    H218694   5.280   0.326   4.579
 6230TIP3   OH218695   5.371   2.993   3.182
 6230TIP3    H118696   5.326   2.962   3.261
 6230TIP3    H218697   5.309   2.976   3.111
 6231TIP3   OH218698   4.597   1.287   1.289
 6231TIP3    H118699   4.630   1.213   1.237
 6231TIP3    H218700   4.648   1.284   1.370
 6232TIP3   OH218701   0.939   5.711   4.541
 6232TIP3    H118702   0.905   5.718   4.631
 6232TIP3    H218703   1.034   5.714   4.552
 6233TIP3   OH218704   5.968   4.973   1.632
 6233TIP3    H118705   6.018   5.054   1.626
 6233TIP3    H218706   6.032   4.904   1.618
 6234TIP3   OH218707   3.211   3.845   3.502
 6234TIP3    H118708   3.305   3.829   3.504
 6234TIP3    H218709   3.171   3.758   3.504
 6235TIP3   OH218710   1.208   2.107   0.103
 6235TIP3    H118711   1.239   2.051   0.174
 6235TIP3    H218712   1.227   2.057   0.024
 6236TIP3   OH218713   2.752   1.154   0.868
 6236TIP3    H118714   2.844   1.146   0.842
 6236TIP3    H218715   2.754   1.154   0.963
 6237TIP3   OH218716   3.578   4.342   0.266
 6237TIP3    H118717   3.648   4.313   0.208
 6237TIP3    H218718   3.573   4.436   0.253
 6238TIP3   OH218719   4.371   1.928   4.633
 6238TIP3    H118720   4.413   1.930   4.719
 6238TIP3    H218721   4.401   2.008   4.590
 6239TIP3   OH218722   2.224   1.581   2.252
 6239TIP3    H118723   2.131   1.596   2.271
 6239TIP3    H218724   2.263   1.668   2.250
 6240TIP3   OH218725   1.140   0.338   5.042
 6240TIP3    H118726   1.204   0.350   5.113
 6240TIP3    H218727   1.147   0.245   5.020
 6241TIP3   OH218728   3.165   3.515   0.261
 6241TIP3    H118729   3.102   3.481   0.324
 6241TIP3    H218730   3.115   3.524   0.180
 6242TIP3   OH218731   1.783   4.945   1.520
 6242TIP3    H118732   1.869   4.960   1.480
 6242TIP3    H218733   1.801   4.927   1.612
 6243TIP3   OH218734   3.822   2.991   1.251
 6243TIP3    H118735   3.903   3.040   1.261
 6243TIP3    H218736   3.837   2.934   1.175
 6244TIP3   OH218737   3.288   2.219   3.141
 6244TIP3    H118738   3.229   2.272   3.194
 6244TIP3    H218739   3.265   2.241   3.051
 6245TIP3   OH218740   3.938   2.849   2.109
 6245TIP3    H118741   3.853   2.803   2.104
 6245TIP3    H218742   3.919   2.938   2.081
 6246TIP3   OH218743   5.231   0.238   1.115
 6246TIP3    H118744   5.284   0.200   1.185
 6246TIP3    H218745   5.295   0.263   1.048
 6247TIP3   OH218746   0.718   2.884   1.103
 6247TIP3    H118747   0.684   2.929   1.180
 6247TIP3    H218748   0.810   2.866   1.124
 6248TIP3   OH218749   2.252   1.904   0.280
 6248TIP3    H118750   2.308   1.827   0.277
 6248TIP3    H218751   2.217   1.912   0.191
 6249TIP3   OH218752   6.022   4.619   3.720
 6249TIP3    H118753   6.117   4.609   3.715
 6249TIP3    H218754   5.989   4.531   3.738
 6250TIP3   OH218755   1.820   3.061   1.556
 6250TIP3    H118756   1.739   3.043   1.604
 6250TIP3    H218757   1.832   2.984   1.500
 6251TIP3   OH218758   5.956   2.618   0.265
 6251TIP3    H118759   5.885   2.582   0.319
 6251TIP3    H218760   6.002   2.678   0.323
 6252TIP3   OH218761   3.643   0.253   4.329
 6252TIP3    H118762   3.566   0.292   4.370
 6252TIP3    H218763   3.608   0.198   4.259
 6253TIP3   OH218764   1.468   0.802   4.424
 6253TIP3    H118765   1.384   0.830   4.460
 6253TIP3    H218766   1.454   0.800   4.329
 6254TIP3   OH218767   3.586   3.200   2.650
 6254TIP3    H118768   3.636   3.205   2.568
 6254TIP3    H218769   3.522   3.130   2.635
 6255TIP3   OH218770   5.698   5.914   2.782
 6255TIP3    H118771   5.650   5.936   2.701
 6255TIP3    H218772   5.751   5.991   2.800
 6256TIP3   OH218773   3.688   6.048   3.889
 6256TIP3    H118774   3.646   6.006   3.964
 6256TIP3    H218775   3.775   6.072   3.920
 6257TIP3   OH218776   4.556   1.614   3.815
 6257TIP3    H118777   4.644   1.591   3.785
 6257TIP3    H218778   4.507   1.532   3.807
 6258TIP3   OH218779   2.178   5.781   0.883
 6258TIP3    H118780   2.261   5.827   0.876
 6258TIP3    H218781   2.150   5.795   0.973
 6259TIP3   OH218782   2.260   2.392   4.385
 6259TIP3    H118783   2.220   2.306   4.395
 6259TIP3    H218784   2.304   2.408   4.468
 6260TIP3   OH218785   3.254   4.105   0.868
 6260TIP3    H118786   3.292   4.152   0.793
 6260TIP3    H218787   3.198   4.038   0.828
 6261TIP3   OH218788   4.021   1.500   2.671
 6261TIP3    H118789   4.071   1.578   2.696
 6261TIP3    H218790   4.041   1.487   2.579
 6262TIP3   OH218791   5.293   0.998   4.608
 6262TIP3    H118792   5.271   1.012   4.700
 6262TIP3    H218793   5.307   0.903   4.601
 6263TIP3   OH218794   5.810   5.088   4.733
 6263TIP3    H118795   5.740   5.149   4.754
 6263TIP3    H218796   5.802   5.073   4.639
 6264TIP3   OH218797   2.203   3.544   4.292
 6264TIP3    H118798   2.117   3.510   4.264
 6264TIP3    H218799   2.259   3.466   4.293
 6265TIP3   OH218800   1.140   4.034   2.518
 6265TIP3    H118801   1.060   4.087   2.521
 6265TIP3    H218802   1.211   4.096   2.533
 6266TIP3   OH218803   4.748   1.822   1.182
 6266TIP3    H118804   4.821   1.797   1.125
 6266TIP3    H218805   4.694   1.743   1.188
 6267TIP3   OH218806   1.818   4.585   1.843
 6267TIP3    H118807   1.869   4.611   1.920
 6267TIP3    H218808   1.732   4.562   1.879
 6268TIP3   OH218809   2.002   5.077   3.454
 6268TIP3    H118810   2.011   5.122   3.370
 6268TIP3    H218811   1.958   4.995   3.434
 6269TIP3   OH218812   4.955   5.804   0.091
 6269TIP3    H118813   5.025   5.754   0.049
 6269TIP3    H218814   4.930   5.871   0.027
 6270TIP3   OH218815   1.832   5.321   2.209
 6270TIP3    H118816   1.773   5.341   2.282
 6270TIP3    H218817   1.834   5.401   2.157
 6271TIP3   OH218818   5.348   0.930   1.255
 6271TIP3    H118819   5.395   0.867   1.310
 6271TIP3    H218820   5.265   0.943   1.301
 6272TIP3   OH218821   3.766   4.347   3.345
 6272TIP3    H118822   3.822   4.400   3.401
 6272TIP3    H218823   3.691   4.403   3.326
 6273TIP3   OH218824   5.096   2.623   1.453
 6273TIP3    H118825   5.112   2.536   1.488
 6273TIP3    H218826   5.166   2.636   1.388
 6274TIP3   OH218827   2.164   2.071   1.312
 6274TIP3    H118828   2.169   2.163   1.338
 6274TIP3    H218829   2.231   2.061   1.245
 6275TIP3   OH218830   0.352   3.240   2.528
 6275TIP3    H118831   0.342   3.270   2.438
 6275TIP3    H218832   0.398   3.312   2.572
 6276TIP3   OH218833   0.775   4.028   5.077
 6276TIP3    H118834   0.807   4.096   5.136
 6276TIP3    H218835   0.762   4.073   4.994
 6277TIP3   OH218836   6.013   5.391   4.517
 6277TIP3    H118837   5.948   5.446   4.560
 6277TIP3    H218838   6.097   5.426   4.545
 6278TIP3   OH218839   3.299   2.420   2.646
 6278TIP3    H118840   3.252   2.484   2.594
 6278TIP3    H218841   3.391   2.447   2.641
 6279TIP3   OH218842   1.788   1.166   2.310
 6279TIP3    H118843   1.788   1.234   2.378
 6279TIP3    H218844   1.766   1.085   2.356
 6280TIP3   OH218845   3.921   4.107   4.250
 6280TIP3    H118846   3.916   4.164   4.326
 6280TIP3    H218847   3.834   4.068   4.243
 6281TIP3   OH218848   1.809   4.461   4.107
 6281TIP3    H118849   1.719   4.484   4.131
 6281TIP3    H218850   1.863   4.519   4.160
 6282TIP3   OH218851   3.265   5.870   0.901
 6282TIP3    H118852   3.222   5.925   0.836
 6282TIP3    H218853   3.342   5.920   0.928
 6283TIP3   OH218854   3.269   1.579   1.756
 6283TIP3    H118855   3.304   1.491   1.769
 6283TIP3    H218856   3.308   1.631   1.827
 6284TIP3   OH218857   5.850   4.447   4.913
 6284TIP3    H118858   5.918   4.501   4.872
 6284TIP3    H218859   5.825   4.385   4.845
 6285TIP3   OH218860   0.067   0.470   2.367
 6285TIP3    H118861   0.095   0.541   2.310
 6285TIP3    H218862   0.148   0.431   2.399
 6286TIP3   OH218863   3.939   4.315   2.705
 6286TIP3    H118864   4.001   4.293   2.635
 6286TIP3    H218865   3.912   4.404   2.684
 6287TIP3   OH218866   5.681   3.982   3.073
 6287TIP3    H118867   5.618   3.914   3.050
 6287TIP3    H218868   5.644   4.023   3.151
 6288TIP3   OH218869   2.397   2.424   0.845
 6288TIP3    H118870   2.446   2.473   0.911
 6288TIP3    H218871   2.413   2.471   0.763
 6289TIP3   OH218872   6.414   3.455   3.529
 6289TIP3    H118873   6.342   3.518   3.538
 6289TIP3    H218874   6.400   3.415   3.443
 6290TIP3   OH218875   3.211   2.659   2.491
 6290TIP3    H118876   3.159   2.739   2.483
 6290TIP3    H218877   3.247   2.645   2.403
 6291TIP3   OH218878   1.107   4.284   3.331
 6291TIP3    H118879   1.167   4.323   3.394
 6291TIP3    H218880   1.072   4.207   3.376
 6292TIP3   OH218881   2.651   2.078   2.284
 6292TIP3    H118882   2.575   2.065   2.227
 6292TIP3    H218883   2.633   2.160   2.329
 6293TIP3   OH218884   3.722   3.109   4.158
 6293TIP3    H118885   3.788   3.040   4.150
 6293TIP3    H218886   3.663   3.079   4.227
 6294TIP3   OH218887   0.131   0.107   1.393
 6294TIP3    H118888   0.061   0.164   1.360
 6294TIP3    H218889   0.164   0.153   1.470
 6295TIP3   OH218890   3.157   3.312   3.857
 6295TIP3    H118891   3.066   3.289   3.838
 6295TIP3    H218892   3.152   3.396   3.901
 6296TIP3   OH218893   2.997   5.762   1.582
 6296TIP3    H118894   2.962   5.683   1.540
 6296TIP3    H218895   3.064   5.794   1.521
 6297TIP3   OH218896   4.469   2.663   4.799
 6297TIP3    H118897   4.543   2.661   4.860
 6297TIP3    H218898   4.500   2.714   4.725
 6298TIP3   OH218899   0.910   4.487   3.891
 6298TIP3    H118900   0.944   4.474   3.979
 6298TIP3    H218901   0.920   4.401   3.849
 6299TIP3   OH218902   2.053   2.491   3.839
 6299TIP3    H118903   1.996   2.423   3.802
 6299TIP3    H218904   2.006   2.525   3.914
 6300TIP3   OH218905   3.225   3.761   0.364
 6300TIP3    H118906   3.202   3.690   0.304
 6300TIP3    H218907   3.321   3.758   0.369
 6301TIP3   OH218908   1.191   3.162   0.061
 6301TIP3    H118909   1.155   3.092   0.007
 6301TIP3    H218910   1.212   3.232   0.000
 6302TIP3   OH218911   3.167   5.095   0.654
 6302TIP3    H118912   3.185   5.018   0.708
 6302TIP3    H218913   3.099   5.143   0.702
 6303TIP3   OH218914   5.270   2.073   0.123
 6303TIP3    H118915   5.238   2.011   0.189
 6303TIP3    H218916   5.362   2.051   0.113
 6304TIP3   OH218917   2.986   0.869   3.446
 6304TIP3    H118918   2.925   0.932   3.409
 6304TIP3    H218919   2.996   0.802   3.378
 6305TIP3   OH218920   5.624   0.727   4.597
 6305TIP3    H118921   5.537   0.708   4.561
 6305TIP3    H218922   5.674   0.761   4.522
 6306TIP3   OH218923   6.026   5.845   0.505
 6306TIP3    H118924   5.955   5.816   0.448
 6306TIP3    H218925   6.007   5.938   0.521
 6307TIP3   OH218926   6.178   4.650   2.751
 6307TIP3    H118927   6.115   4.593   2.708
 6307TIP3    H218928   6.262   4.629   2.709
 6308TIP3   OH218929   5.472   2.598   3.697
 6308TIP3    H118930   5.544   2.660   3.686
 6308TIP3    H218931   5.393   2.651   3.688
 6309TIP3   OH218932   2.061   1.185   0.845
 6309TIP3    H118933   2.089   1.218   0.760
 6309TIP3    H218934   1.981   1.136   0.827
 6310TIP3   OH218935   5.634   5.090   3.181
 6310TIP3    H118936   5.710   5.057   3.132
 6310TIP3    H218937   5.589   5.010   3.211
 6311TIP3   OH218938   1.861   4.737   3.671
 6311TIP3    H118939   1.909   4.678   3.729
 6311TIP3    H218940   1.837   4.811   3.728
 6312TIP3   OH218941   1.296   4.847   2.948
 6312TIP3    H118942   1.315   4.923   3.003
 6312TIP3    H218943   1.220   4.806   2.990
 6313TIP3   OH218944   3.553  -0.002   0.443
 6313TIP3    H118945   3.531   0.041   0.360
 6313TIP3    H218946   3.490   0.032   0.505
 6314TIP3   OH218947   2.809   1.439   4.276
 6314TIP3    H118948   2.830   1.357   4.320
 6314TIP3    H218949   2.824   1.422   4.183
 6315TIP3   OH218950   5.747   3.159   2.079
 6315TIP3    H118951   5.681   3.225   2.055
 6315TIP3    H218952   5.810   3.161   2.008
 6316TIP3   OH218953   2.556   0.584   4.218
 6316TIP3    H118954   2.500   0.616   4.147
 6316TIP3    H218955   2.636   0.556   4.174
 6317TIP3   OH218956   0.507   3.322   4.430
 6317TIP3    H118957   0.601   3.344   4.427
 6317TIP3    H218958   0.463   3.405   4.412
 6318TIP3   OH218959   2.455   4.475   3.742
 6318TIP3    H118960   2.505   4.426   3.676
 6318TIP3    H218961   2.404   4.538   3.692
 6319TIP3   OH218962   2.339   5.470   4.249
 6319TIP3    H118963   2.319   5.447   4.159
 6319TIP3    H218964   2.386   5.553   4.243
 6320TIP3   OH218965   2.497   5.492   1.852
 6320TIP3    H118966   2.434   5.453   1.912
 6320TIP3    H218967   2.484   5.587   1.861
 6321TIP3   OH218968   0.447   2.348   4.403
 6321TIP3    H118969   0.488   2.390   4.479
 6321TIP3    H218970   0.410   2.267   4.437
 6322TIP3   OH218971   3.752   4.008   0.439
 6322TIP3    H118972   3.785   3.921   0.415
 6322TIP3    H218973   3.657   3.997   0.445
 6323TIP3   OH218974   1.712   0.893   3.064
 6323TIP3    H118975   1.768   0.948   3.009
 6323TIP3    H218976   1.625   0.933   3.057
 6324TIP3   OH218977   1.568   3.568   2.596
 6324TIP3    H118978   1.492   3.510   2.587
 6324TIP3    H218979   1.556   3.609   2.682
 6325TIP3   OH218980   3.283   5.333   5.110
 6325TIP3    H118981   3.286   5.278   5.188
 6325TIP3    H218982   3.202   5.308   5.065
 6326TIP3   OH218983   4.558   3.652   4.534
 6326TIP3    H118984   4.587   3.604   4.456
 6326TIP3    H218985   4.462   3.653   4.526
 6327TIP3   OH218986   3.112   1.298   2.877
 6327TIP3    H118987   3.022   1.329   2.864
 6327TIP3    H218988   3.160   1.376   2.904
 6328TIP3   OH218989   4.434   5.176   0.283
 6328TIP3    H118990   4.479   5.194   0.366
 6328TIP3    H218991   4.457   5.085   0.263
 6329TIP3   OH218992   0.759   2.224   4.964
 6329TIP3    H118993   0.846   2.241   5.001
 6329TIP3    H218994   0.711   2.180   5.035
 6330TIP3   OH218995   2.025   4.119   1.434
 6330TIP3    H118996   1.992   4.198   1.391
 6330TIP3    H218997   2.063   4.067   1.362
 6331TIP3   OH218998   1.192   2.261   2.966
 6331TIP3    H118999   1.099   2.244   2.956
 6331TIP3    H219000   1.218   2.208   3.041
 6332TIP3   OH219001   1.775   1.700   0.695
 6332TIP3    H119002   1.703   1.700   0.632
 6332TIP3    H219003   1.803   1.791   0.701
 6333TIP3   OH219004   4.784   1.444   0.696
 6333TIP3    H119005   4.789   1.467   0.603
 6333TIP3    H219006   4.814   1.353   0.700
 6334TIP3   OH219007   2.838   4.049   1.486
 6334TIP3    H119008   2.892   4.037   1.563
 6334TIP3    H219009   2.795   4.134   1.500
 6335TIP3   OH219010   4.361   5.669   0.344
 6335TIP3    H119011   4.391   5.749   0.388
 6335TIP3    H219012   4.267   5.680   0.336
 6336TIP3   OH219013   4.794   3.742   0.328
 6336TIP3    H119014   4.737   3.666   0.310
 6336TIP3    H219015   4.793   3.751   0.423
 6337TIP3   OH219016   1.345   2.697   3.890
 6337TIP3    H119017   1.429   2.714   3.931
 6337TIP3    H219018   1.358   2.614   3.844
 6338TIP3   OH219019   2.423   0.409   3.053
 6338TIP3    H119020   2.436   0.503   3.042
 6338TIP3    H219021   2.403   0.397   3.146
 6339TIP3   OH219022   4.221   5.659   5.086
 6339TIP3    H119023   4.185   5.701   5.164
 6339TIP3    H219024   4.240   5.569   5.114
 6340TIP3   OH219025   4.364   5.950   0.395
 6340TIP3    H119026   4.411   6.025   0.432
 6340TIP3    H219027   4.336   5.980   0.308
 6341TIP3   OH219028   0.135   3.791   3.612
 6341TIP3    H119029   0.172   3.730   3.676
 6341TIP3    H219030   0.095   3.860   3.666
 6342TIP3   OH219031   4.653   5.644   1.039
 6342TIP3    H119032   4.748   5.631   1.040
 6342TIP3    H219033   4.617   5.558   1.064
 6343TIP3   OH219034   3.358   0.139   2.474
 6343TIP3    H119035   3.306   0.158   2.552
 6343TIP3    H219036   3.421   0.073   2.503
 6344TIP3   OH219037   4.662   3.208   1.370
 6344TIP3    H119038   4.673   3.131   1.314
 6344TIP3    H219039   4.568   3.212   1.387
 6345TIP3   OH219040   4.067   1.477   2.408
 6345TIP3    H119041   3.972   1.466   2.397
 6345TIP3    H219042   4.105   1.405   2.359
 6346TIP3   OH219043   1.403   0.879   2.574
 6346TIP3    H119044   1.395   0.869   2.479
 6346TIP3    H219045   1.312   0.875   2.606
 6347TIP3   OH219046   0.101   2.120   2.278
 6347TIP3    H119047   0.135   2.074   2.355
 6347TIP3    H219048   0.160   2.093   2.207
 6348TIP3   OH219049   2.235   0.262   1.606
 6348TIP3    H119050   2.216   0.230   1.694
 6348TIP3    H219051   2.157   0.313   1.582
 6349TIP3   OH219052   5.697   4.741   4.729
 6349TIP3    H119053   5.782   4.783   4.741
 6349TIP3    H219054   5.710   4.681   4.656
 6350TIP3   OH219055   3.936   1.124   5.150
 6350TIP3    H119056   3.852   1.142   5.193
 6350TIP3    H219057   3.915   1.056   5.085
 6351TIP3   OH219058   3.193   2.031   3.321
 6351TIP3    H119059   3.220   2.061   3.408
 6351TIP3    H219060   3.252   2.077   3.261
 6352TIP3   OH219061   0.844   1.053   2.472
 6352TIP3    H119062   0.817   0.963   2.460
 6352TIP3    H219063   0.937   1.054   2.447
 6353TIP3   OH219064   3.316   2.649   3.311
 6353TIP3    H119065   3.269   2.701   3.245
 6353TIP3    H219066   3.408   2.662   3.290
 6354TIP3   OH219067   1.323   1.016   3.423
 6354TIP3    H119068   1.236   0.997   3.387
 6354TIP3    H219069   1.346   1.101   3.386
 6355TIP3   OH219070   5.645   1.355   2.068
 6355TIP3    H119071   5.728   1.323   2.104
 6355TIP3    H219072   5.668   1.435   2.022
 6356TIP3   OH219073   1.281   2.628   2.110
 6356TIP3    H119074   1.336   2.552   2.123
 6356TIP3    H219075   1.332   2.701   2.144
 6357TIP3   OH219076   4.616   2.283   0.708
 6357TIP3    H119077   4.652   2.195   0.700
 6357TIP3    H219078   4.585   2.304   0.620
 6358TIP3   OH219079   4.661   3.824   4.201
 6358TIP3    H119080   4.673   3.903   4.255
 6358TIP3    H219081   4.732   3.766   4.229
 6359TIP3   OH219082   1.733   0.461   0.847
 6359TIP3    H119083   1.820   0.423   0.831
 6359TIP3    H219084   1.683   0.390   0.887
 6360TIP3   OH219085   2.640   0.235   3.892
 6360TIP3    H119086   2.545   0.243   3.901
 6360TIP3    H219087   2.661   0.286   3.814
 6361TIP3   OH219088   6.143   2.440   0.847
 6361TIP3    H119089   6.050   2.450   0.826
 6361TIP3    H219090   6.146   2.364   0.905
 6362TIP3   OH219091   2.353   3.611   4.906
 6362TIP3    H119092   2.445   3.588   4.920
 6362TIP3    H219093   2.353   3.660   4.824
 6363TIP3   OH219094   3.645   3.855   4.572
 6363TIP3    H119095   3.702   3.867   4.648
 6363TIP3    H219096   3.651   3.762   4.552
 6364TIP3   OH219097   2.936   4.685   4.259
 6364TIP3    H119098   2.877   4.652   4.327
 6364TIP3    H219099   3.023   4.658   4.287
 6365TIP3   OH219100   1.866   1.827   0.169
 6365TIP3    H119101   1.859   1.907   0.222
 6365TIP3    H219102   1.826   1.851   0.085
 6366TIP3   OH219103   2.961   1.445   1.334
 6366TIP3    H119104   2.925   1.391   1.264
 6366TIP3    H219105   2.966   1.533   1.296
 6367TIP3   OH219106   0.042   3.412   4.731
 6367TIP3    H119107   0.056   3.376   4.643
 6367TIP3    H219108   0.046   3.337   4.789
 6368TIP3   OH219109   5.083   4.870   4.373
 6368TIP3    H119110   5.134   4.816   4.434
 6368TIP3    H219111   5.107   4.839   4.286
 6369TIP3   OH219112   3.812   5.134   2.730
 6369TIP3    H119113   3.860   5.066   2.684
 6369TIP3    H219114   3.880   5.188   2.771
 6370TIP3   OH219115   4.325   0.504   4.888
 6370TIP3    H119116   4.270   0.544   4.956
 6370TIP3    H219117   4.374   0.577   4.851
 6371TIP3   OH219118   0.927   0.071   0.858
 6371TIP3    H119119   1.021   0.088   0.855
 6371TIP3    H219120   0.887   0.153   0.830
 6372TIP3   OH219121   0.167   3.521   3.259
 6372TIP3    H119122   0.106   3.451   3.236
 6372TIP3    H219123   0.111   3.600   3.263
 6373TIP3   OH219124   3.327   0.378   1.052
 6373TIP3    H119125   3.421   0.392   1.064
 6373TIP3    H219126   3.293   0.466   1.034
 6374TIP3   OH219127   3.569   4.400   3.079
 6374TIP3    H119128   3.517   4.433   3.152
 6374TIP3    H219129   3.643   4.460   3.073
 6375TIP3   OH219130   0.235   0.161   1.989
 6375TIP3    H119131   0.193   0.236   1.947
 6375TIP3    H219132   0.219   0.174   2.083
 6376TIP3   OH219133   0.899   0.364   0.101
 6376TIP3    H119134   0.977   0.350   0.154
 6376TIP3    H219135   0.916   0.318   0.019
 6377TIP3   OH219136   0.025   3.248   2.170
 6377TIP3    H119137   0.108   3.247   2.218
 6377TIP3    H219138  -0.040   3.216   2.232
 6378TIP3   OH219139   0.237   5.881   4.366
 6378TIP3    H119140   0.243   5.922   4.280
 6378TIP3    H219141   0.255   5.952   4.428
 6379TIP3   OH219142   2.562   4.011   0.764
 6379TIP3    H119143   2.627   4.071   0.726
 6379TIP3    H219144   2.602   3.924   0.755
 6380TIP3   OH219145   0.073   4.532   0.533
 6380TIP3    H119146   0.079   4.626   0.516
 6380TIP3    H219147  -0.019   4.517   0.553
 6381TIP3   OH219148   5.427   4.917   0.730
 6381TIP3    H119149   5.422   4.823   0.716
 6381TIP3    H219150   5.499   4.928   0.793
 6382TIP3   OH219151  -0.040   3.863   4.455
 6382TIP3    H119152  -0.007   3.821   4.534
 6382TIP3    H219153  -0.006   3.809   4.383
 6383TIP3   OH219154   1.891   4.467   2.267
 6383TIP3    H119155   1.828   4.398   2.243
 6383TIP3    H219156   1.865   4.542   2.215
 6384TIP3   OH219157   1.493   1.112   2.904
 6384TIP3    H119158   1.465   1.198   2.937
 6384TIP3    H219159   1.415   1.057   2.914
 6385TIP3   OH219160   6.146   1.038   3.931
 6385TIP3    H119161   6.067   1.059   3.980
 6385TIP3    H219162   6.213   1.024   3.998
 6386TIP3   OH219163   2.699   4.108   2.747
 6386TIP3    H119164   2.746   4.113   2.830
 6386TIP3    H219165   2.607   4.101   2.772
 6387TIP3   OH219166   5.463   3.157   4.334
 6387TIP3    H119167   5.525   3.095   4.297
 6387TIP3    H219168   5.388   3.104   4.362
 6388TIP3   OH219169   6.208   5.272   2.305
 6388TIP3    H119170   6.214   5.298   2.213
 6388TIP3    H219171   6.158   5.342   2.346
 6389TIP3   OH219172   5.308   0.446   2.231
 6389TIP3    H119173   5.391   0.400   2.223
 6389TIP3    H219174   5.299   0.463   2.325
 6390TIP3   OH219175   4.397   4.115   4.133
 6390TIP3    H119176   4.309   4.089   4.161
 6390TIP3    H219177   4.403   4.087   4.042
 6391TIP3   OH219178   4.256   4.101   1.900
 6391TIP3    H119179   4.242   4.059   1.985
 6391TIP3    H219180   4.325   4.050   1.859
 6392TIP3   OH219181   3.738   0.923   2.639
 6392TIP3    H119182   3.763   1.015   2.633
 6392TIP3    H219183   3.804   0.884   2.696
 6393TIP3   OH219184  -0.027   4.393   2.636
 6393TIP3    H119185   0.046   4.454   2.648
 6393TIP3    H219186  -0.030   4.343   2.717
 6394TIP3   OH219187   3.375   4.079   3.392
 6394TIP3    H119188   3.324   4.007   3.430
 6394TIP3    H219189   3.390   4.052   3.301
 6395TIP3   OH219190   1.700   3.219   1.958
 6395TIP3    H119191   1.746   3.135   1.962
 6395TIP3    H219192   1.764   3.280   1.923
 6396TIP3   OH219193   4.832   3.513   1.508
 6396TIP3    H119194   4.891   3.567   1.455
 6396TIP3    H219195   4.795   3.450   1.446
 6397TIP3   OH219196   3.033   1.780   4.875
 6397TIP3    H119197   3.053   1.811   4.787
 6397TIP3    H219198   3.105   1.721   4.897
 6398TIP3   OH219199   3.749   4.333   4.655
 6398TIP3    H119200   3.712   4.410   4.699
 6398TIP3    H219201   3.673   4.285   4.623
 6399TIP3   OH219202   1.966   5.514   0.890
 6399TIP3    H119203   1.968   5.517   0.985
 6399TIP3    H219204   1.886   5.561   0.866
 6400TIP3   OH219205   2.726   4.826   2.725
 6400TIP3    H119206   2.800   4.837   2.785
 6400TIP3    H219207   2.729   4.734   2.698
 6401TIP3   OH219208   0.815   1.610   2.367
 6401TIP3    H119209   0.749   1.677   2.383
 6401TIP3    H219210   0.894   1.659   2.345
 6402TIP3   OH219211   4.125   3.931   3.813
 6402TIP3    H119212   4.093   3.882   3.889
 6402TIP3    H219213   4.201   3.980   3.846
 6403TIP3   OH219214   6.076   1.085   1.550
 6403TIP3    H119215   6.084   1.002   1.503
 6403TIP3    H219216   6.152   1.089   1.607
 6404TIP3   OH219217   5.020   4.791   0.204
 6404TIP3    H119218   4.956   4.745   0.151
 6404TIP3    H219219   4.997   4.883   0.196
 6405TIP3   OH219220   0.461   3.529   3.819
 6405TIP3    H119221   0.373   3.504   3.789
 6405TIP3    H219222   0.515   3.453   3.798
 6406TIP3   OH219223   5.544   4.155   3.267
 6406TIP3    H119224   5.532   4.168   3.361
 6406TIP3    H219225   5.521   4.240   3.228
 6407TIP3   OH219226   5.232   1.316   4.231
 6407TIP3    H119227   5.248   1.284   4.320
 6407TIP3    H219228   5.318   1.348   4.202
 6408TIP3   OH219229   2.966   2.384   0.727
 6408TIP3    H119230   3.045   2.350   0.684
 6408TIP3    H219231   2.937   2.456   0.670
 6409TIP3   OH219232   1.550   5.436   5.144
 6409TIP3    H119233   1.546   5.398   5.232
 6409TIP3    H219234   1.516   5.367   5.087
 6410TIP3   OH219235   5.486   0.939   3.048
 6410TIP3    H119236   5.521   0.994   3.118
 6410TIP3    H219237   5.442   0.867   3.094
 6411TIP3   OH219238   6.029   0.117   4.037
 6411TIP3    H119239   6.098   0.052   4.047
 6411TIP3    H219240   5.964   0.094   4.104
 6412TIP3   OH219241   5.146   0.652   4.758
 6412TIP3    H119242   5.108   0.614   4.679
 6412TIP3    H219243   5.177   0.576   4.808
 6413TIP3   OH219244   1.556   2.505   2.203
 6413TIP3    H119245   1.575   2.424   2.155
 6413TIP3    H219246   1.517   2.475   2.286
 6414TIP3   OH219247   0.478   1.235   0.920
 6414TIP3    H119248   0.414   1.210   0.854
 6414TIP3    H219249   0.539   1.162   0.924
 6415TIP3   OH219250   4.802   0.423   4.175
 6415TIP3    H119251   4.720   0.465   4.150
 6415TIP3    H219252   4.807   0.433   4.270
 6416TIP3   OH219253   3.964   3.394   1.396
 6416TIP3    H119254   3.901   3.461   1.423
 6416TIP3    H219255   3.993   3.354   1.478
 6417TIP3   OH219256   0.985   2.507   4.919
 6417TIP3    H119257   0.922   2.496   4.848
 6417TIP3    H219258   0.937   2.557   4.985
 6418TIP3   OH219259   4.420   3.329   3.354
 6418TIP3    H119260   4.358   3.400   3.370
 6418TIP3    H219261   4.438   3.335   3.260
 6419TIP3   OH219262   4.495   5.134   1.863
 6419TIP3    H119263   4.495   5.087   1.946
 6419TIP3    H219264   4.441   5.081   1.804
 6420TIP3   OH219265   3.568   4.439   1.382
 6420TIP3    H119266   3.598   4.348   1.380
 6420TIP3    H219267   3.639   4.487   1.339
 6421TIP3   OH219268   2.385   4.095   1.087
 6421TIP3    H119269   2.434   4.136   1.016
 6421TIP3    H219270   2.439   4.020   1.112
 6422TIP3   OH219271   5.271   5.570   2.468
 6422TIP3    H119272   5.362   5.545   2.480
 6422TIP3    H219273   5.231   5.553   2.554
 6423TIP3   OH219274   1.101   5.448   1.515
 6423TIP3    H119275   1.160   5.378   1.544
 6423TIP3    H219276   1.018   5.427   1.557
 6424TIP3   OH219277   2.672   2.011   1.161
 6424TIP3    H119278   2.666   2.025   1.256
 6424TIP3    H219279   2.766   2.015   1.143
 6425TIP3   OH219280   0.861   4.423   4.424
 6425TIP3    H119281   0.766   4.419   4.436
 6425TIP3    H219282   0.874   4.405   4.331
 6426TIP3   OH219283   3.670   2.710   2.677
 6426TIP3    H119284   3.677   2.754   2.761
 6426TIP3    H219285   3.715   2.768   2.615
 6427TIP3   OH219286   5.211   1.012   3.700
 6427TIP3    H119287   5.286   1.007   3.642
 6427TIP3    H219288   5.248   1.012   3.789
 6428TIP3   OH219289   3.203   1.927   3.678
 6428TIP3    H119290   3.264   1.914   3.750
 6428TIP3    H219291   3.142   1.994   3.708
 6429TIP3   OH219292   3.518   2.784   1.137
 6429TIP3    H119293   3.554   2.696   1.149
 6429TIP3    H219294   3.427   2.769   1.109
 6430TIP3   OH219295   2.549   5.572   2.541
 6430TIP3    H119296   2.465   5.536   2.569
 6430TIP3    H219297   2.556   5.548   2.449
 6431TIP3   OH219298   5.362   2.355   5.093
 6431TIP3    H119299   5.287   2.380   5.039
 6431TIP3    H219300   5.426   2.425   5.079
 6432TIP3   OH219301   5.602   2.191   0.388
 6432TIP3    H119302   5.539   2.252   0.426
 6432TIP3    H219303   5.644   2.150   0.463
 6433TIP3   OH219304   4.022   1.847   1.513
 6433TIP3    H119305   4.096   1.789   1.531
 6433TIP3    H219306   4.043   1.888   1.429
 6434TIP3   OH219307   4.716   2.840   3.035
 6434TIP3    H119308   4.704   2.919   2.983
 6434TIP3    H219309   4.757   2.777   2.976
 6435TIP3   OH219310   5.336   6.031   4.961
 6435TIP3    H119311   5.247   6.012   4.933
 6435TIP3    H219312   5.371   5.947   4.990
 6436TIP3   OH219313   5.763   5.212   1.091
 6436TIP3    H119314   5.835   5.183   1.146
 6436TIP3    H219315   5.714   5.132   1.073
 6437TIP3   OH219316   3.285   0.663   0.971
 6437TIP3    H119317   3.249   0.716   1.043
 6437TIP3    H219318   3.233   0.688   0.895
 6438TIP3   OH219319   2.913   2.187   2.854
 6438TIP3    H119320   2.947   2.255   2.912
 6438TIP3    H219321   2.817   2.196   2.860
 6439TIP3   OH219322   0.072   3.584   1.285
 6439TIP3    H119323   0.134   3.511   1.284
 6439TIP3    H219324   0.125   3.662   1.269
 6440TIP3   OH219325   2.756   1.348   0.173
 6440TIP3    H119326   2.709   1.310   0.099
 6440TIP3    H219327   2.846   1.314   0.164
 6441TIP3   OH219328   2.366   2.806   3.075
 6441TIP3    H119329   2.451   2.833   3.041
 6441TIP3    H219330   2.318   2.888   3.088
 6442TIP3   OH219331   4.648   2.601   0.563
 6442TIP3    H119332   4.730   2.565   0.597
 6442TIP3    H219333   4.587   2.597   0.637
 6443TIP3   OH219334   3.334   4.007   3.131
 6443TIP3    H119335   3.329   4.048   3.044
 6443TIP3    H219336   3.302   3.918   3.117
 6444TIP3   OH219337   0.994   1.122   1.319
 6444TIP3    H119338   0.986   1.197   1.260
 6444TIP3    H219339   0.905   1.087   1.326
 6445TIP3   OH219340   0.674   4.024   0.151
 6445TIP3    H119341   0.760   4.007   0.188
 6445TIP3    H219342   0.680   4.113   0.116
 6446TIP3   OH219343   1.438   2.305   1.266
 6446TIP3    H119344   1.401   2.308   1.178
 6446TIP3    H219345   1.437   2.212   1.290
 6447TIP3   OH219346   0.186   3.850   1.211
 6447TIP3    H119347   0.158   3.927   1.162
 6447TIP3    H219348   0.279   3.840   1.190
 6448TIP3   OH219349   4.342   0.109   4.964
 6448TIP3    H119350   4.396   0.057   4.904
 6448TIP3    H219351   4.401   0.134   5.035
 6449TIP3   OH219352   3.569   4.754   2.888
 6449TIP3    H119353   3.548   4.798   2.971
 6449TIP3    H219354   3.665   4.759   2.882
 6450TIP3   OH219355   5.385   2.327   3.156
 6450TIP3    H119356   5.311   2.348   3.100
 6450TIP3    H219357   5.459   2.316   3.096
 6451TIP3   OH219358   1.397   0.114   0.027
 6451TIP3    H119359   1.378   0.020   0.023
 6451TIP3    H219360   1.477   0.120   0.078
 6452TIP3   OH219361   0.077   0.387   4.047
 6452TIP3    H119362  -0.010   0.381   4.086
 6452TIP3    H219363   0.127   0.316   4.089
 6453TIP3   OH219364   1.163   5.779   0.146
 6453TIP3    H119365   1.174   5.697   0.195
 6453TIP3    H219366   1.211   5.764   0.064
 6454TIP3   OH219367   3.934   5.845   0.417
 6454TIP3    H119368   3.853   5.839   0.468
 6454TIP3    H219369   3.977   5.924   0.450
 6455TIP3   OH219370   6.232   1.870   0.864
 6455TIP3    H119371   6.234   1.897   0.955
 6455TIP3    H219372   6.141   1.844   0.848
 6456TIP3   OH219373   0.620   0.013   1.080
 6456TIP3    H119374   0.656  -0.050   1.143
 6456TIP3    H219375   0.628   0.098   1.124
 6457TIP3   OH219376   0.893   1.814   1.759
 6457TIP3    H119377   0.835   1.887   1.782
 6457TIP3    H219378   0.929   1.839   1.673
 6458TIP3   OH219379   1.147   0.237   4.756
 6458TIP3    H119380   1.121   0.176   4.825
 6458TIP3    H219381   1.089   0.216   4.682
 6459TIP3   OH219382   1.844   0.328   3.000
 6459TIP3    H119383   1.839   0.423   3.005
 6459TIP3    H219384   1.938   0.310   2.992
 6460TIP3   OH219385   4.389   2.010   0.125
 6460TIP3    H119386   4.384   2.098   0.087
 6460TIP3    H219387   4.307   2.000   0.175
 6461TIP3   OH219388   1.032   3.841   4.879
 6461TIP3    H119389   1.117   3.842   4.836
 6461TIP3    H219390   0.992   3.926   4.857
 6462TIP3   OH219391   0.019   1.206   4.106
 6462TIP3    H119392   0.102   1.199   4.059
 6462TIP3    H219393  -0.019   1.288   4.076
 6463TIP3   OH219394   1.048   5.492   5.137
 6463TIP3    H119395   1.120   5.517   5.079
 6463TIP3    H219396   1.082   5.509   5.225
 6464TIP3   OH219397   3.801   1.978   2.083
 6464TIP3    H119398   3.786   1.915   2.013
 6464TIP3    H219399   3.789   1.927   2.164
 6465TIP3   OH219400   0.381   2.097   4.243
 6465TIP3    H119401   0.433   2.063   4.317
 6465TIP3    H219402   0.296   2.118   4.282
 6466TIP3   OH219403   2.681   2.025   1.431
 6466TIP3    H119404   2.612   1.969   1.468
 6466TIP3    H219405   2.739   2.043   1.505
 6467TIP3   OH219406   0.119   3.894   1.883
 6467TIP3    H119407   0.131   3.856   1.796
 6467TIP3    H219408   0.198   3.947   1.896
 6468TIP3   OH219409   3.423   1.080   4.832
 6468TIP3    H119410   3.508   1.043   4.854
 6468TIP3    H219411   3.397   1.129   4.910
 6469TIP3   OH219412   5.892   5.534   4.901
 6469TIP3    H119413   5.978   5.532   4.859
 6469TIP3    H219414   5.872   5.627   4.908
 6470TIP3   OH219415   3.349   5.129   1.141
 6470TIP3    H119416   3.392   5.126   1.055
 6470TIP3    H219417   3.270   5.076   1.130
 6471TIP3   OH219418   1.522   3.336   3.189
 6471TIP3    H119419   1.510   3.424   3.225
 6471TIP3    H219420   1.560   3.286   3.261
 6472TIP3   OH219421   2.280   5.192   0.536
 6472TIP3    H119422   2.253   5.143   0.458
 6472TIP3    H219423   2.364   5.231   0.511
 6473TIP3   OH219424   2.300   1.278   2.617
 6473TIP3    H119425   2.290   1.215   2.544
 6473TIP3    H219426   2.234   1.344   2.600
 6474TIP3   OH219427   0.973   2.766   2.185
 6474TIP3    H119428   0.910   2.760   2.114
 6474TIP3    H219429   1.045   2.710   2.159
 6475TIP3   OH219430   5.514   5.826   3.913
 6475TIP3    H119431   5.563   5.907   3.925
 6475TIP3    H219432   5.521   5.807   3.820
 6476TIP3   OH219433   5.527   2.263   4.685
 6476TIP3    H119434   5.590   2.210   4.734
 6476TIP3    H219435   5.538   2.235   4.594
 6477TIP3   OH219436   1.355   1.960   0.325
 6477TIP3    H119437   1.360   2.018   0.401
 6477TIP3    H219438   1.308   1.883   0.356
 6478TIP3   OH219439   2.415   3.335   3.328
 6478TIP3    H119440   2.436   3.292   3.245
 6478TIP3    H219441   2.461   3.419   3.324
 6479TIP3   OH219442   2.592   3.688   1.831
 6479TIP3    H119443   2.571   3.763   1.776
 6479TIP3    H219444   2.593   3.613   1.771
 6480TIP3   OH219445   2.703   4.506   3.889
 6480TIP3    H119446   2.615   4.500   3.851
 6480TIP3    H219447   2.750   4.432   3.852
 6481TIP3   OH219448   1.239   4.412   2.902
 6481TIP3    H119449   1.252   4.434   2.994
 6481TIP3    H219450   1.328   4.410   2.865
 6482TIP3   OH219451   4.689   1.352   4.600
 6482TIP3    H119452   4.745   1.391   4.534
 6482TIP3    H219453   4.698   1.258   4.587
 6483TIP3   OH219454   5.351   1.081   3.934
 6483TIP3    H119455   5.442   1.074   3.966
 6483TIP3    H219456   5.350   1.162   3.883
 6484TIP3   OH219457   4.531   1.080   2.530
 6484TIP3    H119458   4.440   1.084   2.503
 6484TIP3    H219459   4.581   1.091   2.448
 6485TIP3   OH219460   4.754   1.394   3.373
 6485TIP3    H119461   4.775   1.486   3.385
 6485TIP3    H219462   4.839   1.350   3.365
 6486TIP3   OH219463   5.931   0.096   3.443
 6486TIP3    H119464   5.948   0.148   3.522
 6486TIP3    H219465   5.884   0.019   3.475
 6487TIP3   OH219466   5.455   1.301   1.538
 6487TIP3    H119467   5.450   1.206   1.552
 6487TIP3    H219468   5.490   1.336   1.620
 6488TIP3   OH219469   2.615   3.125   2.295
 6488TIP3    H119470   2.531   3.155   2.258
 6488TIP3    H219471   2.655   3.075   2.224
 6489TIP3   OH219472   2.154   5.565   3.525
 6489TIP3    H119473   2.114   5.629   3.465
 6489TIP3    H219474   2.248   5.572   3.508
 6490TIP3   OH219475   0.491   5.490   2.740
 6490TIP3    H119476   0.515   5.460   2.828
 6490TIP3    H219477   0.423   5.430   2.712
 6491TIP3   OH219478   5.946   3.737   0.476
 6491TIP3    H119479   6.021   3.790   0.447
 6491TIP3    H219480   5.906   3.706   0.395
 6492TIP3   OH219481   1.809   4.625   4.580
 6492TIP3    H119482   1.825   4.542   4.534
 6492TIP3    H219483   1.885   4.634   4.638
 6493TIP3   OH219484   4.839   0.635   0.228
 6493TIP3    H119485   4.923   0.677   0.208
 6493TIP3    H219486   4.783   0.705   0.260
 6494TIP3   OH219487   6.066   1.003   3.361
 6494TIP3    H119488   6.084   1.030   3.451
 6494TIP3    H219489   6.029   1.080   3.320
 6495TIP3   OH219490   0.465   3.639   1.526
 6495TIP3    H119491   0.519   3.564   1.552
 6495TIP3    H219492   0.480   3.648   1.432
 6496TIP3   OH219493   0.199   1.551   1.158
 6496TIP3    H119494   0.274   1.559   1.217
 6496TIP3    H219495   0.177   1.642   1.135
 6497TIP3   OH219496   5.898   2.865   2.884
 6497TIP3    H119497   5.873   2.860   2.792
 6497TIP3    H219498   5.940   2.951   2.893
 6498TIP3   OH219499   1.537   1.587   1.180
 6498TIP3    H119500   1.488   1.505   1.168
 6498TIP3    H219501   1.569   1.608   1.092
 6499TIP3   OH219502   4.647   3.765   2.201
 6499TIP3    H119503   4.613   3.854   2.207
 6499TIP3    H219504   4.715   3.761   2.268
 6500TIP3   OH219505   0.332   4.883   3.886
 6500TIP3    H119506   0.354   4.909   3.797
 6500TIP3    H219507   0.245   4.920   3.901
 6501TIP3   OH219508   0.496   3.273   1.781
 6501TIP3    H119509   0.557   3.338   1.747
 6501TIP3    H219510   0.540   3.189   1.768
 6502TIP3   OH219511   0.219   5.419   2.122
 6502TIP3    H119512   0.173   5.403   2.204
 6502TIP3    H219513   0.149   5.431   2.058
 6503TIP3   OH219514   6.006   1.021   2.117
 6503TIP3    H119515   6.021   1.050   2.027
 6503TIP3    H219516   6.084   1.050   2.165
 6504TIP3   OH219517   2.087   2.796   3.559
 6504TIP3    H119518   2.002   2.807   3.517
 6504TIP3    H219519   2.091   2.866   3.624
 6505TIP3   OH219520   4.605   2.607   2.256
 6505TIP3    H119521   4.542   2.643   2.193
 6505TIP3    H219522   4.564   2.527   2.288
 6506TIP3   OH219523   1.060   0.826   3.056
 6506TIP3    H119524   0.965   0.830   3.062
 6506TIP3    H219525   1.082   0.736   3.080
 6507TIP3   OH219526   0.422   0.304   3.772
 6507TIP3    H119527   0.464   0.306   3.858
 6507TIP3    H219528   0.331   0.330   3.790
 6508TIP3   OH219529   4.534   0.976   4.818
 6508TIP3    H119530   4.542   1.041   4.748
 6508TIP3    H219531   4.618   0.979   4.863
 6509TIP3   OH219532   0.647   3.152   2.615
 6509TIP3    H119533   0.609   3.169   2.702
 6509TIP3    H219534   0.574   3.116   2.564
 6510TIP3   OH219535   0.942   3.178   3.710
 6510TIP3    H119536   0.901   3.260   3.682
 6510TIP3    H219537   0.957   3.190   3.804
 6511TIP3   OH219538   4.151   3.273   2.574
 6511TIP3    H119539   4.234   3.305   2.540
 6511TIP3    H219540   4.085   3.333   2.539
 6512TIP3   OH219541   2.969   0.845   2.298
 6512TIP3    H119542   2.962   0.939   2.314
 6512TIP3    H219543   3.062   0.826   2.307
 6513TIP3   OH219544   3.960   4.907   1.117
 6513TIP3    H119545   4.025   4.918   1.187
 6513TIP3    H219546   4.002   4.846   1.056
 6514TIP3   OH219547   3.347   2.676   1.863
 6514TIP3    H119548   3.432   2.634   1.873
 6514TIP3    H219549   3.315   2.644   1.779
 6515TIP3   OH219550   3.787   1.856   4.970
 6515TIP3    H119551   3.854   1.869   5.036
 6515TIP3    H219552   3.834   1.854   4.887
 6516TIP3   OH219553   4.404   1.498   3.372
 6516TIP3    H119554   4.327   1.500   3.315
 6516TIP3    H219555   4.473   1.540   3.321
 6517TIP3   OH219556   5.713   0.962   2.818
 6517TIP3    H119557   5.655   1.037   2.812
 6517TIP3    H219558   5.746   0.949   2.729
 6518TIP3   OH219559   4.958   4.963   3.166
 6518TIP3    H119560   5.006   4.881   3.178
 6518TIP3    H219561   5.024   5.031   3.178
 6519TIP3   OH219562   2.869   5.447   4.165
 6519TIP3    H119563   2.824   5.403   4.237
 6519TIP3    H219564   2.962   5.439   4.187
 6520TIP3   OH219565   1.373   2.973   4.071
 6520TIP3    H119566   1.321   3.052   4.086
 6520TIP3    H219567   1.308   2.907   4.046
 6521TIP3   OH219568   3.139   2.786   3.159
 6521TIP3    H119569   3.144   2.762   3.066
 6521TIP3    H219570   3.094   2.870   3.159
 6522TIP3   OH219571   6.345   5.770   4.438
 6522TIP3    H119572   6.424   5.795   4.389
 6522TIP3    H219573   6.331   5.842   4.499
 6523TIP3   OH219574   6.064   5.155   2.525
 6523TIP3    H119575   6.149   5.142   2.482
 6523TIP3    H219576   6.070   5.103   2.605
 6524TIP3   OH219577   0.911   1.435   0.171
 6524TIP3    H119578   0.990   1.383   0.153
 6524TIP3    H219579   0.944   1.518   0.205
 6525TIP3   OH219580   5.219   5.159   1.866
 6525TIP3    H119581   5.214   5.100   1.791
 6525TIP3    H219582   5.207   5.246   1.829
 6526TIP3   OH219583   3.453   1.904   3.561
 6526TIP3    H119584   3.360   1.927   3.569
 6526TIP3    H219585   3.499   1.983   3.589
 6527TIP3   OH219586   5.260   4.778   1.423
 6527TIP3    H119587   5.179   4.812   1.386
 6527TIP3    H219588   5.326   4.796   1.356
 6528TIP3   OH219589   0.582   2.573   2.349
 6528TIP3    H119590   0.536   2.653   2.325
 6528TIP3    H219591   0.673   2.600   2.362
 6529TIP3   OH219592   4.421   2.573   0.798
 6529TIP3    H119593   4.395   2.482   0.783
 6529TIP3    H219594   4.400   2.589   0.890
 6530TIP3   OH219595   5.443   0.058   0.288
 6530TIP3    H119596   5.446   0.006   0.368
 6530TIP3    H219597   5.534   0.082   0.272
 6531TIP3   OH219598   4.014   0.654   0.027
 6531TIP3    H119599   4.066   0.625   0.103
 6531TIP3    H219600   4.054   0.610  -0.047
 6532TIP3   OH219601   0.055   4.786   5.074
 6532TIP3    H119602   0.132   4.832   5.040
 6532TIP3    H219603  -0.007   4.786   5.001
 6533TIP3   OH219604   3.612   5.541   1.139
 6533TIP3    H119605   3.654   5.584   1.214
 6533TIP3    H219606   3.641   5.450   1.145
 6534TIP3   OH219607   2.140   4.759   4.425
 6534TIP3    H119608   2.078   4.739   4.355
 6534TIP3    H219609   2.173   4.673   4.453
 6535TIP3   OH219610   0.720   5.076   3.927
 6535TIP3    H119611   0.643   5.068   3.870
 6535TIP3    H219612   0.794   5.057   3.871
 6536TIP3   OH219613   3.194   1.858   4.371
 6536TIP3    H119614   3.245   1.934   4.344
 6536TIP3    H219615   3.247   1.783   4.344
 6537TIP3   OH219616   0.594   2.072   2.632
 6537TIP3    H119617   0.553   2.153   2.602
 6537TIP3    H219618   0.522   2.010   2.638
 6538TIP3   OH219619   5.511   3.977   1.194
 6538TIP3    H119620   5.548   3.897   1.156
 6538TIP3    H219621   5.539   4.047   1.135
 6539TIP3   OH219622   2.653   1.096   2.353
 6539TIP3    H119623   2.657   1.150   2.432
 6539TIP3    H219624   2.610   1.151   2.288
 6540TIP3   OH219625   3.824   5.987   1.204
 6540TIP3    H119626   3.913   5.997   1.172
 6540TIP3    H219627   3.770   6.034   1.139
 6541TIP3   OH219628   0.770   3.816   2.979
 6541TIP3    H119629   0.851   3.857   2.950
 6541TIP3    H219630   0.709   3.830   2.906
 6542TIP3   OH219631   1.695   2.000   2.077
 6542TIP3    H119632   1.758   1.955   2.133
 6542TIP3    H219633   1.719   2.093   2.084
 6543TIP3   OH219634   2.013   0.453   3.371
 6543TIP3    H119635   2.057   0.462   3.287
 6543TIP3    H219636   1.939   0.394   3.353
 6544TIP3   OH219637   6.054   4.131   2.971
 6544TIP3    H119638   6.002   4.109   3.049
 6544TIP3    H219639   5.989   4.142   2.901
 6545TIP3   OH219640   4.794   5.271   2.295
 6545TIP3    H119641   4.731   5.221   2.348
 6545TIP3    H219642   4.813   5.213   2.220
 6546TIP3   OH219643   3.638   0.774   0.330
 6546TIP3    H119644   3.664   0.794   0.240
 6546TIP3    H219645   3.542   0.772   0.327
 6547TIP3   OH219646   0.329   4.516   0.944
 6547TIP3    H119647   0.312   4.555   0.858
 6547TIP3    H219648   0.311   4.586   1.006
 6548TIP3   OH219649   3.479   1.907   0.601
 6548TIP3    H119650   3.455   1.975   0.665
 6548TIP3    H219651   3.409   1.910   0.536
 6549TIP3   OH219652   5.956   2.209   4.692
 6549TIP3    H119653   6.024   2.240   4.632
 6549TIP3    H219654   5.949   2.115   4.673
 6550TIP3   OH219655   0.796   5.564   2.702
 6550TIP3    H119656   0.837   5.629   2.645
 6550TIP3    H219657   0.726   5.526   2.649
 6551TIP3   OH219658   2.679   0.123   0.292
 6551TIP3    H119659   2.685   0.047   0.350
 6551TIP3    H219660   2.734   0.101   0.217
 6552TIP3   OH219661   1.055   3.656   3.883
 6552TIP3    H119662   1.139   3.666   3.839
 6552TIP3    H219663   1.053   3.727   3.947
 6553TIP3   OH219664   0.863   0.453   1.040
 6553TIP3    H119665   0.942   0.507   1.046
 6553TIP3    H219666   0.803   0.491   1.104
 6554TIP3   OH219667   2.107   2.417   2.342
 6554TIP3    H119668   2.131   2.332   2.305
 6554TIP3    H219669   2.022   2.436   2.302
 6555TIP3   OH219670   0.750   3.930   2.526
 6555TIP3    H119671   0.815   3.999   2.536
 6555TIP3    H219672   0.689   3.964   2.460
 6556TIP3   OH219673   0.806   1.082   3.054
 6556TIP3    H119674   0.798   1.019   3.126
 6556TIP3    H219675   0.721   1.128   3.053
 6557TIP3   OH219676   4.842   1.666   3.513
 6557TIP3    H119677   4.884   1.626   3.588
 6557TIP3    H219678   4.748   1.657   3.530
 6558TIP3   OH219679   2.009   3.482   1.339
 6558TIP3    H119680   2.070   3.417   1.374
 6558TIP3    H219681   1.941   3.490   1.406
 6559TIP3   OH219682   4.717   0.719   1.793
 6559TIP3    H119683   4.766   0.768   1.727
 6559TIP3    H219684   4.782   0.662   1.834
 6560TIP3   OH219685   5.864   2.400   2.284
 6560TIP3    H119686   5.812   2.477   2.307
 6560TIP3    H219687   5.880   2.408   2.190
 6561TIP3   OH219688   4.774   0.739   3.161
 6561TIP3    H119689   4.719   0.815   3.142
 6561TIP3    H219690   4.845   0.744   3.099
 6562TIP3   OH219691   4.497   3.954   4.821
 6562TIP3    H119692   4.490   3.959   4.726
 6562TIP3    H219693   4.416   3.995   4.853
 6563TIP3   OH219694   5.126   2.477   4.577
 6563TIP3    H119695   5.182   2.520   4.512
 6563TIP3    H219696   5.177   2.482   4.658
 6564TIP3   OH219697   0.041   4.525   2.313
 6564TIP3    H119698  -0.002   4.607   2.336
 6564TIP3    H219699  -0.006   4.458   2.364
 6565TIP3   OH219700   4.505   3.604   3.188
 6565TIP3    H119701   4.521   3.536   3.122
 6565TIP3    H219702   4.584   3.603   3.242
 6566TIP3   OH219703   0.337   0.343   2.742
 6566TIP3    H119704   0.282   0.346   2.820
 6566TIP3    H219705   0.398   0.271   2.759
 6567TIP3   OH219706   0.882   4.967   4.617
 6567TIP3    H119707   0.882   4.956   4.712
 6567TIP3    H219708   0.798   4.932   4.589
 6568TIP3   OH219709   5.283   4.534   2.552
 6568TIP3    H119710   5.306   4.578   2.470
 6568TIP3    H219711   5.205   4.483   2.530
 6569TIP3   OH219712   0.897   5.890   0.131
 6569TIP3    H119713   0.892   5.956   0.200
 6569TIP3    H219714   0.969   5.833   0.157
 6570TIP3   OH219715   3.498   2.534   2.337
 6570TIP3    H119716   3.477   2.626   2.324
 6570TIP3    H219717   3.579   2.520   2.289
 6571TIP3   OH219718   1.160   1.112   4.468
 6571TIP3    H119719   1.220   1.084   4.399
 6571TIP3    H219720   1.205   1.089   4.550
 6572TIP3   OH219721   3.641   5.537   3.009
 6572TIP3    H119722   3.614   5.446   2.990
 6572TIP3    H219723   3.678   5.533   3.097
 6573TIP3   OH219724   0.651   3.841   0.508
 6573TIP3    H119725   0.678   3.914   0.564
 6573TIP3    H219726   0.588   3.880   0.448
 6574TIP3   OH219727   2.355   0.198   2.903
 6574TIP3    H119728   2.380   0.280   2.945
 6574TIP3    H219729   2.420   0.185   2.834
 6575TIP3   OH219730   3.703   4.641   0.805
 6575TIP3    H119731   3.659   4.560   0.830
 6575TIP3    H219732   3.748   4.619   0.723
 6576TIP3   OH219733   4.860   2.726   2.108
 6576TIP3    H119734   4.791   2.789   2.090
 6576TIP3    H219735   4.922   2.737   2.036
 6577TIP3   OH219736   2.793   4.989   1.283
 6577TIP3    H119737   2.733   4.998   1.357
 6577TIP3    H219738   2.853   5.063   1.292
 6578TIP3   OH219739   0.120   4.725   4.738
 6578TIP3    H119740   0.041   4.732   4.792
 6578TIP3    H219741   0.153   4.637   4.757
 6579TIP3   OH219742   2.947   3.218   2.887
 6579TIP3    H119743   2.908   3.139   2.849
 6579TIP3    H219744   2.989   3.187   2.967
 6580TIP3   OH219745   2.274   0.344   2.103
 6580TIP3    H119746   2.288   0.313   2.192
 6580TIP3    H219747   2.305   0.435   2.104
 6581TIP3   OH219748   4.819   3.790   4.806
 6581TIP3    H119749   4.854   3.850   4.739
 6581TIP3    H219750   4.877   3.801   4.881
 6582TIP3   OH219751   3.670   0.817   0.896
 6582TIP3    H119752   3.578   0.827   0.875
 6582TIP3    H219753   3.695   0.733   0.858
 6583TIP3   OH219754   5.102   1.503   3.819
 6583TIP3    H119755   5.160   1.571   3.852
 6583TIP3    H219756   5.138   1.422   3.855
 6584TIP3   OH219757   6.054   5.491   2.432
 6584TIP3    H119758   6.083   5.533   2.513
 6584TIP3    H219759   5.965   5.462   2.450
 6585TIP3   OH219760   5.333   3.692   1.112
 6585TIP3    H119761   5.246   3.729   1.124
 6585TIP3    H219762   5.381   3.758   1.061
 6586TIP3   OH219763   2.271   4.657   2.880
 6586TIP3    H119764   2.330   4.727   2.851
 6586TIP3    H219765   2.210   4.646   2.807
 6587TIP3   OH219766   2.969   3.934   2.357
 6587TIP3    H119767   3.020   3.882   2.419
 6587TIP3    H219768   2.880   3.900   2.364
 6588TIP3   OH219769   6.226   1.856   2.943
 6588TIP3    H119770   6.262   1.944   2.954
 6588TIP3    H219771   6.170   1.863   2.866
 6589TIP3   OH219772   2.143   5.245   2.959
 6589TIP3    H119773   2.227   5.230   2.917
 6589TIP3    H219774   2.097   5.305   2.900
 6590TIP3   OH219775   1.513   4.376   4.163
 6590TIP3    H119776   1.493   4.461   4.124
 6590TIP3    H219777   1.439   4.359   4.222
 6591TIP3   OH219778   0.487   4.805   2.031
 6591TIP3    H119779   0.566   4.822   2.081
 6591TIP3    H219780   0.419   4.793   2.097
 6592TIP3   OH219781   3.520   5.481   4.335
 6592TIP3    H119782   3.589   5.515   4.393
 6592TIP3    H219783   3.452   5.548   4.336
 6593TIP3   OH219784   6.212   2.327   2.008
 6593TIP3    H119785   6.217   2.350   2.101
 6593TIP3    H219786   6.199   2.232   2.008
 6594TIP3   OH219787   0.393   5.807   0.764
 6594TIP3    H119788   0.333   5.753   0.816
 6594TIP3    H219789   0.458   5.746   0.730
 6595TIP3   OH219790   2.564   3.642   3.323
 6595TIP3    H119791   2.490   3.703   3.323
 6595TIP3    H219792   2.549   3.586   3.399
 6596TIP3   OH219793   5.783   1.934   4.156
 6596TIP3    H119794   5.820   1.869   4.216
 6596TIP3    H219795   5.821   1.913   4.071
 6597TIP3   OH219796   3.023   1.506   2.073
 6597TIP3    H119797   2.984   1.420   2.057
 6597TIP3    H219798   2.985   1.563   2.006
 6598TIP3   OH219799   5.699   0.775   0.108
 6598TIP3    H119800   5.789   0.801   0.088
 6598TIP3    H219801   5.662   0.851   0.154
 6599TIP3   OH219802   2.198   3.491   0.967
 6599TIP3    H119803   2.230   3.411   1.009
 6599TIP3    H219804   2.151   3.537   1.036
 6600TIP3   OH219805   5.737   1.472   4.184
 6600TIP3    H119806   5.792   1.394   4.193
 6600TIP3    H219807   5.794   1.536   4.140
 6601TIP3   OH219808   2.463   5.168   4.958
 6601TIP3    H119809   2.424   5.187   4.872
 6601TIP3    H219810   2.389   5.141   5.012
 6602TIP3   OH219811   0.772   5.554   2.030
 6602TIP3    H119812   0.703   5.617   2.011
 6602TIP3    H219813   0.743   5.510   2.111
 6603TIP3   OH219814   2.139   1.761   4.310
 6603TIP3    H119815   2.213   1.821   4.311
 6603TIP3    H219816   2.132   1.732   4.219
 6604TIP3   OH219817   3.199   4.617   4.683
 6604TIP3    H119818   3.171   4.699   4.644
 6604TIP3    H219819   3.161   4.618   4.771
 6605TIP3   OH219820   0.338   2.180   4.576
 6605TIP3    H119821   0.422   2.166   4.620
 6605TIP3    H219822   0.273   2.149   4.638
 6606TIP3   OH219823   2.024   3.243   3.428
 6606TIP3    H119824   2.024   3.246   3.332
 6606TIP3    H219825   2.092   3.179   3.449
 6607TIP3   OH219826   6.057   5.750   4.327
 6607TIP3    H119827   5.979   5.695   4.328
 6607TIP3    H219828   6.116   5.708   4.390
 6608TIP3   OH219829   3.415   5.488   1.687
 6608TIP3    H119830   3.390   5.437   1.764
 6608TIP3    H219831   3.388   5.578   1.708
 6609TIP3   OH219832   2.815   2.113   1.643
 6609TIP3    H119833   2.875   2.106   1.717
 6609TIP3    H219834   2.776   2.200   1.654
 6610TIP3   OH219835   4.473   5.870   1.272
 6610TIP3    H119836   4.499   5.891   1.182
 6610TIP3    H219837   4.440   5.953   1.308
 6611TIP3   OH219838   4.114   1.734   0.110
 6611TIP3    H119839   4.173   1.766   0.042
 6611TIP3    H219840   4.050   1.681   0.063
 6612TIP3   OH219841   4.579   2.785   4.594
 6612TIP3    H119842   4.620   2.702   4.570
 6612TIP3    H219843   4.621   2.850   4.537
 6613TIP3   OH219844   1.587   3.869   3.686
 6613TIP3    H119845   1.680   3.883   3.704
 6613TIP3    H219846   1.570   3.778   3.711
 6614TIP3   OH219847   0.911   4.861   1.002
 6614TIP3    H119848   0.988   4.809   1.022
 6614TIP3    H219849   0.856   4.804   0.948
 6615TIP3   OH219850   3.093   0.289   1.555
 6615TIP3    H119851   3.099   0.312   1.462
 6615TIP3    H219852   3.168   0.333   1.595
 6616TIP3   OH219853   4.676   1.536   1.540
 6616TIP3    H119854   4.609   1.580   1.592
 6616TIP3    H219855   4.757   1.550   1.589
 6617TIP3   OH219856   2.444   4.451   4.284
 6617TIP3    H119857   2.528   4.496   4.278
 6617TIP3    H219858   2.458   4.367   4.240
 6618TIP3   OH219859   4.927   2.167   1.319
 6618TIP3    H119860   4.927   2.115   1.400
 6618TIP3    H219861   5.020   2.189   1.306
 6619TIP3   OH219862   4.360   5.984   2.689
 6619TIP3    H119863   4.367   5.950   2.600
 6619TIP3    H219864   4.371   5.906   2.745
 6620TIP3   OH219865   5.151   4.308   1.609
 6620TIP3    H119866   5.106   4.324   1.526
 6620TIP3    H219867   5.113   4.226   1.641
 6621TIP3   OH219868   3.848   5.239   4.399
 6621TIP3    H119869   3.903   5.308   4.435
 6621TIP3    H219870   3.800   5.281   4.328
 6622TIP3   OH219871   0.064   1.267   4.515
 6622TIP3    H119872   0.125   1.264   4.588
 6622TIP3    H219873  -0.021   1.242   4.552
 6623TIP3   OH219874   3.216   0.173   1.942
 6623TIP3    H119875   3.301   0.201   1.907
 6623TIP3    H219876   3.237   0.135   2.027
 6624TIP3   OH219877   0.159   0.033   4.994
 6624TIP3    H119878   0.133   0.014   5.085
 6624TIP3    H219879   0.223   0.104   5.002
 6625TIP3   OH219880   1.548   2.929   1.437
 6625TIP3    H119881   1.568   2.961   1.525
 6625TIP3    H219882   1.505   3.002   1.394
 6626TIP3   OH219883   1.785   2.135   3.809
 6626TIP3    H119884   1.845   2.112   3.879
 6626TIP3    H219885   1.785   2.231   3.807
 6627TIP3   OH219886   3.500   3.602   3.735
 6627TIP3    H119887   3.461   3.551   3.806
 6627TIP3    H219888   3.595   3.594   3.749
 6628TIP3   OH219889   3.716   3.262   5.079
 6628TIP3    H119890   3.637   3.217   5.109
 6628TIP3    H219891   3.726   3.335   5.141
 6629TIP3   OH219892   3.887   5.916   3.733
 6629TIP3    H119893   3.934   5.891   3.813
 6629TIP3    H219894   3.818   5.974   3.764
 6630TIP3   OH219895   5.772   0.949   2.023
 6630TIP3    H119896   5.837   0.991   2.080
 6630TIP3    H219897   5.823   0.914   1.950
 6631TIP3   OH219898   1.708   4.193   0.943
 6631TIP3    H119899   1.622   4.176   0.906
 6631TIP3    H219900   1.693   4.199   1.038
 6632TIP3   OH219901   0.440   4.685   4.700
 6632TIP3    H119902   0.425   4.773   4.666
 6632TIP3    H219903   0.390   4.628   4.641
 6633TIP3   OH219904   0.652   3.371   1.037
 6633TIP3    H119905   0.726   3.333   1.083
 6633TIP3    H219906   0.600   3.414   1.105
 6634TIP3   OH219907   5.993   4.497   2.605
 6634TIP3    H119908   5.949   4.559   2.546
 6634TIP3    H219909   6.016   4.423   2.549
 6635TIP3   OH219910   5.076   3.813   1.152
 6635TIP3    H119911   5.114   3.865   1.223
 6635TIP3    H219912   4.984   3.805   1.175
 6636TIP3   OH219913   0.002   5.353   0.466
 6636TIP3    H119914   0.096   5.368   0.459
 6636TIP3    H219915  -0.017   5.356   0.560
 6637TIP3   OH219916   1.956   1.104   3.826
 6637TIP3    H119917   1.910   1.103   3.910
 6637TIP3    H219918   1.939   1.018   3.788
 6638TIP3   OH219919   1.055   5.117   3.504
 6638TIP3    H119920   1.051   5.027   3.471
 6638TIP3    H219921   1.092   5.167   3.431
 6639TIP3   OH219922   3.037   0.349   1.230
 6639TIP3    H119923   3.113   0.290   1.221
 6639TIP3    H219924   3.074   0.437   1.225
 6640TIP3   OH219925   1.550   1.500   0.442
 6640TIP3    H119926   1.531   1.440   0.370
 6640TIP3    H219927   1.483   1.480   0.508
 6641TIP3   OH219928   2.155   0.636   4.338
 6641TIP3    H119929   2.091   0.567   4.327
 6641TIP3    H219930   2.207   0.634   4.258
 6642TIP3   OH219931   4.497   3.394   3.019
 6642TIP3    H119932   4.515   3.430   2.932
 6642TIP3    H219933   4.438   3.321   3.002
 6643TIP3   OH219934   1.972   0.584   1.742
 6643TIP3    H119935   2.044   0.646   1.738
 6643TIP3    H219936   1.982   0.531   1.663
 6644TIP3   OH219937   3.688   0.621   1.133
 6644TIP3    H119938   3.633   0.600   1.058
 6644TIP3    H219939   3.701   0.716   1.127
 6645TIP3   OH219940   0.164   3.396   4.211
 6645TIP3    H119941   0.228   3.365   4.147
 6645TIP3    H219942   0.089   3.337   4.201
   6.34434   5.98150   5.18014   0.00000   0.00000  -2.11479   0.00000  -2.11479  -2.99075
