Title
19942
    1ASP      N    1   0.237   0.718   4.506 -0.3273 -0.0012 -0.1604
    1ASP    HT1    2   0.195   0.628   4.537  1.3674 -0.3476  1.2696
    1ASP    HT2    3   0.178   0.792   4.549 -0.9939 -0.5110 -0.1879
    1ASP    HT3    4   0.333   0.721   4.546  0.3601  2.5650 -1.7769
    1ASP     CA    5   0.227   0.722   4.358 -0.0901  0.1290 -0.1238
    1ASP     HA    6   0.300   0.657   4.314 -2.3934 -1.3582 -2.0184
    1ASP     CB    7   0.077   0.677   4.314 -0.4321  0.2245  0.3077
    1ASP    HB1    8   0.003   0.758   4.328 -0.7709 -0.1473  0.7090
    1ASP    HB2    9   0.051   0.581   4.364 -0.0671  0.0235  0.1231
    1ASP     CG   10   0.072   0.638   4.165 -0.3701  0.3413  0.2975
    1ASP    OD1   11  -0.032   0.648   4.092  0.4345  0.2698  0.3111
    1ASP    OD2   12   0.174   0.587   4.122 -0.0146 -0.6254  0.0267
    1ASP      C   13   0.252   0.865   4.300 -0.8687  0.2940  0.0934
    1ASP      O   14   0.241   0.967   4.374 -0.9975  0.3917  0.0080
    2ALA      N   15   0.287   0.878   4.171 -0.8526 -0.1165  0.3262
    2ALA     HN   16   0.301   0.804   4.106  3.3262 -0.8598  1.7518
    2ALA     CA   17   0.333   1.005   4.119 -0.0689  0.2538  0.0902
    2ALA     HA   18   0.317   1.084   4.191  2.7734 -0.3524  1.5434
    2ALA     CB   19   0.481   1.017   4.093 -0.6253  0.2980 -0.0897
    2ALA    HB1   20   0.541   1.003   4.185 -1.1889 -1.1497  0.0802
    2ALA    HB2   21   0.508   1.118   4.055  1.8342 -0.7025 -1.1824
    2ALA    HB3   22   0.507   0.937   4.021 -0.1489  0.4272 -0.0598
    2ALA      C   23   0.257   1.031   3.993  0.1113  0.6442  0.0419
    2ALA      O   24   0.228   0.940   3.914 -0.4804  0.6096  0.0781
    3ASP      N   25   0.201   1.150   3.978 -0.6249  1.2364  0.2312
    3ASP     HN   26   0.213   1.222   4.046  1.4003 -0.2417  1.5279
    3ASP     CA   27   0.123   1.192   3.859  0.7295 -0.0074  0.6290
    3ASP     HA   28   0.041   1.121   3.862  1.8805 -1.3614  2.3611
    3ASP     CB   29   0.066   1.337   3.874  0.4597 -0.6713  1.2142
    3ASP    HB1   30   0.024   1.377   3.779  2.7609 -1.8179 -0.3659
    3ASP    HB2   31   0.156   1.399   3.893 -0.2249  0.2854  1.4076
    3ASP     CG   32  -0.024   1.344   3.988 -0.2223 -0.4320 -0.4641
    3ASP    OD1   33  -0.087   1.453   4.010 -0.6716  0.6455 -0.0953
    3ASP    OD2   34  -0.054   1.242   4.060  0.0834 -0.0830 -0.9878
    3ASP      C   35   0.200   1.179   3.723 -0.0869  0.3210  0.6323
    3ASP      O   36   0.324   1.198   3.715  0.0371  0.4460 -0.2906
    4GLY      N   37   0.128   1.149   3.609 -0.1013 -0.2842 -0.5368
    4GLY     HN   38   0.030   1.134   3.600 -0.0040 -1.0622 -0.4343
    4GLY     CA   39   0.191   1.126   3.487  0.0355 -0.0174  0.2381
    4GLY    HA1   40   0.117   1.077   3.425  0.1981  0.6701 -0.5109
    4GLY    HA2   41   0.280   1.067   3.499  1.0801  1.5015  0.2075
    4GLY      C   42   0.241   1.251   3.414 -0.9548 -0.3459 -0.3239
    4GLY      O   43   0.199   1.366   3.442 -0.3815 -0.5775 -0.1924
    5PRO      N   44   0.319   1.237   3.307 -0.6627  0.7242  0.0662
    5PRO     CD   45   0.413   1.124   3.294  0.2719  0.0145  0.3041
    5PRO    HD1   46   0.361   1.030   3.265  2.3148 -0.9507 -0.4488
    5PRO    HD2   47   0.468   1.091   3.384 -0.6194 -0.9619  0.5239
    5PRO     CA   48   0.373   1.347   3.237 -0.7039  0.1638 -0.4139
    5PRO     HA   49   0.373   1.430   3.306 -1.1068  0.0252 -0.2438
    5PRO     CB   50   0.521   1.316   3.199 -0.3243  0.2209 -0.1118
    5PRO    HB1   51   0.593   1.333   3.282  2.6617  0.2289 -2.5385
    5PRO    HB2   52   0.555   1.368   3.107  0.0230  0.6297  0.2423
    5PRO     CG   53   0.512   1.166   3.181  0.1030  0.6490 -0.1851
    5PRO    HG1   54   0.473   1.146   3.079  1.4065  2.3637 -1.0827
    5PRO    HG2   55   0.611   1.117   3.195 -1.2527 -1.1853  5.3238
    5PRO      C   56   0.289   1.395   3.114 -0.4536 -0.7409 -0.2568
    5PRO      O   57   0.216   1.321   3.054 -0.1682 -0.2014 -0.6015
    6GLY      N   58   0.291   1.528   3.091  0.4758  0.4664 -0.2586
    6GLY     HN   59   0.349   1.591   3.142 -1.3625  2.2230 -0.2056
    6GLY     CA   60   0.207   1.602   2.994  0.0633  0.3736  0.3666
    6GLY    HA1   61   0.242   1.704   3.006 -0.8543  1.0747 -2.1484
    6GLY    HA2   62   0.101   1.584   2.999  0.2304 -1.5761 -1.7113
    6GLY      C   63   0.261   1.577   2.856 -0.3952 -0.2938 -0.4850
    6GLY      O   64   0.197   1.544   2.756  0.2124  0.4694 -0.2843
    7ASP      N   65   0.393   1.587   2.850  0.2228  1.0173 -0.3918
    7ASP     HN   66   0.441   1.615   2.934 -3.2672 -0.4729  2.3484
    7ASP     CA   67   0.481   1.536   2.745  0.4029  0.2614  0.1799
    7ASP     HA   68   0.421   1.527   2.656 -1.4952  0.7611  1.3352
    7ASP     CB   69   0.574   1.656   2.721 -0.5501 -0.5939 -0.1869
    7ASP    HB1   70   0.664   1.643   2.784 -0.8858 -0.8740  0.2464
    7ASP    HB2   71   0.525   1.754   2.738  0.1793 -0.3757  0.7145
    7ASP     CG   72   0.636   1.657   2.581 -0.2672  1.4589 -0.8323
    7ASP    OD1   73   0.593   1.580   2.498 -0.1939  0.6587 -0.2195
    7ASP    OD2   74   0.722   1.743   2.555 -0.0891  0.0136 -0.2782
    7ASP      C   75   0.551   1.412   2.807  0.2355 -0.0368  0.7050
    7ASP      O   76   0.634   1.429   2.899  0.4441 -1.2997  0.2829
    8PRO      N   77   0.530   1.289   2.753 -0.6836  0.3294 -0.1834
    8PRO     CD   78   0.449   1.261   2.635  0.4751  0.4463  0.0696
    8PRO    HD1   79   0.475   1.345   2.568  2.6152  1.8817  2.5026
    8PRO    HD2   80   0.345   1.272   2.672  1.2600  2.1574  1.9696
    8PRO     CA   81   0.595   1.168   2.796  0.4018  0.0273 -0.5851
    8PRO     HA   82   0.597   1.161   2.903 -2.0307  0.6174 -0.4570
    8PRO     CB   83   0.519   1.059   2.718 -0.2362 -0.2532 -0.1904
    8PRO    HB1   84   0.426   1.043   2.778 -0.1046  0.6872  0.2988
    8PRO    HB2   85   0.567   0.960   2.709 -0.5422 -0.5236  0.9539
    8PRO     CG   86   0.488   1.130   2.584 -0.6088  1.0618  0.3852
    8PRO    HG1   87   0.578   1.130   2.519  0.1727  0.1914  1.4252
    8PRO    HG2   88   0.416   1.067   2.527  1.7586 -1.5057  0.0049
    8PRO      C   89   0.745   1.168   2.753 -0.4732  0.2436  0.1416
    8PRO      O   90   0.806   1.061   2.766 -0.0084 -0.1856 -0.8253
    9ASP      N   91   0.809   1.276   2.717 -0.1490 -0.4880  0.1815
    9ASP     HN   92   0.756   1.360   2.707  0.0998 -0.4350 -0.7931
    9ASP     CA   93   0.949   1.296   2.717  0.4646 -0.4542  0.5389
    9ASP     HA   94   1.009   1.223   2.664  1.8576  1.6882 -1.0142
    9ASP     CB   95   0.972   1.433   2.649  0.7442  0.0021 -0.0392
    9ASP    HB1   96   1.081   1.447   2.633  1.0244  0.2586  1.9564
    9ASP    HB2   97   0.929   1.522   2.699  1.6509  1.2286 -1.3740
    9ASP     CG   98   0.917   1.442   2.503  0.6206  0.0581 -0.3156
    9ASP    OD1   99   0.905   1.553   2.449 -0.5454 -0.0686 -0.0990
    9ASP    OD2  100   0.893   1.333   2.435 -0.3667 -0.2659 -0.8335
    9ASP      C  101   1.016   1.295   2.853 -0.1808 -0.3855  0.2148
    9ASP      O  102   1.128   1.243   2.866  0.1386  0.0019  0.0883
   10ALA      N  103   0.952   1.358   2.958  0.2833 -0.3568  0.2222
   10ALA     HN  104   0.860   1.395   2.945  0.1305 -1.1725 -1.2239
   10ALA     CA  105   1.005   1.390   3.087  0.2471  0.3580 -0.1974
   10ALA     HA  106   1.098   1.445   3.085 -1.1456  2.9646  1.3194
   10ALA     CB  107   0.909   1.493   3.158 -0.4477  0.1519  0.5384
   10ALA    HB1  108   0.814   1.447   3.192 -0.2747 -0.7586 -0.1646
   10ALA    HB2  109   0.875   1.568   3.083 -1.8122 -0.7975  0.1583
   10ALA    HB3  110   0.958   1.543   3.244 -0.0925  0.8975 -0.0896
   10ALA      C  111   1.041   1.263   3.178  0.5080  0.0668 -0.2971
   10ALA      O  112   0.983   1.159   3.168  0.1419  0.0277  0.3031
   11GLY      N  113   1.141   1.276   3.263 -0.2078 -0.0619 -0.3422
   11GLY     HN  114   1.194   1.358   3.244 -1.6690  1.8233  2.8013
   11GLY     CA  115   1.189   1.165   3.338 -0.4142 -0.0580  0.6979
   11GLY    HA1  116   1.195   1.075   3.279  0.7813  0.4843 -0.0374
   11GLY    HA2  117   1.131   1.149   3.428 -0.5849  0.1970  0.6362
   11GLY      C  118   1.333   1.204   3.381  1.3212 -0.0714  1.0217
   11GLY    OT1  119   1.418   1.108   3.379  0.1664 -0.1660  0.0078
   11GLY    OT2  120   1.359   1.324   3.411 -0.2707  0.3652  0.4261
   12LIT    LIT  121   0.763   1.664   3.729  0.3725 -0.5775 -0.2509
   13LIT    LIT  122   5.874   5.081   3.392  1.2924 -0.2640 -0.2926
   14LIT    LIT  123   1.335   0.800   2.303  0.1795  0.2770 -0.0752
   15LIT    LIT  124   1.082   3.785   0.202 -0.0297  0.6517 -0.2106
   16LIT    LIT  125   3.649   3.629   1.158  0.7934  0.8078 -0.0941
   17LIT    LIT  126   5.657   5.633   1.615  0.3288  0.1131 -0.5382
   18LIT    LIT  127   2.113   3.559   0.596 -1.4190  0.1371 -0.0133
   19LIT    LIT  128   0.787   1.682   2.384  1.3342  0.0708 -0.3875
   20LIT    LIT  129   1.620   0.990   0.104  0.5844 -0.2646  0.3512
   21LIT    LIT  130   0.307   2.057   3.632 -0.0736  0.2634 -0.2435
   22LIT    LIT  131   0.078   5.811   4.361 -1.2845 -0.7789 -0.5230
   23LIT    LIT  132   4.193   1.232   2.528 -0.4782  0.3781 -0.0464
   24LIT    LIT  133   3.588   3.641   4.015 -0.2996  0.1725 -0.3252
   25LIT    LIT  134   5.406   4.210   1.047 -1.0320  0.4679  0.8204
   26LIT    LIT  135   1.421   3.778   4.107 -0.5169  0.0745  0.4577
   27LIT    LIT  136   3.391   5.213   0.863  0.8786  0.0569  0.8480
   28LIT    LIT  137   3.168   5.707   3.678  0.5123  0.1368 -0.0461
   29LIT    LIT  138   3.795   3.786   4.812  0.9419  0.0202 -0.0033
   30LIT    LIT  139   0.594   3.840   2.765  0.3479  0.8061  0.3893
   31LIT    LIT  140   2.983   4.900   2.666 -0.3967  0.6262 -0.6501
   32LIT    LIT  141   1.862   3.886   2.577  0.7312 -0.1379  0.3207
   33LIT    LIT  142   2.682   2.495   3.736  0.7979 -0.6203  0.6665
   34CLA    CLA  143   4.443   1.580   1.347 -0.1970 -0.3968 -0.2119
   35CLA    CLA  144   3.598   3.687   1.370  0.0621  0.2351  0.1735
   36CLA    CLA  145   0.906   3.385   2.398 -0.2578  0.0570  0.2259
   37CLA    CLA  146   1.964   1.039   1.575  0.0322 -0.1179  0.0543
   38CLA    CLA  147   3.575   5.959   1.203  0.6209  0.2720 -0.0797
   39CLA    CLA  148   1.664   2.222   0.694  0.1412 -0.0729  0.5355
   40CLA    CLA  149   6.277   5.830   0.974 -0.0926  0.2154 -0.3662
   41CLA    CLA  150   5.756   5.969   3.040 -0.0683 -0.1213 -0.0295
   42CLA    CLA  151   3.061   1.373   4.285 -0.0545  0.0732 -0.0969
   43CLA    CLA  152   4.212   1.379   3.007 -0.1985 -0.5020 -0.2224
   44CLA    CLA  153   0.433   5.842   0.076 -0.4412 -0.1631 -0.1286
   45CLA    CLA  154   3.827   4.059   1.067  0.0330  0.0240 -0.1551
   46CLA    CLA  155   4.148   1.047   1.884 -0.2646  0.0782 -0.0891
   47CLA    CLA  156   4.505   3.677   4.936 -0.2576 -0.0800  0.5982
   48CLA    CLA  157   1.248   3.497   3.871 -0.1371 -0.1582 -0.4601
   49CLA    CLA  158   5.221   1.369   0.711 -0.4372  0.3958  0.4673
   50CLA    CLA  159   1.968   3.185   1.693 -0.0077  0.3172 -0.2652
   51CLA    CLA  160   0.375   1.667   0.156  0.1680 -0.0768  0.1495
   52TIP3   OH2  161   4.635   1.703   3.541 -0.4026  0.1186  0.2003
   52TIP3    H1  162   4.616   1.723   3.449  0.1536 -0.5709 -0.0704
   52TIP3    H2  163   4.714   1.753   3.560 -0.4579  0.1766  0.2815
   53TIP3   OH2  164   3.578   2.006   1.828 -0.0475  0.2939 -0.3812
   53TIP3    H1  165   3.528   2.077   1.869  0.8135 -0.0091  1.2756
   53TIP3    H2  166   3.585   2.032   1.736 -0.6334  1.8442 -0.0213
   54TIP3   OH2  167   4.780   4.853   4.522  0.9024  0.8387  0.0004
   54TIP3    H1  168   4.808   4.768   4.490 -1.8758  0.0820 -0.6496
   54TIP3    H2  169   4.726   4.834   4.598  1.9992  2.2113  1.1891
   55TIP3   OH2  170   5.480   0.871   0.282  0.1641  0.2649 -0.3473
   55TIP3    H1  171   5.492   0.871   0.187 -0.4568 -2.2988 -0.4983
   55TIP3    H2  172   5.555   0.823   0.316  0.4724  1.3114  0.5065
   56TIP3   OH2  173   1.761   5.519   1.738 -0.0892  0.2520 -0.5621
   56TIP3    H1  174   1.826   5.462   1.696 -1.3430 -0.8479 -1.1069
   56TIP3    H2  175   1.728   5.575   1.668 -2.4501 -1.8354 -1.2731
   57TIP3   OH2  176   5.588   1.910   3.952  0.4056 -0.4379  0.1965
   57TIP3    H1  177   5.525   1.940   3.886  0.6071  0.3716  0.3583
   57TIP3    H2  178   5.673   1.930   3.914  0.5147  1.1232  1.1730
   58TIP3   OH2  179   3.228   1.300   3.586 -0.1992 -0.0700 -1.0953
   58TIP3    H1  180   3.173   1.377   3.574  0.6417  0.6963 -0.2043
   58TIP3    H2  181   3.302   1.314   3.526  0.4852  0.3502 -0.1722
   59TIP3   OH2  182   3.616   2.319   3.385 -0.7654  0.1033  0.4425
   59TIP3    H1  183   3.682   2.372   3.342 -0.4585  0.0620  0.8515
   59TIP3    H2  184   3.549   2.304   3.318 -0.7227  0.7656  0.2441
   60TIP3   OH2  185   4.729   1.786   1.866 -0.0207 -0.1459 -0.1089
   60TIP3    H1  186   4.662   1.814   1.804 -0.6170  0.5220  0.8037
   60TIP3    H2  187   4.689   1.716   1.916 -0.0667  0.2691  0.4548
   61TIP3   OH2  188   3.682   1.337   2.460 -0.6249 -0.0639 -0.0506
   61TIP3    H1  189   3.744   1.265   2.469  0.0528  0.6214  0.9859
   61TIP3    H2  190   3.609   1.300   2.410  0.9893 -0.6489 -2.0943
   62TIP3   OH2  191   4.011   3.201   2.960 -0.0119 -0.2787 -0.2089
   62TIP3    H1  192   4.085   3.233   2.909  1.0475  1.7096  2.3493
   62TIP3    H2  193   4.048   3.132   3.016 -0.4694 -0.4592 -0.1241
   63TIP3   OH2  194   4.835   4.522   1.866  0.3757  0.5727  0.4906
   63TIP3    H1  195   4.790   4.508   1.949 -0.3248  0.4081  0.0992
   63TIP3    H2  196   4.823   4.615   1.848  1.5028  0.8522  1.1113
   64TIP3   OH2  197   5.657   4.002   3.329 -0.4473  0.2117 -0.2853
   64TIP3    H1  198   5.686   4.003   3.420 -1.0061  1.4578 -0.0994
   64TIP3    H2  199   5.665   3.911   3.302  0.2010 -0.0852  0.8553
   65TIP3   OH2  200   3.871   2.409   2.284 -0.2018 -0.0085  0.0521
   65TIP3    H1  201   3.962   2.404   2.255 -0.3614 -0.3360 -0.4095
   65TIP3    H2  202   3.836   2.322   2.267 -0.0038 -0.5778  2.3073
   66TIP3   OH2  203   4.534   4.170   4.259 -0.0645 -0.7077 -0.6232
   66TIP3    H1  204   4.474   4.237   4.225 -0.1416  0.2722  1.3039
   66TIP3    H2  205   4.606   4.219   4.298  0.0022 -1.7236  0.6202
   67TIP3   OH2  206   1.119   1.338   0.935  0.0981 -0.3925  0.2112
   67TIP3    H1  207   1.081   1.268   0.989  0.2377 -0.3436  0.3736
   67TIP3    H2  208   1.048   1.401   0.925 -0.1200 -0.6968 -0.1821
   68TIP3   OH2  209   3.708   0.045   0.029  0.1247 -0.0225  0.6037
   68TIP3    H1  210   3.630   0.045   0.084  0.0819 -0.9380  0.5618
   68TIP3    H2  211   3.721   0.137   0.005 -0.0217  0.3522  1.9024
   69TIP3   OH2  212   1.641   1.149   2.043 -0.2078 -0.3715  0.0385
   69TIP3    H1  213   1.635   1.055   2.060  0.4197  0.0466  2.9716
   69TIP3    H2  214   1.732   1.170   2.060 -0.7124  1.0426  1.1495
   70TIP3   OH2  215   4.692   0.919   2.733  0.7375  0.2012 -0.0283
   70TIP3    H1  216   4.732   0.926   2.646  1.8491  0.4600  0.4779
   70TIP3    H2  217   4.743   0.980   2.788  0.9357 -0.9228  1.0997
   71TIP3   OH2  218   5.437   5.827   4.033  0.4545  0.1929  0.3709
   71TIP3    H1  219   5.448   5.838   3.939 -0.2107 -0.0434  0.2639
   71TIP3    H2  220   5.517   5.864   4.071  0.2817  1.2059 -0.2238
   72TIP3   OH2  221   4.062   1.494   0.027 -0.2394 -0.1576 -0.4316
   72TIP3    H1  222   4.091   1.546   0.103 -2.2048 -0.6368  0.7252
   72TIP3    H2  223   4.018   1.418   0.066 -0.7825 -0.7121 -2.0605
   73TIP3   OH2  224   4.366   3.260   2.099 -0.1272 -0.1714  0.8451
   73TIP3    H1  225   4.408   3.321   2.038  0.8175 -1.3736  0.2470
   73TIP3    H2  226   4.371   3.304   2.184 -1.7838  1.6915  0.0483
   74TIP3   OH2  227   1.981   1.978   0.544  0.2821  0.0958 -0.3094
   74TIP3    H1  228   1.945   2.005   0.460 -0.7669 -0.9103 -0.2114
   74TIP3    H2  229   1.905   1.951   0.595  0.8644  1.0357  1.1106
   75TIP3   OH2  230   1.043   0.113   3.027 -0.0191  0.6452  0.3320
   75TIP3    H1  231   1.088   0.153   2.953 -0.3587  1.9171  0.7818
   75TIP3    H2  232   0.951   0.113   3.002  0.0921 -1.1570 -0.2279
   76TIP3   OH2  233   3.001   1.521   2.828  0.4335 -0.1922  0.2873
   76TIP3    H1  234   3.020   1.478   2.745 -0.6211  0.7246 -0.4753
   76TIP3    H2  235   2.916   1.563   2.813  0.5315  0.5228  1.6192
   77TIP3   OH2  236   0.600   5.481   1.724 -0.2620 -0.2036 -0.1133
   77TIP3    H1  237   0.508   5.494   1.745 -0.4044 -1.0232 -0.2044
   77TIP3    H2  238   0.642   5.459   1.807  0.0530  1.1442  0.1114
   78TIP3   OH2  239   0.017   2.336   2.535 -0.2378  0.0321 -0.3176
   78TIP3    H1  240   0.089   2.286   2.497 -0.1825  0.0483 -0.2348
   78TIP3    H2  241  -0.037   2.361   2.460 -1.4717 -1.9905 -0.1722
   79TIP3   OH2  242   3.936   4.246   4.406  0.6607  0.5289  0.1118
   79TIP3    H1  243   4.009   4.306   4.396  1.0893  0.2598  1.5141
   79TIP3    H2  244   3.961   4.188   4.478 -1.3205  1.0630  1.3187
   80TIP3   OH2  245   5.214   1.166   0.462  0.2253 -0.0844  0.0977
   80TIP3    H1  246   5.255   1.250   0.439  0.8444 -0.2802  0.4743
   80TIP3    H2  247   5.130   1.191   0.500 -0.3105  0.2978 -1.2471
   81TIP3   OH2  248   3.057   1.697   0.781  0.3094  0.0543 -0.6938
   81TIP3    H1  249   3.101   1.764   0.833  1.6613  1.2783 -3.2007
   81TIP3    H2  250   3.074   1.615   0.826  0.2003  1.1621  1.4776
   82TIP3   OH2  251   0.449   4.731   4.009  0.0209 -0.0043  0.1817
   82TIP3    H1  252   0.354   4.730   3.999  0.0723  0.0317 -0.3295
   82TIP3    H2  253   0.482   4.690   3.929  0.4507  0.3384  0.1826
   83TIP3   OH2  254   5.679   3.882   0.183  0.5774 -0.4674 -0.1324
   83TIP3    H1  255   5.604   3.928   0.220  0.1222 -1.1067 -0.2331
   83TIP3    H2  256   5.706   3.936   0.109 -1.2913 -1.3829 -1.5961
   84TIP3   OH2  257   0.214   5.761   3.590 -0.0480  0.1670  0.0252
   84TIP3    H1  258   0.308   5.776   3.592 -0.2065  1.1449  1.5227
   84TIP3    H2  259   0.177   5.831   3.644 -1.7386  0.4499 -1.3977
   85TIP3   OH2  260   0.980   4.865   3.964  0.3895  0.1787  0.2319
   85TIP3    H1  261   0.957   4.873   4.056  2.5205  2.7379  0.6486
   85TIP3    H2  262   0.964   4.952   3.927 -1.9565 -1.1438 -2.3116
   86TIP3   OH2  263   5.158   0.563   2.751  0.3096 -0.2609 -0.4662
   86TIP3    H1  264   5.218   0.617   2.700  1.3337  0.0030  0.9395
   86TIP3    H2  265   5.071   0.588   2.721  0.8793 -0.6469 -2.5589
   87TIP3   OH2  266   4.521   4.864   0.532  0.1565 -0.1175 -0.1145
   87TIP3    H1  267   4.587   4.932   0.549  0.6058 -1.2654  3.4831
   87TIP3    H2  268   4.456   4.907   0.476  1.4733  2.6223  0.3166
   88TIP3   OH2  269   4.184   3.632   4.784  0.9709 -0.7542  0.2049
   88TIP3    H1  270   4.175   3.685   4.863 -1.1518 -0.5939 -0.0939
   88TIP3    H2  271   4.236   3.686   4.725  1.0857 -0.1236  0.8634
   89TIP3   OH2  272   0.487   4.550   2.837  0.2585 -0.1157 -0.0699
   89TIP3    H1  273   0.448   4.632   2.807 -0.8879  1.2572  4.4015
   89TIP3    H2  274   0.579   4.572   2.853  0.0737  0.2119  0.6090
   90TIP3   OH2  275   5.746   3.335   3.409  0.3648 -0.1034  0.0115
   90TIP3    H1  276   5.814   3.299   3.353 -0.1007  1.3969 -1.6283
   90TIP3    H2  277   5.782   3.418   3.440 -1.1501  1.4623 -2.0902
   91TIP3   OH2  278   4.628   4.266   0.522  0.6647 -1.6445 -0.0760
   91TIP3    H1  279   4.700   4.303   0.573  0.7220 -1.3408 -0.3789
   91TIP3    H2  280   4.610   4.331   0.455 -0.7374 -1.1171  0.7599
   92TIP3   OH2  281   5.002   2.810   3.351 -0.3552 -0.6204 -0.7199
   92TIP3    H1  282   4.959   2.776   3.429 -0.0383 -2.3763 -1.2851
   92TIP3    H2  283   4.932   2.856   3.304 -0.5633  0.3853  0.5187
   93TIP3   OH2  284   5.346   3.962   3.648  0.1364 -0.2414  0.0452
   93TIP3    H1  285   5.415   3.914   3.694 -0.2538 -0.1105  0.7951
   93TIP3    H2  286   5.302   3.896   3.595  0.6960 -0.3686 -0.2638
   94TIP3   OH2  287   3.604   5.770   0.663  0.5103 -0.0328 -0.9243
   94TIP3    H1  288   3.545   5.845   0.656  2.4064  1.4941 -1.3117
   94TIP3    H2  289   3.643   5.778   0.750  0.7341 -0.5823 -0.9716
   95TIP3   OH2  290   2.179   2.847   0.385 -0.3420  0.2209  0.6213
   95TIP3    H1  291   2.252   2.904   0.410 -0.9645  0.7572  1.2400
   95TIP3    H2  292   2.171   2.784   0.457  1.1945 -1.5563 -0.6412
   96TIP3   OH2  293   0.371   4.025   3.346  0.0740 -0.4533  0.0019
   96TIP3    H1  294   0.427   3.988   3.278  1.5918  0.5291  0.6481
   96TIP3    H2  295   0.342   3.949   3.397  0.5637 -1.0266 -0.5511
   97TIP3   OH2  296   4.018   1.309   2.581 -0.1502 -0.2652  0.3228
   97TIP3    H1  297   3.991   1.394   2.616 -2.0981 -1.3339  1.6062
   97TIP3    H2  298   3.937   1.258   2.577  0.7783 -1.7209 -1.4997
   98TIP3   OH2  299   0.269   3.096   0.052  0.0731 -0.4469 -0.5906
   98TIP3    H1  300   0.283   3.016   0.102 -0.2753 -0.4123 -0.4313
   98TIP3    H2  301   0.262   3.068  -0.039  0.1924 -0.5692 -0.5613
   99TIP3   OH2  302   1.470   3.108   1.080 -0.5092 -0.0045  0.5180
   99TIP3    H1  303   1.417   3.028   1.081 -1.8114  0.8324  1.0863
   99TIP3    H2  304   1.429   3.164   1.146 -0.3503  1.5990 -0.7042
  100TIP3   OH2  305   0.906   5.059   1.604 -0.0176  0.2395  0.0547
  100TIP3    H1  306   0.858   5.136   1.633  0.4016  1.0996 -1.4476
  100TIP3    H2  307   0.889   5.054   1.510  0.9528 -0.7922 -0.0878
  101TIP3   OH2  308   0.831   3.966   4.467 -0.0264 -0.0955 -0.4066
  101TIP3    H1  309   0.877   3.891   4.504 -1.1248 -1.1873 -1.1795
  101TIP3    H2  310   0.897   4.010   4.414  1.2166  0.7430  1.6928
  102TIP3   OH2  311   4.078   2.240   0.679  0.0381  0.3518 -0.3198
  102TIP3    H1  312   4.168   2.224   0.706  0.2877  0.4358 -1.0896
  102TIP3    H2  313   4.036   2.275   0.757 -0.0041 -2.0475  0.8480
  103TIP3   OH2  314   1.626   5.385   5.073  0.3508  0.1732 -0.1332
  103TIP3    H1  315   1.664   5.452   5.129 -0.2070  2.0167 -1.8460
  103TIP3    H2  316   1.699   5.352   5.022  0.1369  2.1535 -1.8628
  104TIP3   OH2  317   0.520   3.612   0.347  0.4630 -0.4063 -0.6604
  104TIP3    H1  318   0.553   3.661   0.422  0.6338 -2.1366  0.4479
  104TIP3    H2  319   0.545   3.664   0.271  0.9003  1.0396  0.4398
  105TIP3   OH2  320   2.009   5.103   0.392  0.3197 -0.1365 -0.1224
  105TIP3    H1  321   2.001   5.137   0.481  1.8287  0.7785 -0.3082
  105TIP3    H2  322   2.101   5.079   0.383  0.1491 -0.3989 -1.3764
  106TIP3   OH2  323   1.209   2.497   3.984  0.0314 -0.2114  0.2474
  106TIP3    H1  324   1.279   2.541   4.031 -0.4238  1.2893 -0.4058
  106TIP3    H2  325   1.151   2.568   3.955  0.1432 -1.0544 -2.3093
  107TIP3   OH2  326   4.052   1.650   3.109  0.4695  0.0738 -0.7287
  107TIP3    H1  327   4.028   1.617   3.196  1.5567  1.5728  0.1700
  107TIP3    H2  328   4.105   1.580   3.071  1.4218  0.0853  0.5183
  108TIP3   OH2  329   5.674   2.899   2.907  0.1142 -0.4251  0.0136
  108TIP3    H1  330   5.709   2.811   2.893  1.2425 -0.1586  0.9776
  108TIP3    H2  331   5.621   2.891   2.986 -0.2099 -0.3506 -0.1966
  109TIP3   OH2  332   3.643   4.437   1.679  0.1946 -0.3377 -0.2335
  109TIP3    H1  333   3.657   4.450   1.773 -1.3383 -2.9468  0.4665
  109TIP3    H2  334   3.564   4.488   1.659  1.8551  2.2038 -0.7619
  110TIP3   OH2  335   4.326   5.409   4.181 -0.1984  0.0224 -0.0954
  110TIP3    H1  336   4.276   5.485   4.150  0.1899  0.0400 -0.6896
  110TIP3    H2  337   4.410   5.445   4.208 -0.3610 -0.0625  0.5564
  111TIP3   OH2  338   1.246   1.309   5.099  0.2705 -0.2467  0.3224
  111TIP3    H1  339   1.208   1.395   5.116 -0.2823 -0.6214  1.0639
  111TIP3    H2  340   1.184   1.247   5.138  0.9135 -0.9533  0.2562
  112TIP3   OH2  341   1.419   5.062   2.185 -0.4420  0.3462  0.0562
  112TIP3    H1  342   1.511   5.083   2.168 -0.0570 -0.5790  0.9103
  112TIP3    H2  343   1.371   5.113   2.120  0.7538 -0.4795 -1.5376
  113TIP3   OH2  344   2.469   4.323   0.219 -0.3607 -0.2303 -0.1138
  113TIP3    H1  345   2.433   4.385   0.282 -0.6159  0.2131 -0.6893
  113TIP3    H2  346   2.560   4.312   0.246 -0.3848  0.1931  0.1512
  114TIP3   OH2  347   5.052   4.087   0.546 -0.4494 -1.0394 -0.2827
  114TIP3    H1  348   5.105   4.134   0.481  1.1852 -0.0680  1.6165
  114TIP3    H2  349   5.114   4.028   0.589 -1.6234 -2.1031  0.0056
  115TIP3   OH2  350   1.267   4.782   0.082 -0.0596  0.0576  0.0531
  115TIP3    H1  351   1.321   4.858   0.103 -1.2336  0.7706  0.5568
  115TIP3    H2  352   1.275   4.725   0.159 -1.0636  0.7789  0.7160
  116TIP3   OH2  353   5.487   0.081   4.324  0.6101 -0.1292  0.3329
  116TIP3    H1  354   5.426   0.031   4.377  0.2404  0.0353  0.0647
  116TIP3    H2  355   5.432   0.138   4.270  0.9088 -0.9959 -0.9437
  117TIP3   OH2  356   0.395   3.666   2.538  0.2315  0.1829  0.2662
  117TIP3    H1  357   0.325   3.727   2.517  1.3192  1.3150 -0.2058
  117TIP3    H2  358   0.476   3.712   2.514  1.0528 -1.9105 -1.4260
  118TIP3   OH2  359   3.765   4.601   3.989 -0.1031 -0.1170  0.2916
  118TIP3    H1  360   3.820   4.585   3.912  0.8462 -3.0458  1.4381
  118TIP3    H2  361   3.685   4.641   3.954  0.0752 -1.8335 -2.3117
  119TIP3   OH2  362   5.577   0.967   1.409 -0.0285  0.0697  0.5137
  119TIP3    H1  363   5.529   1.018   1.475 -0.0200  1.7175 -0.6910
  119TIP3    H2  364   5.525   0.978   1.329  0.9139 -0.3887 -0.1678
  120TIP3   OH2  365   1.358   2.230   4.754 -0.3590  0.4134  0.1439
  120TIP3    H1  366   1.309   2.170   4.699 -2.0303  0.5548  1.3851
  120TIP3    H2  367   1.448   2.198   4.752 -0.5842 -0.1830 -1.7812
  121TIP3   OH2  368   1.620   1.758   1.492  0.3026 -0.5915  0.3888
  121TIP3    H1  369   1.542   1.801   1.457  0.6358 -1.5995 -1.7322
  121TIP3    H2  370   1.591   1.719   1.574 -0.7977  0.9553  0.7893
  122TIP3   OH2  371   2.288   2.035   2.032 -0.2735  0.3367 -0.1806
  122TIP3    H1  372   2.244   2.112   1.996 -1.0020  0.0306  0.0449
  122TIP3    H2  373   2.218   1.971   2.045  0.2283 -0.1332  0.2470
  123TIP3   OH2  374   4.147   0.476   5.008  0.0492 -0.9197 -0.1523
  123TIP3    H1  375   4.066   0.499   4.962 -0.2202  0.6542  1.0012
  123TIP3    H2  376   4.144   0.530   5.087  1.7521 -1.5966  0.3931
  124TIP3   OH2  377   4.582   2.341   5.129  0.0285 -0.2440  0.1543
  124TIP3    H1  378   4.567   2.309   5.218  0.4336  1.9289  1.0816
  124TIP3    H2  379   4.504   2.392   5.108  0.9325  1.2518  0.2660
  125TIP3   OH2  380   4.643   2.578   0.917 -0.1058 -0.4050  0.0947
  125TIP3    H1  381   4.652   2.618   0.831 -0.8525 -1.3132 -0.4173
  125TIP3    H2  382   4.551   2.590   0.941 -0.3115 -1.6294  0.0008
  126TIP3   OH2  383   2.757   5.146   4.865 -0.2574 -0.2437 -0.5268
  126TIP3    H1  384   2.836   5.112   4.823 -0.3399 -0.4254 -0.5369
  126TIP3    H2  385   2.692   5.148   4.795 -0.0643  0.5987 -0.6969
  127TIP3   OH2  386   4.456   3.907   2.517 -0.2537 -0.7610  0.7945
  127TIP3    H1  387   4.412   3.923   2.434  1.1564  0.8783  0.2956
  127TIP3    H2  388   4.386   3.911   2.583 -1.2742 -1.3305 -0.2324
  128TIP3   OH2  389   4.432   0.540   1.657  0.1693  0.1228 -0.0346
  128TIP3    H1  390   4.348   0.536   1.703  0.1754 -0.8908 -0.0911
  128TIP3    H2  391   4.483   0.605   1.706 -0.1661 -0.2391  0.8053
  129TIP3   OH2  392   5.676   2.120   0.248 -0.8973 -0.3918 -0.0538
  129TIP3    H1  393   5.705   2.162   0.329 -0.2788  2.4565 -1.6261
  129TIP3    H2  394   5.748   2.062   0.224  0.2615  0.9798 -0.0426
  130TIP3   OH2  395   0.195   5.763   2.671 -0.0731 -0.8999  0.4317
  130TIP3    H1  396   0.171   5.671   2.655  1.2278 -1.1340 -0.2967
  130TIP3    H2  397   0.162   5.810   2.595  0.3066 -0.9559  0.2317
  131TIP3   OH2  398   0.374   1.917   3.750  0.2677 -0.0876  0.2474
  131TIP3    H1  399   0.398   1.835   3.708 -0.2958 -0.4930  0.6975
  131TIP3    H2  400   0.393   1.903   3.843  0.1919  0.2956  0.3220
  132TIP3   OH2  401   1.407   3.085   2.711  0.3392  0.1141 -0.4317
  132TIP3    H1  402   1.461   3.010   2.737  0.1115  0.2140  0.3576
  132TIP3    H2  403   1.339   3.047   2.654  1.1285 -0.0341 -1.2980
  133TIP3   OH2  404   3.191   5.954   1.992  0.1182  0.3060  0.3281
  133TIP3    H1  405   3.171   5.992   2.078  0.3212  0.5443  0.2697
  133TIP3    H2  406   3.130   5.997   1.932 -0.7154 -0.5735  0.4998
  134TIP3   OH2  407   4.179   3.104   4.421 -0.5586 -0.0152  0.5217
  134TIP3    H1  408   4.228   3.173   4.466  0.7993  1.3264 -2.6371
  134TIP3    H2  409   4.234   3.026   4.429  1.4070  1.0306 -1.4336
  135TIP3   OH2  410   2.764   2.456   3.271 -0.0287 -0.0173  0.3506
  135TIP3    H1  411   2.848   2.411   3.277  0.2748  0.2832 -1.2013
  135TIP3    H2  412   2.709   2.398   3.219 -1.3976 -1.0132  2.7333
  136TIP3   OH2  413   5.776   0.589   2.189  0.0730 -0.2916 -0.9251
  136TIP3    H1  414   5.758   0.682   2.176 -1.2427 -0.3612  0.1426
  136TIP3    H2  415   5.715   0.545   2.129  0.7958 -0.4818 -1.5388
  137TIP3   OH2  416   3.716   0.870   0.248  0.3384 -0.0859  0.1697
  137TIP3    H1  417   3.768   0.850   0.170 -0.9668 -0.4757 -0.6477
  137TIP3    H2  418   3.778   0.908   0.310  1.7141 -1.1696 -0.4919
  138TIP3   OH2  419   2.188   2.874   4.386 -1.0931  0.0422 -0.5160
  138TIP3    H1  420   2.108   2.856   4.336 -0.4023  0.6384 -1.8852
  138TIP3    H2  421   2.234   2.791   4.390 -2.4326 -0.6913  1.5988
  139TIP3   OH2  422   2.875   0.984   5.173 -0.5441 -0.1229  0.5128
  139TIP3    H1  423   2.852   0.921   5.105 -1.1660  1.0520 -0.4245
  139TIP3    H2  424   2.845   1.068   5.138  1.1199  0.8472  1.2798
  140TIP3   OH2  425   3.094   0.043   4.107 -0.5901 -0.4926 -0.0813
  140TIP3    H1  426   3.157   0.012   4.172 -2.3819 -0.1925  1.9243
  140TIP3    H2  427   3.035  -0.031   4.094 -0.4300 -0.4413 -1.1516
  141TIP3   OH2  428   5.863   3.131   2.055  0.0338 -0.0493 -0.7836
  141TIP3    H1  429   5.893   3.209   2.009  1.7732  0.7364  1.4839
  141TIP3    H2  430   5.943   3.079   2.068 -0.3103 -0.1210  1.4548
  142TIP3   OH2  431   2.825   4.116   1.860  0.6449  0.3142  0.1588
  142TIP3    H1  432   2.815   4.046   1.925 -0.1491 -0.4683 -0.7684
  142TIP3    H2  433   2.789   4.194   1.902 -1.4672 -0.5559  0.0716
  143TIP3   OH2  434   5.296   0.098   4.830 -0.2774 -0.2524  0.3355
  143TIP3    H1  435   5.354   0.097   4.906  1.0134 -2.0384 -0.6076
  143TIP3    H2  436   5.345   0.053   4.761 -1.8488  0.3116 -1.2416
  144TIP3   OH2  437   0.919   0.925   4.706 -0.2819 -0.3790  0.3297
  144TIP3    H1  438   0.957   0.966   4.784 -1.5186 -0.7678  1.1686
  144TIP3    H2  439   0.893   0.838   4.736  2.4786 -1.9655 -1.4600
  145TIP3   OH2  440   3.283   4.688   4.709  0.5911 -0.0302 -0.0537
  145TIP3    H1  441   3.266   4.648   4.795  1.1587 -1.8265 -0.7245
  145TIP3    H2  442   3.336   4.765   4.728  0.6727 -0.3775  1.2038
  146TIP3   OH2  443   1.700   1.798   3.979 -0.4000 -0.0654 -0.2933
  146TIP3    H1  444   1.770   1.863   3.988 -1.3064  0.8164  0.6563
  146TIP3    H2  445   1.745   1.717   3.954  1.0695  0.2285  1.2454
  147TIP3   OH2  446   2.517   5.567   3.866 -0.4562  0.2110 -0.1080
  147TIP3    H1  447   2.435   5.563   3.817 -0.9280 -0.5533  0.7046
  147TIP3    H2  448   2.494   5.610   3.948 -0.2111 -0.6264  0.4164
  148TIP3   OH2  449   3.065   2.368   2.678 -0.5126 -0.3916 -0.2163
  148TIP3    H1  450   3.155   2.345   2.652 -0.4068 -1.0105  0.6535
  148TIP3    H2  451   3.075   2.447   2.732 -0.0930 -2.1628  2.4987
  149TIP3   OH2  452   6.321   1.555   0.122 -0.0718  0.5135  0.8594
  149TIP3    H1  453   6.265   1.478   0.132  1.1936 -0.8430 -1.4184
  149TIP3    H2  454   6.279   1.606   0.053  0.8018  0.0940 -0.0146
  150TIP3   OH2  455   5.260   2.244   4.772 -0.1495  0.3636  0.2310
  150TIP3    H1  456   5.209   2.167   4.798  1.8386 -0.8068  0.8695
  150TIP3    H2  457   5.298   2.221   4.688  0.8965  0.4098  0.6771
  151TIP3   OH2  458   2.256   0.557   1.460  0.3169  0.2877  0.1466
  151TIP3    H1  459   2.297   0.642   1.442 -1.2275  0.9009 -0.6978
  151TIP3    H2  460   2.164   0.578   1.474 -0.4311 -1.3924 -1.7374
  152TIP3   OH2  461   2.526   2.663   1.527 -0.2341  0.0437 -0.1609
  152TIP3    H1  462   2.505   2.706   1.444  2.0272  1.1656 -0.2151
  152TIP3    H2  463   2.563   2.578   1.502 -1.3059 -0.4450 -0.1784
  153TIP3   OH2  464   3.898   1.411   3.915 -0.2138 -0.1129 -0.1040
  153TIP3    H1  465   3.925   1.320   3.911 -2.3464 -0.7537 -2.0870
  153TIP3    H2  466   3.819   1.410   3.969 -0.1329  0.6076  0.0370
  154TIP3   OH2  467   3.975   5.530   0.803  0.2854  0.3845 -0.4172
  154TIP3    H1  468   4.062   5.506   0.770 -0.6618 -0.6723 -2.2745
  154TIP3    H2  469   3.969   5.624   0.788  1.5947  0.7564  1.0287
  155TIP3   OH2  470   2.006   2.503   3.444 -0.3498 -0.0862  0.3053
  155TIP3    H1  471   1.929   2.502   3.388  0.6737 -1.4708 -1.1537
  155TIP3    H2  472   2.080   2.501   3.383  0.8106 -2.1774  1.6577
  156TIP3   OH2  473   4.460   0.606   1.377  0.4520 -0.5001 -0.4189
  156TIP3    H1  474   4.551   0.629   1.395 -0.4450  2.7589  0.6917
  156TIP3    H2  475   4.421   0.592   1.463 -0.4818 -0.0360 -0.7513
  157TIP3   OH2  476   2.635   0.125   2.769 -0.0408 -0.3281  0.1354
  157TIP3    H1  477   2.650   0.039   2.808  0.1696 -0.0715  0.6291
  157TIP3    H2  478   2.604   0.106   2.680  0.0714 -0.9090  0.2165
  158TIP3   OH2  479   6.361   2.444   0.330 -0.6449 -0.1109  0.1017
  158TIP3    H1  480   6.306   2.388   0.276 -3.5238  0.5948  2.0440
  158TIP3    H2  481   6.372   2.395   0.412  1.7548 -0.2283 -0.2214
  159TIP3   OH2  482   0.639   3.804   4.051 -0.9120  0.0470 -0.1622
  159TIP3    H1  483   0.582   3.730   4.069 -1.2370  0.4215  0.3925
  159TIP3    H2  484   0.633   3.859   4.130  2.8228 -1.5141  1.4694
  160TIP3   OH2  485   5.523   3.118   4.754 -0.1440  0.2582  0.2886
  160TIP3    H1  486   5.483   3.097   4.839 -1.1605  0.8469 -0.0396
  160TIP3    H2  487   5.584   3.045   4.739 -0.5995 -0.3145  1.1007
  161TIP3   OH2  488   6.110   2.704   2.265  0.5616  0.5255 -0.0765
  161TIP3    H1  489   6.093   2.640   2.196 -0.4869 -0.0432  0.6753
  161TIP3    H2  490   6.023   2.740   2.286  0.8993  0.8760  0.7680
  162TIP3   OH2  491   5.866   4.655   1.347  0.1549  0.2926  0.6407
  162TIP3    H1  492   5.904   4.581   1.300  0.5178  0.5456  0.5319
  162TIP3    H2  493   5.918   4.662   1.427 -1.2073 -0.8778  1.6604
  163TIP3   OH2  494   1.299   5.204   1.371  0.1768 -0.0730 -0.3607
  163TIP3    H1  495   1.258   5.129   1.327 -0.3237 -0.1007  0.1427
  163TIP3    H2  496   1.389   5.175   1.388  0.7811  0.3774 -2.4284
  164TIP3   OH2  497   3.599   1.740   1.748  0.2452 -0.0192  0.5107
  164TIP3    H1  498   3.692   1.722   1.765  1.2032  2.4839 -1.4305
  164TIP3    H2  499   3.587   1.830   1.777 -1.2160  0.1556 -0.5556
  165TIP3   OH2  500   4.027   2.058   4.362  0.2237 -0.2788 -0.2084
  165TIP3    H1  501   3.980   2.104   4.293  0.4372  0.9436  0.4229
  165TIP3    H2  502   4.119   2.078   4.345  0.1859  2.3184  1.8610
  166TIP3   OH2  503   1.352   1.672   4.820  0.2554 -1.0035  0.2250
  166TIP3    H1  504   1.315   1.704   4.902  0.8606  1.6276 -0.4320
  166TIP3    H2  505   1.278   1.674   4.758  0.3715 -0.4770  0.0980
  167TIP3   OH2  506   1.133   1.849   3.619 -0.4534 -0.2544  0.6480
  167TIP3    H1  507   1.080   1.925   3.646 -0.5286 -0.2403  0.4601
  167TIP3    H2  508   1.219   1.887   3.599 -0.9631  0.0551 -1.1283
  168TIP3   OH2  509   0.235   4.305   4.523  0.1534 -0.0585 -0.2483
  168TIP3    H1  510   0.181   4.336   4.596 -1.8858 -0.7898 -1.3462
  168TIP3    H2  511   0.299   4.247   4.563  0.6500  1.4410  1.2056
  169TIP3   OH2  512   5.714   3.812   2.004 -0.0180 -0.0749 -0.2714
  169TIP3    H1  513   5.753   3.885   1.956 -1.0217  0.3382 -0.4769
  169TIP3    H2  514   5.659   3.853   2.070  1.9123 -0.6129  1.7891
  170TIP3   OH2  515   3.527   3.718   3.185 -0.5765 -0.2580  0.1491
  170TIP3    H1  516   3.538   3.637   3.135 -0.1700 -0.1969  0.1375
  170TIP3    H2  517   3.603   3.721   3.243 -0.9422 -0.2304  0.6373
  171TIP3   OH2  518   6.183   0.151   1.358 -0.0527 -0.1441 -0.0674
  171TIP3    H1  519   6.111   0.180   1.413  0.5981 -0.1632  0.8054
  171TIP3    H2  520   6.224   0.232   1.327  0.8184 -0.1071  1.1265
  172TIP3   OH2  521   1.766   5.454   0.213 -0.1204  0.1215 -0.1258
  172TIP3    H1  522   1.696   5.495   0.264 -0.7009 -2.4819  1.3333
  172TIP3    H2  523   1.726   5.375   0.176  1.6346 -0.6262 -0.5150
  173TIP3   OH2  524   2.207   4.993   0.630  1.2241 -0.0897  0.1938
  173TIP3    H1  525   2.236   5.083   0.618 -0.3923  0.3909 -0.3157
  173TIP3    H2  526   2.179   4.964   0.544  0.8694 -0.7696  0.5249
  174TIP3   OH2  527   1.711   0.889   4.127  0.0477 -0.4637 -0.0693
  174TIP3    H1  528   1.631   0.840   4.110 -0.4144 -0.0238  0.8275
  174TIP3    H2  529   1.703   0.969   4.076 -1.3320  0.8471  2.0501
  175TIP3   OH2  530   0.966   4.745   2.505 -0.7505  0.2520 -0.2686
  175TIP3    H1  531   0.971   4.660   2.462 -1.9021 -0.7294  1.4050
  175TIP3    H2  532   0.946   4.807   2.434  1.2875 -0.6205 -1.7106
  176TIP3   OH2  533   1.341   1.918   3.161  0.0923 -0.4702  0.0013
  176TIP3    H1  534   1.395   1.847   3.124 -0.1444 -0.9441  0.5545
  176TIP3    H2  535   1.255   1.905   3.122  0.4524  0.5179 -1.1815
  177TIP3   OH2  536   3.322   0.681   2.026  0.2257  0.1947 -0.0798
  177TIP3    H1  537   3.343   0.697   1.934  0.6938  0.7794  0.1215
  177TIP3    H2  538   3.246   0.738   2.042 -0.3960 -0.5467 -0.3214
  178TIP3   OH2  539   6.116   0.508   1.928  0.2187 -0.3051  0.3086
  178TIP3    H1  540   6.032   0.514   1.883  1.0617  0.1194 -1.2958
  178TIP3    H2  541   6.163   0.588   1.903  1.4019 -0.9056  0.5212
  179TIP3   OH2  542   2.418   3.245   0.929  0.1880 -0.4577 -0.1009
  179TIP3    H1  543   2.340   3.270   0.979  0.4654  0.6514 -0.1936
  179TIP3    H2  544   2.394   3.163   0.886 -0.7692 -0.3546  0.2144
  180TIP3   OH2  545   5.801   4.958   0.875 -0.2867 -0.4781 -0.3482
  180TIP3    H1  546   5.761   4.874   0.850 -0.6194 -0.4780  0.1880
  180TIP3    H2  547   5.735   5.002   0.927  0.6517 -0.7824  1.1549
  181TIP3   OH2  548   4.897   1.251   2.535 -0.2615  0.3461  0.5368
  181TIP3    H1  549   4.958   1.190   2.494  1.2357  2.4522 -0.5341
  181TIP3    H2  550   4.903   1.233   2.629  0.1546 -1.0842  0.2543
  182TIP3   OH2  551   6.330   4.632   3.603  0.1751 -0.0195 -0.1259
  182TIP3    H1  552   6.407   4.633   3.660 -0.4016 -0.1683  0.6638
  182TIP3    H2  553   6.256   4.636   3.662 -0.4273  1.6536 -0.9394
  183TIP3   OH2  554   5.230   0.633   4.990  0.0214 -0.8196 -0.6782
  183TIP3    H1  555   5.151   0.589   4.960  0.0090 -1.4983  0.3072
  183TIP3    H2  556   5.280   0.564   5.034  0.4800 -0.0755 -0.0111
  184TIP3   OH2  557   2.566   4.875   1.974 -0.2015 -0.1121 -0.0408
  184TIP3    H1  558   2.639   4.813   1.980 -0.5171 -0.8964 -3.0245
  184TIP3    H2  559   2.607   4.959   1.952 -0.1150 -0.4035 -1.0356
  185TIP3   OH2  560   2.697   4.336   1.998 -0.2358  0.4296 -0.5445
  185TIP3    H1  561   2.603   4.351   1.993 -0.3181  0.7624  1.2892
  185TIP3    H2  562   2.710   4.290   2.080  1.3413  1.6935 -0.0309
  186TIP3   OH2  563   4.864   3.868   4.488  0.0908 -0.1625  0.4768
  186TIP3    H1  564   4.888   3.776   4.501 -1.5619 -0.6098  0.4995
  186TIP3    H2  565   4.844   3.875   4.395  0.6257  0.2870  0.3913
  187TIP3   OH2  566   6.226   2.720   1.862  0.6739 -0.0133 -0.2531
  187TIP3    H1  567   6.315   2.754   1.862  0.2955  1.0268 -0.6420
  187TIP3    H2  568   6.173   2.790   1.901  0.2317 -1.2455  1.5154
  188TIP3   OH2  569   5.879   5.268   3.383  0.3188 -0.0312 -0.1211
  188TIP3    H1  570   5.902   5.329   3.312  1.5541  0.7461  0.9063
  188TIP3    H2  571   5.836   5.323   3.448  0.0309 -0.5593  0.1345
  189TIP3   OH2  572   3.823   5.281   0.817  0.5441 -0.2626  0.2246
  189TIP3    H1  573   3.817   5.258   0.910  2.7252  0.1883  0.5182
  189TIP3    H2  574   3.850   5.373   0.817 -0.4018  0.0397 -0.8867
  190TIP3   OH2  575   2.491   1.438   0.871  0.0314 -0.5926 -0.1299
  190TIP3    H1  576   2.554   1.509   0.885 -0.1657 -0.3814 -0.2781
  190TIP3    H2  577   2.460   1.416   0.958  0.2625 -0.6519 -0.0623
  191TIP3   OH2  578   1.953   3.569   4.087 -0.3612  0.2552 -0.2399
  191TIP3    H1  579   2.024   3.630   4.068 -0.0526  0.3526  1.1128
  191TIP3    H2  580   1.910   3.605   4.165  0.4187 -1.6936  1.1919
  192TIP3   OH2  581   2.125   1.283   3.418 -0.5829  0.6515 -0.0528
  192TIP3    H1  582   2.118   1.226   3.342  1.3950 -0.1261  0.2752
  192TIP3    H2  583   2.097   1.369   3.387 -0.5367  0.1858 -1.4524
  193TIP3   OH2  584   6.215   0.097   0.706  0.4723  0.0859 -0.2813
  193TIP3    H1  585   6.300   0.140   0.694  0.5749 -0.3789 -1.3226
  193TIP3    H2  586   6.192   0.066   0.619 -0.3053 -0.6566  0.1797
  194TIP3   OH2  587   0.559   3.935   1.335 -0.2508  0.5589  0.1953
  194TIP3    H1  588   0.491   3.913   1.271 -0.2313 -1.0132  0.6727
  194TIP3    H2  589   0.611   4.003   1.293 -1.5053  1.0750 -0.5842
  195TIP3   OH2  590  -0.012   2.738   0.448 -0.2156  0.1260 -0.4256
  195TIP3    H1  591   0.055   2.686   0.492 -0.0327  0.0729 -0.7694
  195TIP3    H2  592   0.013   2.829   0.465 -0.8635  0.1224  0.6879
  196TIP3   OH2  593   3.051   5.870   0.682 -0.1072  0.1688  0.1253
  196TIP3    H1  594   3.024   5.952   0.639  0.5774 -0.1486 -0.9634
  196TIP3    H2  595   3.071   5.896   0.772 -3.0558  0.5844  0.7762
  197TIP3   OH2  596   2.189   3.935   2.875  0.3964 -0.7765  0.1696
  197TIP3    H1  597   2.166   4.026   2.855 -2.9141 -1.0016  2.1374
  197TIP3    H2  598   2.141   3.884   2.810 -0.3439 -1.1605  1.0028
  198TIP3   OH2  599   0.781   2.418   2.546  0.1172  0.1679  0.2257
  198TIP3    H1  600   0.728   2.493   2.572  1.0763  0.4944  1.3076
  198TIP3    H2  601   0.838   2.452   2.477 -0.6034 -0.0154 -0.4741
  199TIP3   OH2  602   3.253   2.804   5.084 -0.3458 -0.8381 -0.3965
  199TIP3    H1  603   3.270   2.724   5.034  2.3889 -0.7949  0.3291
  199TIP3    H2  604   3.233   2.774   5.172 -0.0438 -0.7579 -0.2995
  200TIP3   OH2  605   4.481   1.857   1.680 -0.3882 -0.4900 -0.8304
  200TIP3    H1  606   4.423   1.780   1.681  1.3903 -1.8967  0.5398
  200TIP3    H2  607   4.558   1.829   1.631  0.5621  0.1767  0.2147
  201TIP3   OH2  608   0.881   3.618   4.063 -0.1923  0.3300  0.3867
  201TIP3    H1  609   0.822   3.607   4.138 -1.9083 -0.0553 -0.9546
  201TIP3    H2  610   0.934   3.694   4.085 -1.5905  1.0585  1.4138
  202TIP3   OH2  611   6.070   3.431   0.357  0.5247 -0.3943 -0.2507
  202TIP3    H1  612   6.102   3.501   0.414  0.3228 -0.7675  0.3173
  202TIP3    H2  613   6.134   3.361   0.365 -0.5786 -1.2884  1.1638
  203TIP3   OH2  614   0.718   4.611   2.132  0.0378  0.5052 -0.2240
  203TIP3    H1  615   0.713   4.698   2.171 -0.0168  0.2261  0.3865
  203TIP3    H2  616   0.664   4.556   2.187  1.6164 -0.3377  0.5483
  204TIP3   OH2  617   4.788   3.849   4.907  0.4779 -0.0485  0.0477
  204TIP3    H1  618   4.767   3.897   4.987 -2.1297 -0.2995 -0.4106
  204TIP3    H2  619   4.708   3.801   4.885  1.6733 -1.3636 -1.7796
  205TIP3   OH2  620   6.347   5.483   3.101  0.5724  0.3090 -0.3333
  205TIP3    H1  621   6.364   5.533   3.180  2.0293 -0.3440 -0.1942
  205TIP3    H2  622   6.259   5.508   3.074  0.5325  1.4551  0.8056
  206TIP3   OH2  623   1.931   4.879   4.482 -0.5163 -0.1310  0.1922
  206TIP3    H1  624   1.845   4.862   4.442  0.5048 -1.2083 -1.7029
  206TIP3    H2  625   1.976   4.934   4.419  0.3452  0.1140  1.0000
  207TIP3   OH2  626   2.629   1.334   4.475  0.0934 -0.0844  0.6667
  207TIP3    H1  627   2.688   1.345   4.401  0.4199  1.3077  1.1105
  207TIP3    H2  628   2.552   1.290   4.438  0.1758  0.7479 -0.5517
  208TIP3   OH2  629   4.177   2.352   5.013 -0.4404 -0.1324  0.0500
  208TIP3    H1  630   4.236   2.400   5.071  1.2269  0.1381 -1.7781
  208TIP3    H2  631   4.174   2.264   5.050 -1.1334  0.5525  1.7241
  209TIP3   OH2  632   1.082   2.890   2.153 -0.2020  0.6468  0.0066
  209TIP3    H1  633   1.086   2.969   2.206  1.3668  0.0321  0.8674
  209TIP3    H2  634   1.002   2.846   2.182 -0.7667  1.6186 -0.0576
  210TIP3   OH2  635   1.264   4.218   4.241  0.1760  0.3305  0.2207
  210TIP3    H1  636   1.293   4.297   4.195  1.2124  0.2194  0.6638
  210TIP3    H2  637   1.332   4.201   4.306 -1.2018  0.4189  1.7535
  211TIP3   OH2  638   1.500   0.879   2.342 -0.1675  0.2580  0.3792
  211TIP3    H1  639   1.559   0.885   2.417  0.3715  0.7960 -0.0868
  211TIP3    H2  640   1.557   0.871   2.266 -0.6433  1.6530 -0.1648
  212TIP3   OH2  641   0.381   3.023   3.803 -0.8409 -0.7312 -0.3860
  212TIP3    H1  642   0.424   3.108   3.807  0.0018 -1.1546 -0.1379
  212TIP3    H2  643   0.412   2.977   3.881 -2.1722 -0.8615  0.0816
  213TIP3   OH2  644   5.062   5.674   0.146 -0.6023 -0.2484  0.1105
  213TIP3    H1  645   5.021   5.760   0.140 -1.8502 -0.8017  0.4268
  213TIP3    H2  646   5.052   5.636   0.058  0.3976  0.1132 -0.1711
  214TIP3   OH2  647   5.906   4.537   2.056  0.0132  0.3322 -0.0968
  214TIP3    H1  648   5.961   4.610   2.029  1.1133  0.3023  1.8153
  214TIP3    H2  649   5.852   4.572   2.127 -0.8906 -0.2130 -0.4932
  215TIP3   OH2  650   0.852   0.192   3.382  0.0638 -0.0432 -0.0889
  215TIP3    H1  651   0.938   0.205   3.342 -0.2093  0.1300 -0.6183
  215TIP3    H2  652   0.865   0.119   3.443  0.6282  0.0995 -0.0336
  216TIP3   OH2  653   0.501   1.838   4.500  0.7034 -0.2810 -0.2204
  216TIP3    H1  654   0.542   1.919   4.470  1.1716  0.2084  1.6312
  216TIP3    H2  655   0.574   1.782   4.527  0.3923 -1.3845 -1.5425
  217TIP3   OH2  656   0.459   3.064   4.351 -0.0995  0.6371  0.1380
  217TIP3    H1  657   0.412   3.114   4.284  0.0910 -0.3227 -0.7313
  217TIP3    H2  658   0.512   3.130   4.397  1.5079  1.0354 -2.1228
  218TIP3   OH2  659   0.491   1.413   0.756  0.0672 -0.9182 -0.7374
  218TIP3    H1  660   0.428   1.462   0.703  0.9458  2.0632  0.7121
  218TIP3    H2  661   0.440   1.382   0.831  0.0633  0.9232  0.0985
  219TIP3   OH2  662   4.492   0.530   3.584 -0.0717  0.2978  0.0180
  219TIP3    H1  663   4.584   0.543   3.606 -0.3945  1.4940  0.7567
  219TIP3    H2  664   4.476   0.590   3.511  0.5428 -2.3718 -2.5191
  220TIP3   OH2  665   3.235   2.232   0.843 -0.6289  0.2725  0.4350
  220TIP3    H1  666   3.315   2.267   0.803 -0.3458 -2.4225 -1.6486
  220TIP3    H2  667   3.261   2.213   0.934  1.0948 -0.3900 -0.1563
  221TIP3   OH2  668   0.223   2.276   4.826 -0.1829 -0.6084  0.0598
  221TIP3    H1  669   0.151   2.293   4.766 -0.0516 -1.3259 -0.3146
  221TIP3    H2  670   0.194   2.314   4.909  0.0845  1.3287 -0.6923
  222TIP3   OH2  671   1.531   2.048   3.010  0.3460 -0.1852  0.1749
  222TIP3    H1  672   1.543   2.126   3.064  0.4720 -1.2936  1.8634
  222TIP3    H2  673   1.475   1.991   3.064 -0.6768 -0.8311 -1.4727
  223TIP3   OH2  674   1.109   3.846   3.306  0.0318  0.1811  0.0274
  223TIP3    H1  675   1.168   3.776   3.275 -1.1507 -0.6676 -0.3709
  223TIP3    H2  676   1.051   3.802   3.368 -1.1667  0.6372 -0.7344
  224TIP3   OH2  677   2.005   1.700   4.373  0.3832 -0.3620 -0.9781
  224TIP3    H1  678   1.973   1.616   4.341 -0.4380 -0.8434  0.9830
  224TIP3    H2  679   2.076   1.677   4.433  0.2234  0.3493 -0.5036
  225TIP3   OH2  680   3.146   5.664   4.787 -0.1155  0.1328 -0.0964
  225TIP3    H1  681   3.161   5.620   4.703  0.0759  0.3710 -0.1879
  225TIP3    H2  682   3.125   5.754   4.764 -0.4815  0.0988  0.0931
  226TIP3   OH2  683   6.174   1.817   0.293 -0.0660 -0.7998  0.2973
  226TIP3    H1  684   6.263   1.780   0.291 -0.5473 -2.0501 -2.1423
  226TIP3    H2  685   6.185   1.906   0.261  0.3024 -1.0962 -0.4455
  227TIP3   OH2  686   0.977   2.016   1.551  0.1040 -0.5253 -0.1848
  227TIP3    H1  687   1.020   1.931   1.541 -0.0736 -0.3500 -4.2480
  227TIP3    H2  688   0.912   2.018   1.481 -0.7419  2.5205  0.5529
  228TIP3   OH2  689   3.487   5.091   1.298 -0.1081 -0.2596 -0.1871
  228TIP3    H1  690   3.537   5.013   1.276 -0.3196 -0.6220  0.5843
  228TIP3    H2  691   3.552   5.162   1.299  0.0549 -0.3825 -1.0463
  229TIP3   OH2  692   1.090   4.002   2.730  0.5098  0.3212 -0.1935
  229TIP3    H1  693   1.182   3.986   2.753  0.8812 -0.0324 -1.7860
  229TIP3    H2  694   1.071   4.088   2.768  1.4501  0.3349  0.2879
  230TIP3   OH2  695   5.783   1.934   2.875  0.3360 -0.2463 -0.3009
  230TIP3    H1  696   5.791   1.847   2.836  0.4840 -0.1206 -0.5520
  230TIP3    H2  697   5.725   1.922   2.951  0.0482 -0.4883 -0.5596
  231TIP3   OH2  698   2.950   4.914   4.119  0.6723  0.2135  0.5099
  231TIP3    H1  699   2.965   4.921   4.025 -1.8898  0.2335  0.0325
  231TIP3    H2  700   2.990   4.830   4.144 -1.6806 -1.5926 -1.3593
  232TIP3   OH2  701   0.211   5.289   1.408 -0.2841  0.3208 -0.0493
  232TIP3    H1  702   0.230   5.382   1.412 -1.3854  0.5203  1.4247
  232TIP3    H2  703   0.128   5.279   1.455 -0.4834 -1.3193 -0.6791
  233TIP3   OH2  704   4.654   0.784   5.079 -0.0169 -0.2728  0.2689
  233TIP3    H1  705   4.619   0.762   4.993 -0.9896  0.9776  0.3087
  233TIP3    H2  706   4.699   0.868   5.066  1.0558 -0.7699  0.6940
  234TIP3   OH2  707   3.067   1.285   1.203  0.0637  0.3794 -0.4569
  234TIP3    H1  708   2.982   1.325   1.185  0.0031  0.3837 -0.1667
  234TIP3    H2  709   3.048   1.192   1.212 -0.0367  0.4741  0.3865
  235TIP3   OH2  710   2.358   3.507   2.353 -0.1999 -0.7016  0.1773
  235TIP3    H1  711   2.373   3.536   2.263  1.6010 -0.6852  0.4367
  235TIP3    H2  712   2.264   3.513   2.365 -0.5592 -1.2758 -1.8936
  236TIP3   OH2  713   2.252   1.968   0.419  0.1131  0.0562  0.1561
  236TIP3    H1  714   2.176   2.018   0.449 -0.9025 -1.3679  0.0348
  236TIP3    H2  715   2.322   2.033   0.411 -0.5033  1.0706  2.2661
  237TIP3   OH2  716   3.848   4.235   3.526 -0.1674  0.3703 -0.3737
  237TIP3    H1  717   3.933   4.272   3.552 -0.0732 -1.0754  1.6829
  237TIP3    H2  718   3.822   4.286   3.449  2.0236  1.6049 -0.3947
  238TIP3   OH2  719   4.262   4.952   3.261 -0.0161  0.5952  0.7552
  238TIP3    H1  720   4.282   5.028   3.206 -2.0444  1.3678  0.9873
  238TIP3    H2  721   4.197   4.903   3.210  0.6038 -0.5191  1.0104
  239TIP3   OH2  722   5.862   1.150   5.174 -0.1911  0.1242 -0.1091
  239TIP3    H1  723   5.940   1.198   5.201 -0.9500  1.6228 -0.4329
  239TIP3    H2  724   5.895   1.072   5.129  1.0890  0.0625  0.8932
  240TIP3   OH2  725   3.826   1.339   2.027  0.5478  0.0682  0.5648
  240TIP3    H1  726   3.756   1.275   2.013  1.4955 -0.5106 -2.2780
  240TIP3    H2  727   3.782   1.423   2.031 -0.3934 -0.3469 -0.4973
  241TIP3   OH2  728   4.907   0.910   4.855 -0.5048 -0.0314  0.5723
  241TIP3    H1  729   4.823   0.956   4.864 -0.8000 -0.5346  0.3968
  241TIP3    H2  730   4.891   0.843   4.788  0.8530  1.8387 -1.8285
  242TIP3   OH2  731   1.299   1.240   2.624  0.3876 -0.4312  0.3857
  242TIP3    H1  732   1.388   1.275   2.619 -0.0479  0.6878  0.0360
  242TIP3    H2  733   1.252   1.301   2.681 -0.2592 -0.7701  0.2325
  243TIP3   OH2  734   3.425   0.761   1.722 -0.2784 -0.1847  0.1083
  243TIP3    H1  735   3.480   0.775   1.645 -1.0984  3.1411 -0.0523
  243TIP3    H2  736   3.339   0.737   1.686 -0.0712 -0.9765  0.1309
  244TIP3   OH2  737   0.902   2.639   0.451  0.3085 -1.0744 -0.7774
  244TIP3    H1  738   0.981   2.635   0.397  0.4103 -1.0729 -0.6310
  244TIP3    H2  739   0.830   2.646   0.388  0.4765 -0.3489 -0.9019
  245TIP3   OH2  740   5.434   3.432   0.968  0.3314 -0.5249 -0.3844
  245TIP3    H1  741   5.381   3.353   0.963 -0.5033 -0.0205  0.3312
  245TIP3    H2  742   5.415   3.478   0.886 -0.9473  0.0094  0.1803
  246TIP3   OH2  743   5.530   0.154   4.984 -0.1936 -0.2072 -0.1461
  246TIP3    H1  744   5.549   0.192   5.070  0.7513  0.3461 -0.5779
  246TIP3    H2  745   5.605   0.097   4.966 -0.1837  0.0028 -0.7804
  247TIP3   OH2  746   2.760   1.772   4.715 -0.1859  0.1483  0.1358
  247TIP3    H1  747   2.783   1.691   4.669 -0.6357  0.1590 -0.1238
  247TIP3    H2  748   2.706   1.820   4.652  0.6060  0.9473  0.0487
  248TIP3   OH2  749   4.320   0.347   2.735  0.5516 -0.1216 -0.1859
  248TIP3    H1  750   4.312   0.439   2.710 -0.0927  1.0200  3.6194
  248TIP3    H2  751   4.233   0.311   2.719  0.6574  0.0174 -1.1786
  249TIP3   OH2  752   5.551   4.964   4.252  0.1804  0.1290 -0.5999
  249TIP3    H1  753   5.620   5.006   4.305 -0.9779 -1.0253  1.9961
  249TIP3    H2  754   5.591   4.951   4.166  3.2112 -0.4671  0.7854
  250TIP3   OH2  755   5.154   5.849   0.639  0.1855  0.6522 -0.4117
  250TIP3    H1  756   5.127   5.786   0.573  1.7871  1.6385 -2.1091
  250TIP3    H2  757   5.149   5.934   0.595 -0.6935  1.6125  1.4102
  251TIP3   OH2  758   3.159   2.575   0.868 -0.2038  0.0928 -0.1766
  251TIP3    H1  759   3.146   2.661   0.827 -0.2412  0.2163  0.0907
  251TIP3    H2  760   3.071   2.537   0.870  0.1536 -1.1286 -2.8123
  252TIP3   OH2  761   1.220   0.395   1.012  0.2001 -0.1689 -0.4774
  252TIP3    H1  762   1.140   0.393   1.065  0.1785 -1.0850 -0.5273
  252TIP3    H2  763   1.281   0.337   1.058  1.5130  1.9235  0.5635
  253TIP3   OH2  764   1.708   0.200   0.817 -0.0467  0.0344 -0.1698
  253TIP3    H1  765   1.640   0.150   0.863  0.2025  0.6569  0.9085
  253TIP3    H2  766   1.785   0.194   0.873  0.1291  1.2012 -0.2529
  254TIP3   OH2  767   0.098   0.739   3.650 -0.3233  0.3532 -0.1453
  254TIP3    H1  768   0.033   0.702   3.709  0.1615 -2.0744 -1.0352
  254TIP3    H2  769   0.048   0.760   3.570 -0.4538  0.9200  0.0796
  255TIP3   OH2  770   2.073   2.066   3.496  0.7592  0.2223  0.2929
  255TIP3    H1  771   2.080   2.155   3.531  1.1492 -0.1201  1.1129
  255TIP3    H2  772   1.995   2.069   3.440  1.6049  1.4531 -0.8770
  256TIP3   OH2  773   5.303   3.958   1.635 -0.3620  0.9056 -0.2370
  256TIP3    H1  774   5.284   3.960   1.541 -0.0806 -2.2038 -0.4806
  256TIP3    H2  775   5.398   3.966   1.640 -0.3980  1.3237 -0.1780
  257TIP3   OH2  776   5.047   2.867   2.036  0.1456 -0.4685  0.0567
  257TIP3    H1  777   5.121   2.847   1.979 -1.2275 -1.5957 -1.4093
  257TIP3    H2  778   5.057   2.808   2.110  2.3326  1.4893  1.4644
  258TIP3   OH2  779   3.383   2.038   2.564  0.2521  0.6800 -0.3100
  258TIP3    H1  780   3.439   1.976   2.517  1.2170  1.9543 -0.8957
  258TIP3    H2  781   3.417   2.037   2.654 -0.2963 -0.2577 -0.0984
  259TIP3   OH2  782   4.190   3.705   5.032 -0.0711  0.0995  0.0511
  259TIP3    H1  783   4.176   3.631   5.092 -0.2100 -0.7008 -0.9502
  259TIP3    H2  784   4.283   3.699   5.009 -0.1611  0.0400 -0.2925
  260TIP3   OH2  785   4.281   3.907   1.777  0.0858  0.5014  0.3368
  260TIP3    H1  786   4.328   3.990   1.782  0.5741  0.2081  0.7475
  260TIP3    H2  787   4.291   3.878   1.687  2.2248 -0.4162  0.8096
  261TIP3   OH2  788   6.265   1.706   2.625 -0.4432 -0.5847 -0.3656
  261TIP3    H1  789   6.216   1.629   2.655 -0.8112  0.1701  1.0638
  261TIP3    H2  790   6.286   1.754   2.705  0.9701  0.1133 -1.1185
  262TIP3   OH2  791   3.173   2.194   0.207  0.3549  0.0873  0.0620
  262TIP3    H1  792   3.133   2.267   0.253  1.5435  0.4274  0.5912
  262TIP3    H2  793   3.265   2.217   0.200  0.4285 -0.4964 -1.4554
  263TIP3   OH2  794   3.847   2.213   4.596 -0.0565 -0.1210  0.3216
  263TIP3    H1  795   3.752   2.221   4.590  0.1199  1.2784 -1.3414
  263TIP3    H2  796   3.870   2.147   4.531  0.0950 -0.6115  0.8699
  264TIP3   OH2  797   3.704   0.892   1.710  0.2644  0.4906  0.4782
  264TIP3    H1  798   3.788   0.849   1.729 -0.0338  0.4415  1.7759
  264TIP3    H2  799   3.647   0.865   1.781 -0.2652  2.1261  0.7094
  265TIP3   OH2  800   1.703   4.572   1.841  0.2898  0.0414 -0.4072
  265TIP3    H1  801   1.690   4.528   1.925  1.0872 -0.1426 -0.3757
  265TIP3    H2  802   1.746   4.507   1.786  2.3768  1.0449 -0.0559
  266TIP3   OH2  803   0.326   0.438   4.934 -0.5651  0.2944 -0.0539
  266TIP3    H1  804   0.375   0.516   4.908 -1.1974 -0.1075 -2.8192
  266TIP3    H2  805   0.336   0.433   5.029  2.7093  1.5415 -0.2146
  267TIP3   OH2  806   6.273   3.468   4.423  0.4258  0.5738  0.4357
  267TIP3    H1  807   6.261   3.470   4.518  0.9845  2.2771  0.4974
  267TIP3    H2  808   6.317   3.384   4.406 -0.5650 -0.2088  1.5372
  268TIP3   OH2  809   3.868   5.616   2.029  0.4307  0.1372 -0.1431
  268TIP3    H1  810   3.920   5.540   2.004  0.9553  0.8141 -1.2097
  268TIP3    H2  811   3.779   5.583   2.039  0.4377 -0.4225 -1.6922
  269TIP3   OH2  812   5.673   0.835   1.673  0.1373  0.0030 -0.4807
  269TIP3    H1  813   5.659   0.758   1.617 -0.6190 -0.7589  0.6932
  269TIP3    H2  814   5.694   0.906   1.612  0.2711 -0.9988 -1.6454
  270TIP3   OH2  815   2.077   0.048   3.980  0.2853  0.0525 -0.5515
  270TIP3    H1  816   2.017   0.093   3.921  0.9874 -0.1895 -1.4933
  270TIP3    H2  817   2.050   0.073   4.068 -0.2664  1.1044 -1.0140
  271TIP3   OH2  818   2.594   0.183   0.970  0.0101 -0.2091  0.0086
  271TIP3    H1  819   2.580   0.278   0.966 -0.4290 -0.3035 -0.7785
  271TIP3    H2  820   2.601   0.156   0.879  0.8321 -0.8402  0.2551
  272TIP3   OH2  821   1.187   1.503   2.374  0.4117 -0.6922 -0.3561
  272TIP3    H1  822   1.101   1.532   2.405  0.9568  1.0946 -0.3843
  272TIP3    H2  823   1.175   1.411   2.354 -1.8051 -0.2572 -1.3882
  273TIP3   OH2  824   1.975   1.789   5.176  0.0022  0.3815 -0.2724
  273TIP3    H1  825   1.908   1.767   5.110  2.2145 -1.6994 -2.0064
  273TIP3    H2  826   1.989   1.707   5.224  2.3492  0.2607 -1.0324
  274TIP3   OH2  827   5.548   4.672   5.103  0.7808  0.4445  0.1217
  274TIP3    H1  828   5.542   4.768   5.100  0.0787  0.5776  2.7323
  274TIP3    H2  829   5.464   4.642   5.066 -0.3854  1.0178  2.1425
  275TIP3   OH2  830   3.184   4.361   5.195 -0.6414 -0.6028 -0.3315
  275TIP3    H1  831   3.144   4.446   5.215  0.4820 -0.0988 -0.1650
  275TIP3    H2  832   3.241   4.379   5.120  0.0249 -1.0970  0.0554
  276TIP3   OH2  833   5.591   3.812   3.744 -0.5528 -0.2147 -0.0533
  276TIP3    H1  834   5.643   3.882   3.705  0.4800 -1.7095 -1.5321
  276TIP3    H2  835   5.628   3.801   3.832 -1.5981  1.8924  0.7157
  277TIP3   OH2  836   5.180   5.370   1.118 -0.2072 -0.8753  0.2514
  277TIP3    H1  837   5.221   5.399   1.036 -1.4383 -0.9428 -0.4172
  277TIP3    H2  838   5.206   5.436   1.182  1.0855 -1.0282 -0.0928
  278TIP3   OH2  839   0.244   0.537   0.939 -0.4474  0.5562  0.2848
  278TIP3    H1  840   0.291   0.618   0.919 -1.4450  0.5437 -2.5300
  278TIP3    H2  841   0.311   0.477   0.971  0.5427  2.0395  1.0861
  279TIP3   OH2  842   0.199   0.909   1.503  0.4047  0.1018  0.2623
  279TIP3    H1  843   0.189   0.998   1.538  1.1405  0.1094  0.4713
  279TIP3    H2  844   0.119   0.894   1.454 -0.5554  0.1762  1.7653
  280TIP3   OH2  845   2.278   3.309   1.351 -0.3509 -0.4310  0.0706
  280TIP3    H1  846   2.245   3.322   1.440 -0.3646 -0.8163  0.1261
  280TIP3    H2  847   2.371   3.327   1.356 -0.2463 -1.0183  0.2922
  281TIP3   OH2  848   4.234   0.051   2.841  0.1669 -0.0376  0.3999
  281TIP3    H1  849   4.212   0.109   2.914  1.1299 -2.0020  2.3698
  281TIP3    H2  850   4.226  -0.037   2.877  0.5081 -1.1036 -1.9449
  282TIP3   OH2  851   3.765   3.626   4.446 -0.3905  0.4612  0.1798
  282TIP3    H1  852   3.684   3.673   4.426 -0.2784  0.7894  0.4967
  282TIP3    H2  853   3.742   3.533   4.437 -0.6931  0.5667 -0.1320
  283TIP3   OH2  854   5.184   5.117   1.200 -0.3784  0.5656  0.4393
  283TIP3    H1  855   5.117   5.112   1.268 -1.3033  1.3532 -0.3768
  283TIP3    H2  856   5.194   5.210   1.182 -0.2291  0.3733 -0.5691
  284TIP3   OH2  857   0.385   0.370   1.878  0.5205  0.2061  0.5007
  284TIP3    H1  858   0.444   0.325   1.938 -0.1908  0.6247  1.5532
  284TIP3    H2  859   0.422   0.457   1.867  1.4200 -0.3170 -0.8334
  285TIP3   OH2  860   2.708   4.752   2.272 -0.2808  0.0837  0.0753
  285TIP3    H1  861   2.764   4.682   2.306  1.0214  1.0697  0.0609
  285TIP3    H2  862   2.659   4.712   2.201  0.0369 -0.9413  0.4169
  286TIP3   OH2  863   5.817   4.682   2.478  0.0534 -0.3257  0.0750
  286TIP3    H1  864   5.849   4.708   2.392  2.0097 -0.7535  0.6172
  286TIP3    H2  865   5.750   4.747   2.500 -0.1396  0.0632 -1.5371
  287TIP3   OH2  866   4.928   5.062   4.460  0.1572  0.5688 -1.0437
  287TIP3    H1  867   5.011   5.015   4.464  0.3283  0.6230 -2.9361
  287TIP3    H2  868   4.864   4.999   4.494  1.0105  0.8018  1.1617
  288TIP3   OH2  869   5.992   0.187   3.059  0.2543 -0.1096 -0.0749
  288TIP3    H1  870   6.012   0.094   3.056  1.1724  0.0882 -0.5267
  288TIP3    H2  871   5.995   0.215   2.968  0.5368  0.4646  0.1028
  289TIP3   OH2  872   4.781   1.911   5.015  0.0691  0.3981 -0.3991
  289TIP3    H1  873   4.797   2.002   4.994  0.5942  0.7469  1.3197
  289TIP3    H2  874   4.867   1.874   5.033 -0.1427 -0.4251 -0.9803
  290TIP3   OH2  875   0.902   1.666   0.339  0.2551  0.0976 -0.5653
  290TIP3    H1  876   0.885   1.579   0.374  0.1575  0.7053  0.9557
  290TIP3    H2  877   0.911   1.653   0.244  0.4163 -1.5739 -0.3358
  291TIP3   OH2  878   2.695   3.390   2.154 -0.3292 -0.1072 -0.2818
  291TIP3    H1  879   2.635   3.336   2.205 -3.4617  2.0799 -1.3531
  291TIP3    H2  880   2.735   3.329   2.091 -2.5661 -1.4791 -0.4732
  292TIP3   OH2  881   1.904   0.329   0.620 -0.0604 -0.3127  0.3742
  292TIP3    H1  882   1.838   0.285   0.673 -1.9270  1.6130 -0.2115
  292TIP3    H2  883   1.933   0.402   0.673 -0.4473  0.4445 -0.4282
  293TIP3   OH2  884   2.363   1.363   2.201  0.1366  0.3696  0.4662
  293TIP3    H1  885   2.362   1.377   2.107 -1.4049 -0.5859  0.2976
  293TIP3    H2  886   2.439   1.412   2.232  1.7179 -0.6723 -1.4734
  294TIP3   OH2  887   2.778   3.022   2.322 -0.5338  0.0797 -0.1267
  294TIP3    H1  888   2.726   3.037   2.401 -0.6675  0.7880 -0.3386
  294TIP3    H2  889   2.725   2.964   2.268 -0.8249  0.2881 -0.0654
  295TIP3   OH2  890   3.601   0.567   4.468  0.1331 -0.4401 -0.6184
  295TIP3    H1  891   3.607   0.612   4.553 -1.1653 -2.4158  0.6151
  295TIP3    H2  892   3.536   0.617   4.419  1.3841  1.1248 -0.7827
  296TIP3   OH2  893   0.865   2.193   4.512  0.2467  0.0802 -0.4499
  296TIP3    H1  894   0.837   2.276   4.552  2.3159  0.2505  0.8175
  296TIP3    H2  895   0.817   2.126   4.560  0.3185  0.4526  0.1603
  297TIP3   OH2  896   0.704   3.309   4.395  0.0411 -0.5653  0.4567
  297TIP3    H1  897   0.738   3.386   4.440 -1.0843 -0.2733  0.8366
  297TIP3    H2  898   0.619   3.337   4.360  0.3495 -1.1531 -0.8059
  298TIP3   OH2  899   4.376   3.697   0.056  0.1299 -0.3694  0.8995
  298TIP3    H1  900   4.333   3.777   0.028  1.8637 -0.1484 -1.4169
  298TIP3    H2  901   4.389   3.708   0.150  0.8173  2.3287  0.5484
  299TIP3   OH2  902   0.092   4.582   4.334  0.2004  0.0054 -0.2524
  299TIP3    H1  903   0.030   4.509   4.340  0.6429 -0.6497 -2.6708
  299TIP3    H2  904   0.145   4.575   4.413 -0.9787 -1.1317  0.4826
  300TIP3   OH2  905   6.197   2.242   1.652 -0.1572  0.1028  0.0519
  300TIP3    H1  906   6.260   2.306   1.619 -0.2249  1.4666  2.3669
  300TIP3    H2  907   6.211   2.164   1.598  1.6460  1.2375 -1.2287
  301TIP3   OH2  908   2.887   5.751   1.151  0.0372  0.0193 -0.7176
  301TIP3    H1  909   2.875   5.764   1.057 -0.5153 -0.5548 -0.7346
  301TIP3    H2  910   2.799   5.732   1.184  0.0225  1.3970  0.1217
  302TIP3   OH2  911   4.784   0.935   2.456 -0.5277 -0.7337  0.6522
  302TIP3    H1  912   4.754   0.873   2.389  1.9985  0.5003 -1.8602
  302TIP3    H2  913   4.757   1.021   2.423 -0.6977 -0.1996  2.1229
  303TIP3   OH2  914   3.377   4.882   4.343  0.0531  0.1898 -0.3756
  303TIP3    H1  915   3.462   4.910   4.377  0.7603 -1.9587 -0.2502
  303TIP3    H2  916   3.368   4.791   4.372 -1.2197 -0.3826 -2.3896
  304TIP3   OH2  917   5.095   0.368   3.718 -0.1441  0.1883  0.2471
  304TIP3    H1  918   5.007   0.347   3.750  0.0495 -0.1537  0.5683
  304TIP3    H2  919   5.086   0.377   3.624 -0.5088  0.0670  0.2711
  305TIP3   OH2  920   1.070   4.858   1.521 -0.5646 -0.2175  0.5324
  305TIP3    H1  921   1.013   4.909   1.579 -0.7835 -0.7539  0.7951
  305TIP3    H2  922   1.073   4.909   1.440 -1.3758 -0.1412  0.5364
  306TIP3   OH2  923   2.748   5.166   1.477 -0.3187  0.3643  0.2154
  306TIP3    H1  924   2.754   5.071   1.465 -0.9392  0.4027 -0.4944
  306TIP3    H2  925   2.714   5.177   1.565 -0.9762 -0.1023  0.0307
  307TIP3   OH2  926   3.467   4.684   2.400 -0.0963 -0.0629  0.3243
  307TIP3    H1  927   3.433   4.766   2.364  1.0012 -0.5338 -1.9780
  307TIP3    H2  928   3.443   4.617   2.336 -0.5973 -1.5134  1.9449
  308TIP3   OH2  929   1.078   2.936   2.699  0.3051  0.3041 -0.0264
  308TIP3    H1  930   1.158   2.891   2.728  0.6602  0.6845 -0.4028
  308TIP3    H2  931   1.109   3.003   2.638 -0.4477 -0.6691 -1.5400
  309TIP3   OH2  932   5.014   4.801   0.685 -0.7244  0.5288  0.6486
  309TIP3    H1  933   4.951   4.732   0.706 -0.3447 -0.2692 -0.7176
  309TIP3    H2  934   4.988   4.831   0.598  0.1669  0.9019  0.5000
  310TIP3   OH2  935   5.189   4.873   3.330  0.2083  0.0919 -0.1929
  310TIP3    H1  936   5.195   4.782   3.301  2.4069  0.1037  0.1119
  310TIP3    H2  937   5.172   4.867   3.424 -0.9497  0.0313 -0.3905
  311TIP3   OH2  938   5.084   1.798   0.907 -0.4180  0.2783  0.0539
  311TIP3    H1  939   5.141   1.869   0.879 -1.0103  1.0850  0.8589
  311TIP3    H2  940   4.999   1.816   0.867 -0.2625 -0.6485 -0.7359
  312TIP3   OH2  941   3.375   4.445   5.004 -0.1091 -0.0025  0.2267
  312TIP3    H1  942   3.446   4.389   4.972 -1.7205 -2.6672  1.0046
  312TIP3    H2  943   3.419   4.526   5.029  2.7673 -1.6937  1.1871
  313TIP3   OH2  944   1.426   4.577   3.644 -0.3961  0.1071 -0.1028
  313TIP3    H1  945   1.517   4.603   3.629  0.2594 -1.5370  0.7317
  313TIP3    H2  946   1.381   4.658   3.669  0.8092  0.9564 -0.6107
  314TIP3   OH2  947   5.184   2.129   1.677  0.2491  0.6636  0.1662
  314TIP3    H1  948   5.189   2.218   1.642  0.8757  0.7394  0.4305
  314TIP3    H2  949   5.200   2.073   1.601  0.0953  0.7836  0.0442
  315TIP3   OH2  950   5.768   4.419   1.100  0.1089 -0.5026 -0.2375
  315TIP3    H1  951   5.803   4.414   1.011  0.1806 -0.7286 -0.1964
  315TIP3    H2  952   5.837   4.384   1.155  0.1597 -0.1349 -0.0654
  316TIP3   OH2  953   4.841   2.267   1.028  0.1540 -0.0876  0.4716
  316TIP3    H1  954   4.835   2.346   1.081 -0.5794 -0.8100  1.5213
  316TIP3    H2  955   4.777   2.207   1.067 -2.4022  0.2241 -2.8236
  317TIP3   OH2  956   2.122   0.498   3.210 -0.2300 -0.0399 -0.6335
  317TIP3    H1  957   2.196   0.557   3.223 -1.6975  1.5811  1.0826
  317TIP3    H2  958   2.161   0.411   3.203  1.8637  0.8485 -0.7541
  318TIP3   OH2  959   1.434   3.445   1.592 -0.1583  0.3140 -0.4640
  318TIP3    H1  960   1.502   3.393   1.549 -1.8386 -0.7275 -1.9833
  318TIP3    H2  961   1.420   3.519   1.532 -0.4671  0.4371 -0.2390
  319TIP3   OH2  962   3.317   1.357   2.153 -0.6232 -0.1639 -0.2348
  319TIP3    H1  963   3.315   1.390   2.243 -3.2409  1.1681 -0.6666
  319TIP3    H2  964   3.252   1.411   2.107 -2.3067 -3.3708 -1.9568
  320TIP3   OH2  965   4.045   5.930   0.956  0.1945 -0.2325 -0.3188
  320TIP3    H1  966   4.067   5.966   0.870 -1.1798  0.3830 -0.4349
  320TIP3    H2  967   3.954   5.955   0.970 -0.2460 -2.0963  0.4186
  321TIP3   OH2  968   5.628   0.966   3.334  0.4870  0.3421 -0.0364
  321TIP3    H1  969   5.699   0.970   3.398 -0.7464 -0.1431  1.4131
  321TIP3    H2  970   5.566   0.904   3.370 -0.9005  1.0816 -1.0408
  322TIP3   OH2  971   5.842   2.902   3.175 -0.2472  0.0817 -0.2505
  322TIP3    H1  972   5.783   2.876   3.104 -0.6157  0.5834 -0.1323
  322TIP3    H2  973   5.831   2.997   3.181  0.5326  0.1720 -0.1941
  323TIP3   OH2  974   2.100   2.086   1.676  0.0588 -0.2568  0.0211
  323TIP3    H1  975   2.104   2.137   1.757  2.3769  0.7634 -0.6528
  323TIP3    H2  976   2.175   2.027   1.680 -0.7233 -1.3398 -0.6930
  324TIP3   OH2  977   4.073   0.548   4.126 -0.0508  0.7678 -0.6670
  324TIP3    H1  978   4.021   0.606   4.183  0.3324 -0.6899  1.2868
  324TIP3    H2  979   4.094   0.473   4.182  1.0597 -0.3843 -2.5367
  325TIP3   OH2  980   4.388   4.632   1.701 -0.1547  0.2216  0.3694
  325TIP3    H1  981   4.412   4.554   1.651 -0.5052  0.7527 -0.6605
  325TIP3    H2  982   4.377   4.700   1.634 -1.6178  0.7140  1.0813
  326TIP3   OH2  983   4.947   5.079   2.005 -0.1080 -0.2038 -0.2162
  326TIP3    H1  984   4.970   5.014   2.072 -1.9427 -0.4732  0.2197
  326TIP3    H2  985   4.872   5.040   1.959  1.7479 -0.4932 -3.2022
  327TIP3   OH2  986   0.848   1.832   0.967 -0.2145  0.4680  0.7199
  327TIP3    H1  987   0.928   1.877   0.941 -0.0382 -0.8290 -1.2434
  327TIP3    H2  988   0.780   1.900   0.963  0.5728  1.2985  1.1684
  328TIP3   OH2  989   0.632   3.653   2.807  0.6533 -0.4237 -0.1304
  328TIP3    H1  990   0.700   3.606   2.758 -0.3140 -0.1351 -1.8099
  328TIP3    H2  991   0.606   3.591   2.875 -0.1341 -2.1267 -1.8941
  329TIP3   OH2  992   6.103   4.515   4.953  0.3761  0.0652  0.3232
  329TIP3    H1  993   6.153   4.438   4.926 -1.4562 -1.3014  0.6492
  329TIP3    H2  994   6.119   4.522   5.047  1.0429  0.4742  0.1824
  330TIP3   OH2  995   2.283   5.706   0.540  0.8371 -0.8823  0.4080
  330TIP3    H1  996   2.309   5.709   0.632  3.5451 -0.4390 -0.2688
  330TIP3    H2  997   2.234   5.788   0.526  1.6726 -0.2431  1.1424
  331TIP3   OH2  998   4.321   4.561   4.017  0.8451  0.0072 -0.8968
  331TIP3    H1  999   4.346   4.492   4.079 -1.5965 -2.5756 -2.5489
  331TIP3    H2 1000   4.318   4.517   3.932 -2.9491  1.5091 -1.7293
  332TIP3   OH2 1001   0.772   3.152   2.291 -0.4146  1.0485  0.1096
  332TIP3    H1 1002   0.807   3.240   2.307  1.7969  0.1002  0.9456
  332TIP3    H2 1003   0.755   3.116   2.378  2.0447 -0.5389  0.0248
  333TIP3   OH2 1004   4.219   4.996   0.902  0.0299 -0.3213 -0.0270
  333TIP3    H1 1005   4.314   5.006   0.903  0.0231 -0.1538  1.1417
  333TIP3    H2 1006   4.187   5.063   0.963 -0.8938  0.0860 -0.9394
  334TIP3   OH2 1007   3.288   0.457   1.679 -0.4581  0.0102 -0.3645
  334TIP3    H1 1008   3.278   0.466   1.774 -0.4674 -1.4200 -0.2126
  334TIP3    H2 1009   3.235   0.527   1.642 -0.0474  0.9017  0.6920
  335TIP3   OH2 1010   5.316   5.010   2.100  0.2759 -0.0018 -0.4875
  335TIP3    H1 1011   5.390   5.047   2.147 -0.9131  0.2507  1.3130
  335TIP3    H2 1012   5.240   5.058   2.134 -0.6047  0.8927 -3.4397
  336TIP3   OH2 1013   0.153   1.795   2.076  0.1050 -0.4504 -0.2277
  336TIP3    H1 1014   0.089   1.867   2.081  2.1866  1.4507  0.4569
  336TIP3    H2 1015   0.199   1.799   2.160  2.5696 -0.3150 -1.5213
  337TIP3   OH2 1016   2.061   1.563   2.887  0.2867  0.0138 -0.0268
  337TIP3    H1 1017   2.033   1.483   2.932 -1.4771  1.1220  0.9643
  337TIP3    H2 1018   2.080   1.535   2.797 -1.3212 -1.3454  0.0149
  338TIP3   OH2 1019   2.856   2.338   4.154 -1.0856  0.2976  0.5899
  338TIP3    H1 1020   2.841   2.432   4.162  0.3900  0.6458 -0.2916
  338TIP3    H2 1021   2.922   2.319   4.221  0.2967  0.3617 -0.7049
  339TIP3   OH2 1022   5.655   0.670   0.720  0.3985 -0.0771  0.0325
  339TIP3    H1 1023   5.577   0.700   0.767  1.2569  0.5323  1.1151
  339TIP3    H2 1024   5.645   0.575   0.715 -0.3250 -0.0214  0.3288
  340TIP3   OH2 1025   4.644   4.724   2.471 -0.2546  0.1699  0.4230
  340TIP3    H1 1026   4.565   4.770   2.444 -0.5073 -1.4815 -1.9738
  340TIP3    H2 1027   4.634   4.636   2.436  1.4897 -0.9058  2.3673
  341TIP3   OH2 1028   5.797   3.230   4.619 -0.6947 -0.4720  0.7166
  341TIP3    H1 1029   5.702   3.221   4.625 -0.6622 -0.5893  1.1467
  341TIP3    H2 1030   5.822   3.177   4.544 -0.8878 -1.1100  1.0903
  342TIP3   OH2 1031   2.721   4.236   0.292  0.2471 -0.4127  0.1129
  342TIP3    H1 1032   2.791   4.301   0.286 -0.7864  0.7632  0.3824
  342TIP3    H2 1033   2.749   4.166   0.234  1.7829 -0.1043  0.4388
  343TIP3   OH2 1034   2.552   4.546   1.247  0.7900  0.3031  0.2992
  343TIP3    H1 1035   2.585   4.617   1.192 -0.2672  0.0463 -0.7024
  343TIP3    H2 1036   2.630   4.497   1.273  1.3075  0.3078 -1.1674
  344TIP3   OH2 1037   2.605   5.199   5.087  0.2069  0.6309 -0.0879
  344TIP3    H1 1038   2.650   5.186   5.004 -0.7105  1.2496 -0.6943
  344TIP3    H2 1039   2.675   5.220   5.149  0.5976  4.1984 -1.5499
  345TIP3   OH2 1040   4.807   0.276   5.004  0.5520 -0.1174 -0.0458
  345TIP3    H1 1041   4.806   0.238   5.092  0.9045 -1.2226 -0.5107
  345TIP3    H2 1042   4.827   0.203   4.946 -2.1959  0.0440 -1.3424
  346TIP3   OH2 1043   0.655   0.562   1.359  0.3009  0.8053  0.2922
  346TIP3    H1 1044   0.610   0.634   1.404  0.6197  1.1494  0.0600
  346TIP3    H2 1045   0.744   0.593   1.346  0.9880 -0.3372  1.8482
  347TIP3   OH2 1046   4.230   2.497   1.490  0.0097  0.4267  0.2113
  347TIP3    H1 1047   4.160   2.432   1.498  0.1249  0.0555 -1.4620
  347TIP3    H2 1048   4.218   2.554   1.566 -3.1786  1.3755 -0.8021
  348TIP3   OH2 1049   3.393   5.152   3.188  0.2087 -0.0014 -0.1383
  348TIP3    H1 1050   3.299   5.164   3.196  0.3279  0.0803  1.3236
  348TIP3    H2 1051   3.402   5.077   3.128 -0.7929 -0.4326  0.2321
  349TIP3   OH2 1052   5.038   5.608   5.177  0.2926 -0.1555  0.4254
  349TIP3    H1 1053   5.061   5.660   5.255 -1.2771  0.1153  0.7412
  349TIP3    H2 1054   5.032   5.673   5.107  0.7550 -0.2680  0.2769
  350TIP3   OH2 1055   3.461   2.299   3.720  0.2098  0.5527  0.1948
  350TIP3    H1 1056   3.464   2.208   3.689  2.5053 -0.0562  1.8699
  350TIP3    H2 1057   3.393   2.300   3.786  0.7163 -0.2065  0.7493
  351TIP3   OH2 1058   5.296   1.361   5.150 -0.6557 -0.3490 -0.0390
  351TIP3    H1 1059   5.251   1.296   5.096  0.1381 -1.2333  0.3270
  351TIP3    H2 1060   5.227   1.399   5.204 -1.2333 -0.4209 -0.7114
  352TIP3   OH2 1061   3.546   1.115   1.154  0.3962  0.5767 -0.2625
  352TIP3    H1 1062   3.513   1.045   1.098  0.1695 -0.6084  1.3020
  352TIP3    H2 1063   3.469   1.165   1.179  0.2397  0.0145  0.4211
  353TIP3   OH2 1064   3.990   1.208   1.348 -0.4946  0.0741  0.0601
  353TIP3    H1 1065   3.980   1.186   1.440 -3.3025  2.1188  0.3918
  353TIP3    H2 1066   4.056   1.278   1.347 -0.2177 -0.1770  0.4783
  354TIP3   OH2 1067   4.526   1.439   2.332 -0.6332 -0.2259  0.0496
  354TIP3    H1 1068   4.549   1.456   2.240 -1.6033 -2.3620 -0.6536
  354TIP3    H2 1069   4.540   1.345   2.342  0.7721  0.1788  2.5221
  355TIP3   OH2 1070   5.298   4.616   1.194 -0.0406 -0.4806  0.0329
  355TIP3    H1 1071   5.258   4.543   1.240  1.3172 -2.2669 -1.4812
  355TIP3    H2 1072   5.224   4.661   1.152 -0.8538 -1.1958  0.6500
  356TIP3   OH2 1073   4.335   2.287   0.764 -0.6118  0.1721  0.3361
  356TIP3    H1 1074   4.360   2.270   0.855 -0.4709  1.8587  0.6387
  356TIP3    H2 1075   4.323   2.382   0.759  0.1641  0.2188 -1.6055
  357TIP3   OH2 1076   3.139   4.363   0.374  0.2651 -0.5362 -0.1184
  357TIP3    H1 1077   3.229   4.333   0.365  0.6594  0.7275 -0.6261
  357TIP3    H2 1078   3.143   4.457   0.355 -0.9026 -0.1347  1.4290
  358TIP3   OH2 1079   5.228   3.445   0.280 -0.5050 -0.2945 -0.3343
  358TIP3    H1 1080   5.241   3.522   0.225  0.3433 -0.7715 -0.8280
  358TIP3    H2 1081   5.314   3.428   0.319 -0.9908 -0.2099  0.8336
  359TIP3   OH2 1082   4.542   1.911   2.462 -0.2758 -0.0090 -0.0740
  359TIP3    H1 1083   4.510   1.974   2.397 -2.2592 -0.6772  0.1838
  359TIP3    H2 1084   4.589   1.845   2.411  0.3963  0.8010 -0.5234
  360TIP3   OH2 1085   3.393   3.869   3.376 -0.3016  0.1962 -0.1519
  360TIP3    H1 1086   3.430   3.802   3.318 -0.8057  0.1880 -0.4757
  360TIP3    H2 1087   3.402   3.951   3.327 -0.1888  0.2820  0.0116
  361TIP3   OH2 1088   6.257   3.154   5.145 -0.2532 -0.1796 -0.0884
  361TIP3    H1 1089   6.311   3.075   5.155  0.2156  0.0219 -0.9602
  361TIP3    H2 1090   6.195   3.149   5.218  0.4380 -0.8220  0.4809
  362TIP3   OH2 1091   1.241   1.659   3.954  0.0601 -0.7977 -0.1277
  362TIP3    H1 1092   1.150   1.687   3.967  0.0876 -1.4243  1.7288
  362TIP3    H2 1093   1.293   1.730   3.991  0.3302 -0.5218 -1.0243
  363TIP3   OH2 1094   4.475   4.100   3.339 -0.0010  0.2366  0.3579
  363TIP3    H1 1095   4.543   4.153   3.381 -0.3417 -0.3956  1.7925
  363TIP3    H2 1096   4.437   4.157   3.272 -0.1054  1.6779  1.5924
  364TIP3   OH2 1097   5.542   2.322   4.891  0.0317 -0.0996  0.1502
  364TIP3    H1 1098   5.461   2.274   4.874 -0.6847  1.4923 -1.1630
  364TIP3    H2 1099   5.514   2.405   4.929  1.1476 -0.0532  0.9389
  365TIP3   OH2 1100   3.225   0.827   0.284  0.0514  0.4252 -0.7947
  365TIP3    H1 1101   3.158   0.773   0.242 -0.8520 -0.1629  1.2518
  365TIP3    H2 1102   3.306   0.776   0.275 -0.2606 -0.0151 -1.1582
  366TIP3   OH2 1103   1.823   1.327   5.058 -0.0816 -0.1612 -0.2511
  366TIP3    H1 1104   1.749   1.381   5.085 -0.4182 -0.7626  0.0622
  366TIP3    H2 1105   1.803   1.240   5.093  0.2913 -0.5652 -1.0111
  367TIP3   OH2 1106   0.353   1.752   1.425 -0.1326  0.1176  0.1868
  367TIP3    H1 1107   0.398   1.675   1.390 -2.0095 -0.9997  0.0966
  367TIP3    H2 1108   0.403   1.776   1.503  0.1973 -1.5100  0.4986
  368TIP3   OH2 1109   6.242   4.369   3.559  0.0105  0.0605 -0.4453
  368TIP3    H1 1110   6.327   4.376   3.516  0.6314 -0.3783  0.6646
  368TIP3    H2 1111   6.214   4.460   3.570  1.4288  0.3610  1.2121
  369TIP3   OH2 1112   1.099   1.393   4.171 -0.1510  0.2048 -0.9534
  369TIP3    H1 1113   1.107   1.303   4.204  0.9556  0.3213 -0.8621
  369TIP3    H2 1114   1.128   1.388   4.080 -1.2258  0.2632 -1.3106
  370TIP3   OH2 1115   2.738   5.009   1.122  0.1415  0.8913  0.2332
  370TIP3    H1 1116   2.787   4.970   1.050 -0.3155  0.1710  0.2957
  370TIP3    H2 1117   2.804   5.028   1.189  0.3138 -0.4300  0.4745
  371TIP3   OH2 1118   4.470   2.913   0.685 -0.6419 -0.1786  0.6987
  371TIP3    H1 1119   4.437   2.902   0.774 -0.7222 -0.8848  0.5855
  371TIP3    H2 1120   4.561   2.884   0.689 -0.8530 -0.8886  0.3968
  372TIP3   OH2 1121   6.060   3.398   3.543  0.1278 -1.2363  0.0281
  372TIP3    H1 1122   6.112   3.318   3.541 -0.9891 -1.9740 -1.3370
  372TIP3    H2 1123   6.103   3.456   3.480  0.0316 -1.3620 -0.1536
  373TIP3   OH2 1124   6.139   1.873   3.291 -0.4347  0.5831 -0.1720
  373TIP3    H1 1125   6.170   1.894   3.378 -2.4164  0.4530  0.6165
  373TIP3    H2 1126   6.059   1.822   3.305 -0.8339  0.5883 -2.0537
  374TIP3   OH2 1127   2.081   5.225   2.818  0.2570 -0.2488  0.0857
  374TIP3    H1 1128   2.110   5.239   2.729  0.2265 -2.9603 -0.4383
  374TIP3    H2 1129   1.990   5.196   2.809 -0.1439  0.6447  1.0970
  375TIP3   OH2 1130   4.658   5.341   4.362 -0.1514 -0.1765 -0.4537
  375TIP3    H1 1131   4.747   5.321   4.389 -0.2047  0.9184  0.6168
  375TIP3    H2 1132   4.623   5.258   4.331  0.1964 -1.3855  2.1511
  376TIP3   OH2 1133   5.178   3.507   2.221  0.1473 -0.1357  0.2033
  376TIP3    H1 1134   5.208   3.444   2.287 -1.4829 -0.1239  1.0056
  376TIP3    H2 1135   5.112   3.459   2.171 -0.2407  0.5527  0.0480
  377TIP3   OH2 1136   1.728   0.904   2.527  0.7821  0.6856  0.0684
  377TIP3    H1 1137   1.699   0.874   2.613  3.3105  0.0876  0.8188
  377TIP3    H2 1138   1.796   0.970   2.546  2.0625 -0.1300 -1.3924
  378TIP3   OH2 1139   0.573   1.923   0.513 -0.5039 -0.1871 -0.4632
  378TIP3    H1 1140   0.566   1.832   0.486  0.6189 -0.5513  0.3844
  378TIP3    H2 1141   0.657   1.952   0.480 -1.1614  0.7847 -1.3495
  379TIP3   OH2 1142   1.360   1.108   2.939 -0.1597 -0.0166  0.3522
  379TIP3    H1 1143   1.382   1.087   2.848 -0.7952  0.7253  0.0154
  379TIP3    H2 1144   1.267   1.086   2.946 -0.1928  0.2451  0.7285
  380TIP3   OH2 1145   5.182   2.514   4.780 -0.2048 -0.0024 -0.1465
  380TIP3    H1 1146   5.213   2.424   4.764  2.2620 -0.2522  4.3205
  380TIP3    H2 1147   5.147   2.512   4.869 -2.2060  3.0953 -0.7046
  381TIP3   OH2 1148   5.971   0.933   4.757  0.5101 -0.0893 -0.0933
  381TIP3    H1 1149   5.956   0.929   4.852  0.2069 -0.2946 -0.1471
  381TIP3    H2 1150   5.912   0.866   4.721 -0.7025  1.2094 -0.5829
  382TIP3   OH2 1151   0.403   1.444   3.791 -0.5440 -0.3849 -0.6949
  382TIP3    H1 1152   0.348   1.522   3.789 -2.5482 -1.5838  2.1662
  382TIP3    H2 1153   0.351   1.376   3.749 -2.3848 -2.0185  3.7023
  383TIP3   OH2 1154   5.226   5.586   4.760 -0.5672 -0.1767  0.0005
  383TIP3    H1 1155   5.163   5.535   4.812  0.1103 -2.0494 -0.9445
  383TIP3    H2 1156   5.228   5.542   4.675  0.3169  1.2471 -0.7508
  384TIP3   OH2 1157   0.744   4.395   3.055 -0.1235  0.0859  0.1934
  384TIP3    H1 1158   0.764   4.443   2.974 -0.3576  1.5186  0.9567
  384TIP3    H2 1159   0.829   4.383   3.098 -0.3440  3.0436  1.7157
  385TIP3   OH2 1160   0.353   0.074   2.891  0.5770 -0.6763  0.6978
  385TIP3    H1 1161   0.305  -0.001   2.927 -0.3650 -0.5920 -0.3257
  385TIP3    H2 1162   0.284   0.136   2.866  1.1602 -0.7404 -1.2240
  386TIP3   OH2 1163   6.242   3.034   0.718 -0.0165 -0.1434  0.2498
  386TIP3    H1 1164   6.235   3.037   0.623  0.7918 -0.8646  0.1615
  386TIP3    H2 1165   6.151   3.033   0.748 -0.2822  0.7090 -0.4793
  387TIP3   OH2 1166   5.122   4.877   4.480  0.2617 -0.1581  0.0719
  387TIP3    H1 1167   5.136   4.847   4.570 -0.4515 -2.0228 -0.3766
  387TIP3    H2 1168   5.202   4.852   4.433  0.8324  1.2392  0.2549
  388TIP3   OH2 1169   2.032   0.930   4.659  0.4763 -0.0003 -0.0902
  388TIP3    H1 1170   1.967   0.991   4.694  0.6369  0.6864 -0.9483
  388TIP3    H2 1171   2.046   0.960   4.569 -1.3098 -2.7763 -1.4181
  389TIP3   OH2 1172   2.835   3.413   4.813  0.3776 -0.2057 -0.2337
  389TIP3    H1 1173   2.759   3.356   4.801  1.7906 -1.9506 -1.2041
  389TIP3    H2 1174   2.882   3.409   4.730  0.7575  2.1039 -0.1945
  390TIP3   OH2 1175   3.339   1.071   0.624 -0.1356 -0.2021  0.0772
  390TIP3    H1 1176   3.284   1.125   0.680  1.9726  0.8798  1.2527
  390TIP3    H2 1177   3.289   0.991   0.609 -1.2065 -0.0999  2.6784
  391TIP3   OH2 1178   6.026   0.341   1.509  0.0418 -0.6560 -0.0421
  391TIP3    H1 1179   6.057   0.305   1.592 -2.0457  0.2459  1.2321
  391TIP3    H2 1180   6.048   0.434   1.513 -0.3813 -0.5394 -0.3206
  392TIP3   OH2 1181   5.760   3.259   3.034  0.2558  0.1927  0.4573
  392TIP3    H1 1182   5.818   3.252   3.110  0.6556  0.3956  0.1740
  392TIP3    H2 1183   5.710   3.339   3.049 -0.6047 -0.4539  1.1443
  393TIP3   OH2 1184   6.220   1.294   4.748 -0.3032 -0.8527 -0.5569
  393TIP3    H1 1185   6.197   1.232   4.816  0.3979 -0.3944  0.1199
  393TIP3    H2 1186   6.186   1.378   4.779 -0.7395 -0.7808 -1.1912
  394TIP3   OH2 1187   2.055   4.600   0.900  0.6927  0.6177  0.2709
  394TIP3    H1 1188   1.977   4.638   0.941 -0.0709 -1.8124  1.2564
  394TIP3    H2 1189   2.120   4.596   0.969  0.6878 -0.0358  0.2430
  395TIP3   OH2 1190   3.133   4.614   0.854  0.2950 -0.2504 -0.1036
  395TIP3    H1 1191   3.171   4.535   0.817  0.6687 -1.0947  1.9462
  395TIP3    H2 1192   3.040   4.593   0.865  0.1834 -0.0005 -0.5557
  396TIP3   OH2 1193   2.596   0.973   2.590  0.1177  0.1837  0.3749
  396TIP3    H1 1194   2.630   1.025   2.663 -1.4094  0.8690  0.6470
  396TIP3    H2 1195   2.559   1.037   2.529 -1.0105 -0.5115  0.2893
  397TIP3   OH2 1196   3.687   5.635   2.814  0.6490 -0.3220  0.3777
  397TIP3    H1 1197   3.634   5.656   2.891  1.2895 -0.6662  0.9160
  397TIP3    H2 1198   3.641   5.678   2.742 -0.2693 -0.4642  0.8581
  398TIP3   OH2 1199   4.759   5.922   4.390 -0.2085 -0.5013 -0.2578
  398TIP3    H1 1200   4.701   5.984   4.346 -0.5168 -0.2208  0.5177
  398TIP3    H2 1201   4.816   5.978   4.444 -1.0743 -0.9096  1.1387
  399TIP3   OH2 1202   5.242   0.614   2.344 -0.0800 -0.1942  0.3781
  399TIP3    H1 1203   5.259   0.629   2.437  0.3043  0.7481  0.1661
  399TIP3    H2 1204   5.321   0.642   2.300 -1.0049  1.3095 -0.3951
  400TIP3   OH2 1205   3.861   1.153   0.777 -0.4551 -0.4977  0.1619
  400TIP3    H1 1206   3.940   1.153   0.832 -1.6291 -0.1025  1.9229
  400TIP3    H2 1207   3.799   1.098   0.825 -1.2368 -0.8823 -1.2467
  401TIP3   OH2 1208   4.255   5.446   2.456  0.2128 -0.7039 -0.1425
  401TIP3    H1 1209   4.239   5.425   2.548  2.9607 -1.3818  0.2678
  401TIP3    H2 1210   4.344   5.415   2.439 -0.3935 -1.1221 -3.2115
  402TIP3   OH2 1211   4.073   5.172   1.091 -0.4900 -0.5858 -0.1946
  402TIP3    H1 1212   4.107   5.116   1.161 -0.4815 -0.5814 -0.1950
  402TIP3    H2 1213   4.025   5.241   1.136  0.2862 -0.0655 -0.1589
  403TIP3   OH2 1214   1.853   4.255   1.176 -0.0473 -0.2671  0.7077
  403TIP3    H1 1215   1.872   4.209   1.258  0.8750 -0.2262  0.5222
  403TIP3    H2 1216   1.932   4.244   1.124  0.3378  1.8122  0.7834
  404TIP3   OH2 1217   5.169   3.158   1.928  0.3264  0.6901 -0.0023
  404TIP3    H1 1218   5.107   3.149   1.855 -0.6232  0.1585  0.8389
  404TIP3    H2 1219   5.188   3.068   1.955  0.0180  0.8863  0.9197
  405TIP3   OH2 1220   5.613   5.438   3.142 -0.1243  0.6039 -0.2175
  405TIP3    H1 1221   5.531   5.449   3.190  0.5701 -0.3974  1.3197
  405TIP3    H2 1222   5.678   5.483   3.196  0.2865  1.7816 -1.6540
  406TIP3   OH2 1223   5.794   4.572   2.888 -0.0466  0.0828 -0.2194
  406TIP3    H1 1224   5.852   4.538   2.821  0.8040  1.9731 -0.4946
  406TIP3    H2 1225   5.797   4.506   2.958  0.7242 -0.8756 -1.1186
  407TIP3   OH2 1226   0.649   4.619   1.216  0.1886 -0.6577  0.2057
  407TIP3    H1 1227   0.659   4.623   1.121 -0.5645  1.7764  0.1668
  407TIP3    H2 1228   0.556   4.633   1.232 -0.1338 -3.3189  1.2992
  408TIP3   OH2 1229   0.912   4.174   1.662  0.1998 -0.8875  0.0744
  408TIP3    H1 1230   0.942   4.083   1.669  1.3146 -0.5822 -0.5773
  408TIP3    H2 1231   0.957   4.219   1.734 -0.8020 -0.9386  0.7657
  409TIP3   OH2 1232   2.682   5.519   2.074  0.0180 -0.6522 -0.2758
  409TIP3    H1 1233   2.627   5.502   1.998 -1.8642 -0.5752  0.9781
  409TIP3    H2 1234   2.637   5.591   2.120  1.2123 -0.5489  0.7891
  410TIP3   OH2 1235   2.746   5.692   3.511 -0.2018 -0.2476 -0.5866
  410TIP3    H1 1236   2.677   5.753   3.484  0.0231 -0.4832 -1.7279
  410TIP3    H2 1237   2.757   5.633   3.436  0.2964 -1.0574  0.1080
  411TIP3   OH2 1238   2.728   5.641   3.224 -0.8314 -0.1843  0.6517
  411TIP3    H1 1239   2.714   5.584   3.148  1.4630 -1.2985  0.9689
  411TIP3    H2 1240   2.748   5.727   3.187  2.4484 -1.1785 -0.2591
  412TIP3   OH2 1241   4.246   0.014   3.708  0.1041  0.1653  0.2758
  412TIP3    H1 1242   4.300   0.092   3.697 -1.6801  1.5765  1.0357
  412TIP3    H2 1243   4.176   0.023   3.643 -0.1875 -0.7312  0.4543
  413TIP3   OH2 1244   2.936   0.462   5.133 -0.5921 -0.1536  0.2686
  413TIP3    H1 1245   2.921   0.538   5.189  3.1185  0.8086  0.1968
  413TIP3    H2 1246   2.943   0.388   5.194 -0.1190  0.2620  0.7230
  414TIP3   OH2 1247   5.701   5.785   4.024  0.5130 -0.1888  0.2362
  414TIP3    H1 1248   5.697   5.689   4.022 -1.4814 -0.1382 -0.9502
  414TIP3    H2 1249   5.749   5.808   3.944  1.1231 -0.1669  0.5965
  415TIP3   OH2 1250   4.204   4.548   4.858  0.5705 -0.4234  0.6024
  415TIP3    H1 1251   4.154   4.630   4.859  0.5525 -0.4021 -0.5185
  415TIP3    H2 1252   4.292   4.572   4.885  0.7907  0.1461 -0.5563
  416TIP3   OH2 1253   5.336   5.743   0.194 -0.1650 -0.8143  0.3319
  416TIP3    H1 1254   5.315   5.837   0.192  0.2870 -0.6695  1.7251
  416TIP3    H2 1255   5.252   5.699   0.187 -0.3108 -0.3449 -1.4664
  417TIP3   OH2 1256   1.242   5.762   3.915  0.7359 -0.5672 -0.1396
  417TIP3    H1 1257   1.197   5.697   3.861 -0.1783 -0.3362  0.3300
  417TIP3    H2 1258   1.179   5.784   3.984  0.7022  1.3658 -0.7245
  418TIP3   OH2 1259   1.402   5.484  -0.016  0.6174 -0.7534  0.0485
  418TIP3    H1 1260   1.377   5.435   0.063 -0.6968  0.5225  0.4650
  418TIP3    H2 1261   1.323   5.532  -0.040  1.4035 -0.0725 -1.2755
  419TIP3   OH2 1262   2.256   4.940   3.678 -0.1204 -0.4086 -0.2940
  419TIP3    H1 1263   2.235   4.847   3.684 -0.4384 -0.3397 -0.3366
  419TIP3    H2 1264   2.187   4.984   3.727  1.2436 -0.3277  1.6707
  420TIP3   OH2 1265   1.799   5.814   2.752  0.4961  0.1492 -0.0585
  420TIP3    H1 1266   1.738   5.741   2.737  1.1016 -0.2668 -0.5255
  420TIP3    H2 1267   1.755   5.889   2.713 -0.8672  0.3953  1.8192
  421TIP3   OH2 1268   2.359   2.795   1.344  0.0353  0.1433  0.4291
  421TIP3    H1 1269   2.305   2.734   1.393 -1.5879  1.0219 -0.1824
  421TIP3    H2 1270   2.303   2.872   1.332  1.2301  0.8766 -0.7207
  422TIP3   OH2 1271   5.353   1.618   3.588  0.0628 -0.0249 -0.1569
  422TIP3    H1 1272   5.420   1.614   3.520  0.0361 -0.7428 -0.1487
  422TIP3    H2 1273   5.400   1.598   3.669 -0.0285  0.1594 -0.0606
  423TIP3   OH2 1274   4.569   1.316   1.353  0.2324  0.2471 -0.1900
  423TIP3    H1 1275   4.527   1.402   1.354 -0.2613  0.0137  0.7630
  423TIP3    H2 1276   4.662   1.335   1.341  0.1353  0.9238  0.0857
  424TIP3   OH2 1277   2.269   1.550   1.146  0.0891 -0.4460 -0.4729
  424TIP3    H1 1278   2.202   1.612   1.117  1.0266  0.3934 -0.9033
  424TIP3    H2 1279   2.246   1.468   1.101 -1.0555 -0.3849 -0.0428
  425TIP3   OH2 1280   0.077   3.119   3.803 -0.3099  0.8366  0.0283
  425TIP3    H1 1281   0.120   3.071   3.732 -0.4501  1.4175 -0.4590
  425TIP3    H2 1282   0.130   3.198   3.815 -0.4575  0.8889  0.3711
  426TIP3   OH2 1283   0.781   1.544   5.122 -0.1176 -0.3448 -0.4868
  426TIP3    H1 1284   0.783   1.468   5.181  0.8233 -0.5120 -0.7217
  426TIP3    H2 1285   0.704   1.530   5.068  1.1077 -2.2131 -1.8892
  427TIP3   OH2 1286   2.623   5.997   1.235 -0.6004 -0.1788 -0.5634
  427TIP3    H1 1287   2.581   5.911   1.232  2.5610 -1.8762 -0.4916
  427TIP3    H2 1288   2.602   6.037   1.151 -0.7251 -1.7989 -1.3496
  428TIP3   OH2 1289   4.336   0.979   5.079  0.0891  0.6596  0.2923
  428TIP3    H1 1290   4.428   0.971   5.052 -0.3077 -0.6072 -0.8115
  428TIP3    H2 1291   4.305   1.058   5.035  0.0099 -0.2804 -1.4304
  429TIP3   OH2 1292   5.830   0.420   1.812  0.1341  0.4747  0.0508
  429TIP3    H1 1293   5.854   0.380   1.895  0.2155  1.0854  0.3257
  429TIP3    H2 1294   5.765   0.486   1.835 -0.8976 -0.3034 -0.5377
  430TIP3   OH2 1295   0.576   4.540   1.899 -0.0392 -0.4052  0.9824
  430TIP3    H1 1296   0.630   4.546   1.978  1.4124 -0.5372  0.0459
  430TIP3    H2 1297   0.498   4.591   1.919  0.8772  0.6360  2.0546
  431TIP3   OH2 1298   4.633   2.291   0.079  0.2219  0.1895 -0.2505
  431TIP3    H1 1299   4.632   2.244  -0.004  2.3843  0.6748 -0.6026
  431TIP3    H2 1300   4.547   2.332   0.084 -1.5540 -3.1487 -0.2252
  432TIP3   OH2 1301   1.579   5.499   4.003 -0.4622  0.1169 -0.0362
  432TIP3    H1 1302   1.592   5.453   3.920 -0.4693 -2.5862  1.3557
  432TIP3    H2 1303   1.488   5.481   4.027 -0.1000 -0.1986  1.1504
  433TIP3   OH2 1304   3.383   5.077   1.909 -0.0140 -0.0746  0.1079
  433TIP3    H1 1305   3.392   4.983   1.927  1.1464  0.0794  0.4331
  433TIP3    H2 1306   3.386   5.083   1.813  0.7943 -0.3131  0.1024
  434TIP3   OH2 1307   6.195   3.658   0.459  0.1600  0.0950  0.0549
  434TIP3    H1 1308   6.228   3.748   0.450 -3.3608  1.6152  0.7790
  434TIP3    H2 1309   6.199   3.640   0.553  0.7521 -0.5022 -0.0760
  435TIP3   OH2 1310   1.541   5.781   3.135  0.0151  0.1213 -0.2520
  435TIP3    H1 1311   1.510   5.789   3.225  0.1988 -2.4758  0.1406
  435TIP3    H2 1312   1.635   5.799   3.140 -0.5071  3.4329 -0.6244
  436TIP3   OH2 1313   4.142   2.110   4.698  0.3455 -0.1638  0.0205
  436TIP3    H1 1314   4.199   2.117   4.774 -0.9739 -0.1590  1.0547
  436TIP3    H2 1315   4.055   2.096   4.735 -0.1532 -1.4333 -1.5239
  437TIP3   OH2 1316   5.208   4.132   0.261 -0.3296  0.5119  0.2533
  437TIP3    H1 1317   5.263   4.074   0.208 -0.3648  0.0156  0.7471
  437TIP3    H2 1318   5.270   4.184   0.311 -0.2329  2.3349 -1.6188
  438TIP3   OH2 1319   1.179   5.233   3.743  0.7147 -0.3057  0.1988
  438TIP3    H1 1320   1.108   5.261   3.684  1.1842 -2.7038 -1.6422
  438TIP3    H2 1321   1.255   5.224   3.686  1.0591 -3.2645  0.9717
  439TIP3   OH2 1322   3.388   5.938   4.009 -0.2601 -0.2597 -0.2034
  439TIP3    H1 1323   3.325   5.928   4.080 -0.4526  0.9760 -0.1840
  439TIP3    H2 1324   3.362   6.019   3.964  1.4628  0.4453 -0.0173
  440TIP3   OH2 1325   1.113   1.578   5.091 -0.2391 -0.2260 -0.0044
  440TIP3    H1 1326   1.152   1.666   5.087 -0.6644 -0.0628 -1.0717
  440TIP3    H2 1327   1.023   1.594   5.119 -0.7842 -0.1237 -1.6792
  441TIP3   OH2 1328   3.780   3.125   0.538 -0.0019 -0.1916  0.2080
  441TIP3    H1 1329   3.782   3.210   0.581  1.7743 -0.0294 -0.1161
  441TIP3    H2 1330   3.820   3.065   0.601 -3.3095 -1.3638  1.4207
  442TIP3   OH2 1331   5.677   1.592   2.190 -0.1371 -0.0868  0.5077
  442TIP3    H1 1332   5.651   1.669   2.140 -1.2915 -0.1206  1.0022
  442TIP3    H2 1333   5.763   1.613   2.225  0.2320  0.3404 -0.6374
  443TIP3   OH2 1334   2.155   3.424   3.605  0.3602 -0.1118 -0.1195
  443TIP3    H1 1335   2.208   3.349   3.578 -2.0689 -2.0039  0.0106
  443TIP3    H2 1336   2.177   3.436   3.698  2.0097  0.5185 -0.5450
  444TIP3   OH2 1337   5.309   2.751   4.782  0.0859 -0.2240  0.3375
  444TIP3    H1 1338   5.286   2.658   4.786  0.2811 -0.3674 -1.1382
  444TIP3    H2 1339   5.225   2.796   4.773  0.1250 -0.5374 -2.2382
  445TIP3   OH2 1340   1.595   5.849   2.446  0.9110  0.1267  0.6222
  445TIP3    H1 1341   1.584   5.899   2.365  2.7893  0.8139  0.7475
  445TIP3    H2 1342   1.573   5.759   2.422  0.7207  0.4457 -0.4448
  446TIP3   OH2 1343   4.730   3.202   0.680 -0.1210 -0.0066  0.8347
  446TIP3    H1 1344   4.741   3.229   0.589  0.4889 -0.9457  0.6157
  446TIP3    H2 1345   4.732   3.107   0.678  0.1782 -0.0404  1.8618
  447TIP3   OH2 1346   2.518   0.038   0.717  0.2950 -0.3803 -0.0428
  447TIP3    H1 1347   2.432   0.003   0.739  0.5674 -0.6124  0.6669
  447TIP3    H2 1348   2.537   0.001   0.631 -0.7134  0.4163 -0.6422
  448TIP3   OH2 1349   2.663   1.642   4.933  0.3899 -0.2470 -0.0364
  448TIP3    H1 1350   2.690   1.701   4.863  0.0729 -0.7669 -0.6093
  448TIP3    H2 1351   2.588   1.594   4.897 -0.9556  0.7511  1.2905
  449TIP3   OH2 1352   2.871   0.282   2.803 -0.5665 -0.3512 -0.2330
  449TIP3    H1 1353   2.785   0.245   2.819 -1.4069  1.5088 -0.1851
  449TIP3    H2 1354   2.888   0.265   2.710 -2.3782  1.8701 -1.0499
  450TIP3   OH2 1355   1.609   2.545   3.838  0.2344 -0.0755 -0.3502
  450TIP3    H1 1356   1.625   2.635   3.807  0.3452  0.8323  2.1387
  450TIP3    H2 1357   1.671   2.534   3.910 -0.7159 -1.6824  0.2434
  451TIP3   OH2 1358   5.766   5.094   4.375  0.3315 -0.1366 -0.2576
  451TIP3    H1 1359   5.861   5.082   4.376  0.2799 -0.5627 -0.4626
  451TIP3    H2 1360   5.755   5.189   4.368  0.7425 -0.1372 -1.0915
  452TIP3   OH2 1361   0.381   1.556   2.356 -0.7815  0.8063  0.3860
  452TIP3    H1 1362   0.452   1.564   2.420  0.1647 -0.9640 -0.3784
  452TIP3    H2 1363   0.424   1.533   2.274 -2.2525 -1.1251  0.0735
  453TIP3   OH2 1364   3.538   4.806   3.638 -0.5658  0.0417 -0.2007
  453TIP3    H1 1365   3.443   4.805   3.627 -0.5691 -0.2116 -0.1749
  453TIP3    H2 1366   3.567   4.725   3.595 -0.5341 -0.7467  1.2450
  454TIP3   OH2 1367   3.447   4.329   3.410  0.6140 -0.2471 -0.4795
  454TIP3    H1 1368   3.497   4.355   3.333  0.2763  1.1406 -0.2619
  454TIP3    H2 1369   3.357   4.324   3.380  0.5136  0.0631 -0.2413
  455TIP3   OH2 1370   2.731   1.074   3.405 -0.1489 -0.1737 -0.2999
  455TIP3    H1 1371   2.673   1.042   3.473 -0.5399  3.2689  1.1616
  455TIP3    H2 1372   2.818   1.072   3.445 -0.0535 -0.2088 -0.5077
  456TIP3   OH2 1373   4.713   2.484   3.251 -0.3389 -0.2912 -0.5202
  456TIP3    H1 1374   4.619   2.475   3.234 -0.7180  0.2952  1.0395
  456TIP3    H2 1375   4.722   2.462   3.344  0.6655  1.9771 -0.0133
  457TIP3   OH2 1376   1.868   4.468   4.838  0.1777 -0.7241  0.1923
  457TIP3    H1 1377   1.865   4.540   4.775 -0.3806 -1.2610 -0.4086
  457TIP3    H2 1378   1.778   4.435   4.840  0.0296 -0.2971  1.7693
  458TIP3   OH2 1379   2.175   3.325   1.092  0.9138 -0.0228 -0.5054
  458TIP3    H1 1380   2.198   3.287   1.177 -0.3565  0.9784  0.3229
  458TIP3    H2 1381   2.081   3.311   1.084  0.4955  2.3998 -0.4146
  459TIP3   OH2 1382   3.089   5.836   2.507  0.0349  0.4329  0.2448
  459TIP3    H1 1383   3.080   5.925   2.473  0.8214  0.6726  0.6251
  459TIP3    H2 1384   3.180   5.813   2.489 -0.3730 -0.6109 -0.5730
  460TIP3   OH2 1385   5.250   1.708   5.079 -0.5272 -0.0310 -0.3665
  460TIP3    H1 1386   5.291   1.688   4.995  1.9510  0.1491  0.7207
  460TIP3    H2 1387   5.319   1.696   5.144 -2.3115 -0.0545  1.6848
  461TIP3   OH2 1388   1.146   5.001   1.300  0.4063 -0.2496 -0.1245
  461TIP3    H1 1389   1.200   4.926   1.275  1.6795  0.9842 -1.2930
  461TIP3    H2 1390   1.070   4.997   1.241  0.0488 -1.0599  0.3797
  462TIP3   OH2 1391   3.958   5.301   2.978  0.3675 -0.3435  0.2384
  462TIP3    H1 1392   4.053   5.301   2.983  0.3434  0.6330  1.0250
  462TIP3    H2 1393   3.933   5.393   2.980 -0.6471 -0.6027  1.5835
  463TIP3   OH2 1394   5.942   3.613   3.983  0.2000 -0.3720  0.2735
  463TIP3    H1 1395   6.034   3.639   3.987  0.1012  0.2601 -0.9396
  463TIP3    H2 1396   5.938   3.550   3.911 -0.3321 -0.3372  0.2683
  464TIP3   OH2 1397   2.659   1.960   0.537 -0.4340  0.9098 -0.4549
  464TIP3    H1 1398   2.745   1.974   0.577 -0.2055  2.3320 -1.3500
  464TIP3    H2 1399   2.668   1.879   0.488  0.5636  1.2774 -0.9075
  465TIP3   OH2 1400   1.509   3.753   2.781  0.0709  0.3094 -0.7439
  465TIP3    H1 1401   1.455   3.690   2.829  0.9613  1.1235  1.4382
  465TIP3    H2 1402   1.531   3.708   2.699 -1.6001 -1.0929 -0.4833
  466TIP3   OH2 1403   2.007   0.357   2.630 -0.1744  0.1232  0.2885
  466TIP3    H1 1404   2.067   0.293   2.665 -1.7007 -0.8728  1.1950
  466TIP3    H2 1405   1.930   0.353   2.687 -0.2121  2.9956  0.5869
  467TIP3   OH2 1406   0.230   0.474   3.421  0.4887  0.0721  0.4127
  467TIP3    H1 1407   0.223   0.495   3.328 -1.0344 -0.4235  0.3869
  467TIP3    H2 1408   0.309   0.519   3.450  1.6064 -0.6548 -1.3544
  468TIP3   OH2 1409   4.575   5.710   4.599 -0.5019 -0.2547 -0.1032
  468TIP3    H1 1410   4.504   5.749   4.548  0.4004  0.4401 -0.8673
  468TIP3    H2 1411   4.643   5.778   4.601  1.7191 -2.2173 -2.6590
  469TIP3   OH2 1412   4.922   3.056   4.967  0.6391 -0.0189  0.4701
  469TIP3    H1 1413   4.956   2.966   4.964  0.6099 -0.0272  0.3682
  469TIP3    H2 1414   4.937   3.090   4.879 -0.9808 -0.5315 -0.0540
  470TIP3   OH2 1415   4.014   4.178   2.216  0.5885  0.4958 -0.2660
  470TIP3    H1 1416   4.032   4.260   2.262  2.0741  0.7548 -1.2376
  470TIP3    H2 1417   4.096   4.157   2.171 -0.2904 -0.6262 -1.4173
  471TIP3   OH2 1418   6.184   1.129   0.725 -0.2631  0.0913 -0.4246
  471TIP3    H1 1419   6.197   1.067   0.652 -0.2559 -1.9042  1.1687
  471TIP3    H2 1420   6.239   1.094   0.795 -1.8355  0.7750  1.2104
  472TIP3   OH2 1421   3.638   1.615   4.990 -0.3368  0.1485 -0.0608
  472TIP3    H1 1422   3.704   1.581   4.929  0.4837  1.0461  0.3147
  472TIP3    H2 1423   3.663   1.706   5.006 -0.7962  0.0626  1.2794
  473TIP3   OH2 1424   5.951   3.186   3.245 -0.3056  0.0912  0.3013
  473TIP3    H1 1425   6.018   3.245   3.209 -1.3804 -0.0788 -2.1310
  473TIP3    H2 1426   6.000   3.109   3.275  0.6348 -0.0261 -1.4286
  474TIP3   OH2 1427   0.733   5.919   0.838 -0.4486  0.6872 -0.0603
  474TIP3    H1 1428   0.666   5.852   0.821  0.2442 -0.4484  1.4068
  474TIP3    H2 1429   0.740   5.967   0.756 -2.2865  0.1433 -0.5852
  475TIP3   OH2 1430   2.733  -0.013   4.913 -0.2018  0.1391 -0.3977
  475TIP3    H1 1431   2.770  -0.014   5.001  0.2054 -0.6169 -0.5743
  475TIP3    H2 1432   2.764   0.069   4.875  3.0013 -1.3344 -1.2502
  476TIP3   OH2 1433   0.721   2.693   3.458  0.0277 -0.0980  0.4997
  476TIP3    H1 1434   0.720   2.785   3.433  0.0709 -0.1160  0.4293
  476TIP3    H2 1435   0.792   2.655   3.406  0.4663 -0.0282  1.0422
  477TIP3   OH2 1436   5.662   1.499   1.175 -0.1999 -0.1283 -0.6334
  477TIP3    H1 1437   5.722   1.569   1.200  0.2175 -0.7462  0.1238
  477TIP3    H2 1438   5.716   1.420   1.172 -0.5170 -0.3215 -2.1880
  478TIP3   OH2 1439   3.840   0.152   5.001 -0.0212  0.5785 -0.7298
  478TIP3    H1 1440   3.932   0.170   5.020 -0.5681  0.4717  2.3924
  478TIP3    H2 1441   3.794   0.231   5.025 -0.9881 -0.1702 -0.0475
  479TIP3   OH2 1442   4.427   4.148   1.832 -0.0155  0.5265 -0.1893
  479TIP3    H1 1443   4.501   4.137   1.772 -1.2157  1.9894 -2.0435
  479TIP3    H2 1444   4.468   4.172   1.915  1.6359  0.0268 -0.8154
  480TIP3   OH2 1445   4.375   0.498   4.124 -0.1536  0.8660 -0.9474
  480TIP3    H1 1446   4.307   0.507   4.191  0.7781 -1.6817  0.4662
  480TIP3    H2 1447   4.442   0.562   4.148  0.1977 -0.0654  0.6431
  481TIP3   OH2 1448   4.239   2.064   2.962  0.0559 -0.4908  0.2056
  481TIP3    H1 1449   4.180   2.078   3.036 -0.4033  2.0965 -0.5697
  481TIP3    H2 1450   4.194   2.101   2.887  1.7506 -0.3668 -0.8096
  482TIP3   OH2 1451   3.368   5.067   1.639  0.1208  0.3330 -0.5217
  482TIP3    H1 1452   3.352   5.119   1.560  3.6067  1.4204 -0.6934
  482TIP3    H2 1453   3.403   4.984   1.608  0.6087  0.4048 -0.1988
  483TIP3   OH2 1454   3.770   4.401   3.321 -0.0379 -0.0778 -0.2086
  483TIP3    H1 1455   3.823   4.460   3.268 -0.6804  0.6945 -0.0000
  483TIP3    H2 1456   3.687   4.393   3.275 -1.0067  1.4456  1.1642
  484TIP3   OH2 1457   4.051   2.619   3.839  0.0692 -0.2293  0.0083
  484TIP3    H1 1458   3.981   2.669   3.881  0.2470 -0.4407  0.5595
  484TIP3    H2 1459   4.008   2.576   3.765 -0.3934 -0.3775  0.3548
  485TIP3   OH2 1460   5.194   1.821   2.784 -0.4716  0.1478 -0.0888
  485TIP3    H1 1461   5.214   1.766   2.709  0.0470 -0.5110  0.5168
  485TIP3    H2 1462   5.120   1.778   2.827 -0.7658  0.5204 -0.2126
  486TIP3   OH2 1463   3.343   5.423   1.231 -0.1314 -0.2381 -0.4895
  486TIP3    H1 1464   3.375   5.357   1.169  1.7457 -0.1234  0.2940
  486TIP3    H2 1465   3.419   5.477   1.250 -1.5054  1.9207 -0.7608
  487TIP3   OH2 1466   0.426   0.113   1.151  0.6762 -0.1653  0.3705
  487TIP3    H1 1467   0.460   0.025   1.139  0.5318 -0.0966 -0.6267
  487TIP3    H2 1468   0.353   0.103   1.212  0.6955 -0.7218  0.2996
  488TIP3   OH2 1469   2.426   5.412   3.296 -0.3711  0.6866  0.1909
  488TIP3    H1 1470   2.463   5.497   3.275  1.1728  0.0914  0.4246
  488TIP3    H2 1471   2.350   5.432   3.352 -0.1522  1.9009  0.0766
  489TIP3   OH2 1472   0.191   3.134   2.463 -0.6403 -0.5656  0.3766
  489TIP3    H1 1473   0.204   3.043   2.437 -0.6907 -0.4812  0.0435
  489TIP3    H2 1474   0.232   3.141   2.549  1.5907 -0.3154 -0.6239
  490TIP3   OH2 1475   3.586   5.421   0.664 -0.3162  0.9747  0.0433
  490TIP3    H1 1476   3.541   5.495   0.624 -0.1093  1.3625  0.5230
  490TIP3    H2 1477   3.672   5.420   0.623 -0.3325  0.9779  0.0091
  491TIP3   OH2 1478   3.614   1.093   0.531 -0.1341  0.3527  0.2997
  491TIP3    H1 1479   3.522   1.074   0.546 -0.2192 -0.3874 -1.0541
  491TIP3    H2 1480   3.651   1.011   0.497  0.7636  0.9703 -0.2625
  492TIP3   OH2 1481   3.719   4.503   1.946 -0.0274  0.1762  0.4088
  492TIP3    H1 1482   3.688   4.469   2.030  0.2585 -1.2985 -0.0518
  492TIP3    H2 1483   3.813   4.515   1.957 -0.1237  0.8108  0.5618
  493TIP3   OH2 1484   0.107   3.095   1.934  0.2184 -0.4698 -0.5942
  493TIP3    H1 1485   0.121   3.109   2.028 -2.9678 -4.1275  0.7191
  493TIP3    H2 1486   0.047   3.164   1.907  0.6553  0.2354  0.2004
  494TIP3   OH2 1487   0.657   0.294   3.042 -0.2522 -0.1690  0.3373
  494TIP3    H1 1488   0.623   0.264   3.127 -0.4933  1.6432  0.9352
  494TIP3    H2 1489   0.742   0.332   3.063 -0.0539 -0.2242 -0.3474
  495TIP3   OH2 1490   4.328   1.252   4.981  0.0764  0.1284  0.0427
  495TIP3    H1 1491   4.328   1.275   4.888 -0.3714  0.5970  0.1599
  495TIP3    H2 1492   4.299   1.331   5.026 -1.6319 -0.6951  0.4446
  496TIP3   OH2 1493   5.450   4.668   0.922  0.2335 -0.4192  0.6506
  496TIP3    H1 1494   5.384   4.658   0.854  0.1666 -2.2053  0.9250
  496TIP3    H2 1495   5.409   4.726   0.987 -0.1405  0.3733 -0.2759
  497TIP3   OH2 1496   1.381   4.729   1.873 -0.6265 -0.1071 -0.0674
  497TIP3    H1 1497   1.387   4.636   1.853 -1.5260  0.3091 -2.5051
  497TIP3    H2 1498   1.435   4.772   1.806 -1.5345  1.2234  0.0148
  498TIP3   OH2 1499   5.487   1.941   4.224  0.0592 -0.0765 -0.0675
  498TIP3    H1 1500   5.562   1.985   4.264 -0.8696  1.1714  0.3729
  498TIP3    H2 1501   5.502   1.948   4.130 -0.5487  2.1558 -0.0511
  499TIP3   OH2 1502   4.126   5.135   1.577  0.8970  0.5505  0.5157
  499TIP3    H1 1503   4.071   5.169   1.648  1.4819  1.5794  0.5028
  499TIP3    H2 1504   4.101   5.043   1.569  1.2053  0.2481  2.4351
  500TIP3   OH2 1505   0.445   4.597   3.461 -0.3296  0.2022 -0.2129
  500TIP3    H1 1506   0.398   4.517   3.484 -0.5103 -0.1101 -1.5636
  500TIP3    H2 1507   0.435   4.604   3.366 -1.2613  2.4489  0.0060
  501TIP3   OH2 1508   4.861   5.957   4.843  0.4543 -0.1671 -0.2134
  501TIP3    H1 1509   4.882   5.897   4.771 -1.2962 -0.2221 -0.7439
  501TIP3    H2 1510   4.771   5.984   4.825 -0.0006 -0.1052  1.9059
  502TIP3   OH2 1511   1.954   0.950   0.519  0.1915  0.4326 -0.1391
  502TIP3    H1 1512   2.015   0.879   0.496 -0.1561  0.0122  0.2209
  502TIP3    H2 1513   2.007   1.011   0.569 -0.1005 -0.8597  1.8471
  503TIP3   OH2 1514   2.598   3.368   2.928  0.8767  0.3965 -0.0798
  503TIP3    H1 1515   2.643   3.294   2.886  1.9971  0.9122  0.1689
  503TIP3    H2 1516   2.544   3.406   2.858  0.2690 -0.6458 -0.2061
  504TIP3   OH2 1517   5.925   2.029   3.468  0.1976  0.1081  0.1985
  504TIP3    H1 1518   5.858   1.982   3.517 -0.3389  0.2596 -0.3775
  504TIP3    H2 1519   5.917   1.996   3.378  1.3781 -0.4118  0.2591
  505TIP3   OH2 1520   1.965   3.190   1.250  0.0476  0.3398 -0.3969
  505TIP3    H1 1521   1.965   3.284   1.270 -2.2490  0.2243  0.4467
  505TIP3    H2 1522   1.885   3.177   1.199  0.1814 -1.2051 -0.2424
  506TIP3   OH2 1523   0.699   4.093   1.171 -0.5534 -0.1887  0.2731
  506TIP3    H1 1524   0.763   4.144   1.221  1.3799 -1.3270 -0.8792
  506TIP3    H2 1525   0.751   4.023   1.132 -1.9194  0.4670 -3.1054
  507TIP3   OH2 1526   2.001   5.220   4.765 -0.1593  0.1596  0.4167
  507TIP3    H1 1527   2.038   5.154   4.822  0.4230  0.1797  0.0719
  507TIP3    H2 1528   1.930   5.175   4.718  0.2198 -0.2106  0.2011
  508TIP3   OH2 1529   3.648   0.609   0.797 -0.1809 -0.0405  0.5940
  508TIP3    H1 1530   3.608   0.662   0.866 -1.2289  0.3965 -0.3193
  508TIP3    H2 1531   3.664   0.671   0.726  2.5357 -0.0949  1.0280
  509TIP3   OH2 1532   3.923   4.822   3.675  0.2714  0.1766 -0.6534
  509TIP3    H1 1533   3.860   4.866   3.733 -0.9180 -0.6324 -1.2797
  509TIP3    H2 1534   3.919   4.872   3.594  2.1318  1.4692 -0.0108
  510TIP3   OH2 1535   4.220   2.139   1.721 -0.0894 -0.6949 -0.1368
  510TIP3    H1 1536   4.225   2.076   1.649  2.0104 -1.1097  0.3037
  510TIP3    H2 1537   4.304   2.185   1.718 -0.8530  0.8146  0.7036
  511TIP3   OH2 1538   3.644   1.021   5.137  0.1461 -0.1798  0.2529
  511TIP3    H1 1539   3.625   1.046   5.047 -1.2893 -1.2062  0.2353
  511TIP3    H2 1540   3.731   0.981   5.134  0.8929  1.4144 -0.3308
  512TIP3   OH2 1541   4.562   3.995   0.113 -0.0983 -0.2017 -0.2872
  512TIP3    H1 1542   4.608   3.961   0.036  0.0540 -0.8379  0.0831
  512TIP3    H2 1543   4.611   3.962   0.187  0.5098  1.4664  0.0873
  513TIP3   OH2 1544   6.045   3.735   3.291 -0.0302  0.2160 -0.2783
  513TIP3    H1 1545   6.115   3.676   3.319 -0.8212 -1.7757 -2.1368
  513TIP3    H2 1546   5.965   3.698   3.330 -0.5539 -0.1109 -1.5930
  514TIP3   OH2 1547   3.530   2.086   5.062 -0.0239 -0.1313 -0.4441
  514TIP3    H1 1548   3.494   2.069   4.975 -1.5082  1.8824 -0.2749
  514TIP3    H2 1549   3.464   2.053   5.123  0.4704 -0.4656 -0.0826
  515TIP3   OH2 1550   0.501   4.275   1.898 -0.4616  0.0334 -0.3587
  515TIP3    H1 1551   0.525   4.365   1.874  1.6242 -0.0262  1.1675
  515TIP3    H2 1552   0.467   4.283   1.987  1.1909 -0.7998  0.4024
  516TIP3   OH2 1553   0.454   0.363   1.044  0.3873  0.2375  0.1029
  516TIP3    H1 1554   0.493   0.364   0.957 -0.2159  1.2628 -0.1763
  516TIP3    H2 1555   0.437   0.271   1.062  1.5254 -0.0885 -0.3925
  517TIP3   OH2 1556   6.042   0.336   0.402 -0.2653 -0.4391  0.4142
  517TIP3    H1 1557   6.051   0.329   0.307 -1.1262 -0.9766  0.3585
  517TIP3    H2 1558   6.130   0.357   0.433 -0.1046  0.4177 -0.5564
  518TIP3   OH2 1559   2.310   0.682   3.289 -0.1322 -0.0548 -0.0164
  518TIP3    H1 1560   2.392   0.705   3.332  1.7283 -1.3161 -2.5981
  518TIP3    H2 1561   2.273   0.766   3.261  0.2474  0.5229  1.1628
  519TIP3   OH2 1562   3.679   1.635   3.829 -0.1921 -0.4423  0.3792
  519TIP3    H1 1563   3.700   1.554   3.876 -1.9881 -0.2838  1.5521
  519TIP3    H2 1564   3.762   1.681   3.822  0.3701 -1.0631  2.3248
  520TIP3   OH2 1565   3.404   5.803   0.286 -0.6239 -0.6665  0.0650
  520TIP3    H1 1566   3.329   5.783   0.229  0.6728 -0.1523 -1.9344
  520TIP3    H2 1567   3.391   5.894   0.312 -0.4718 -0.4243 -0.6801
  521TIP3   OH2 1568   0.121   1.684   0.320  0.3510  0.0299  0.9369
  521TIP3    H1 1569   0.080   1.606   0.283 -0.2270  0.4313  0.7129
  521TIP3    H2 1570   0.208   1.686   0.282  0.1468 -0.1622  0.4517
  522TIP3   OH2 1571   2.415   2.948   0.449 -0.0222 -0.1876  1.1625
  522TIP3    H1 1572   2.420   2.994   0.532  1.5352  1.3188  0.3054
  522TIP3    H2 1573   2.491   2.890   0.449 -0.6487 -1.0155  1.2540
  523TIP3   OH2 1574   0.578   0.357   0.790 -0.6507  0.0164  0.5671
  523TIP3    H1 1575   0.570   0.391   0.701 -0.6176  1.7366  1.1831
  523TIP3    H2 1576   0.603   0.266   0.779 -0.4286  0.2604 -1.1830
  524TIP3   OH2 1577   2.815   4.525   3.793  0.5746 -0.5607  0.2831
  524TIP3    H1 1578   2.728   4.487   3.781 -0.4852  2.1409 -1.7867
  524TIP3    H2 1579   2.813   4.564   3.881 -1.0833  1.0827 -0.4218
  525TIP3   OH2 1580   4.522   5.653   1.173  0.3011  0.1704 -0.1155
  525TIP3    H1 1581   4.542   5.714   1.244 -0.5659 -0.2925  0.5511
  525TIP3    H2 1582   4.426   5.655   1.167  0.3200 -0.4357 -0.7087
  526TIP3   OH2 1583   4.267   1.777   2.745  0.2283 -0.3708  0.0180
  526TIP3    H1 1584   4.178   1.797   2.773  0.4771  0.2566  0.3629
  526TIP3    H2 1585   4.269   1.803   2.653  0.0103 -0.5507 -0.0404
  527TIP3   OH2 1586   5.720   2.348   2.390  0.8191 -0.4369 -0.4803
  527TIP3    H1 1587   5.693   2.328   2.300 -0.3360 -0.3603 -0.1743
  527TIP3    H2 1588   5.648   2.316   2.444  1.0498  0.3849  0.3490
  528TIP3   OH2 1589   0.029   3.379   2.334 -0.2931  0.1072  0.2168
  528TIP3    H1 1590   0.076   3.452   2.374  1.7550  0.3955 -2.4154
  528TIP3    H2 1591   0.067   3.300   2.373  1.7329  0.3766 -1.0973
  529TIP3   OH2 1592   2.862   0.119   1.042  0.0627  0.2224  0.0614
  529TIP3    H1 1593   2.882   0.059   0.970 -0.7656 -1.4519  1.1573
  529TIP3    H2 1594   2.771   0.144   1.027 -0.9987 -2.2053  1.8374
  530TIP3   OH2 1595   3.840   4.500   0.215  0.3514 -0.1628 -0.1315
  530TIP3    H1 1596   3.770   4.534   0.159  0.2144 -0.4526 -0.1387
  530TIP3    H2 1597   3.808   4.414   0.243  0.2854  0.0936  0.6195
  531TIP3   OH2 1598   1.413   0.446   0.585 -0.0355  0.0356 -0.2236
  531TIP3    H1 1599   1.409   0.352   0.572 -0.5104  0.0719 -0.3755
  531TIP3    H2 1600   1.347   0.481   0.525 -0.7065  0.3742  0.6855
  532TIP3   OH2 1601   5.100   2.550   0.977  0.4698 -0.2759  0.6603
  532TIP3    H1 1602   5.194   2.569   0.974  0.4549 -0.2632  0.0647
  532TIP3    H2 1603   5.095   2.463   1.015  0.7581 -0.4595  0.2933
  533TIP3   OH2 1604   0.973   0.623   2.737  0.1271  0.1075  0.7865
  533TIP3    H1 1605   0.892   0.663   2.767  0.0682  0.1223  0.6088
  533TIP3    H2 1606   0.966   0.623   2.642 -0.6193 -1.8518  0.7848
  534TIP3   OH2 1607   2.977   2.220   2.305  0.2097 -0.3982  0.0477
  534TIP3    H1 1608   2.928   2.279   2.248 -0.1116 -0.5283  0.1845
  534TIP3    H2 1609   2.927   2.219   2.386  1.4984  1.0092  0.9107
  535TIP3   OH2 1610   4.073   4.364   3.240 -0.1133 -0.1749 -0.3459
  535TIP3    H1 1611   4.108   4.399   3.322 -0.4046 -1.9294  0.5698
  535TIP3    H2 1612   3.987   4.330   3.262  0.2537 -1.6801 -1.1036
  536TIP3   OH2 1613   2.430   1.943   1.128 -0.2650  0.0470  0.9480
  536TIP3    H1 1614   2.492   2.015   1.117 -0.6343  0.3481  0.8181
  536TIP3    H2 1615   2.452   1.881   1.059  0.3561 -0.1874  1.3450
  537TIP3   OH2 1616   2.058   0.172   1.944 -0.0588 -0.2692 -0.1822
  537TIP3    H1 1617   2.046   0.148   2.036 -0.1663 -1.0282 -0.3899
  537TIP3    H2 1618   2.147   0.145   1.923 -0.9214 -2.6535 -1.0474
  538TIP3   OH2 1619   4.164   0.312   4.268 -0.0426 -0.6253  0.5068
  538TIP3    H1 1620   4.186   0.267   4.350 -0.2360 -1.4193  0.1360
  538TIP3    H2 1621   4.207   0.260   4.200 -0.3722 -0.3105  0.0539
  539TIP3   OH2 1622   1.070   1.755   2.098  0.2546  0.3216 -0.0963
  539TIP3    H1 1623   1.103   1.774   2.186  0.9010  0.6379 -0.4015
  539TIP3    H2 1624   1.131   1.800   2.039 -0.2535  0.2306 -0.7030
  540TIP3   OH2 1625   0.753   5.883   2.219 -0.2592 -0.3662 -0.3485
  540TIP3    H1 1626   0.704   5.830   2.281  1.7506 -0.9438  0.8595
  540TIP3    H2 1627   0.769   5.825   2.144  0.7520 -1.0436  0.3719
  541TIP3   OH2 1628   6.059   1.584   3.896  0.0680  0.0639  0.4806
  541TIP3    H1 1629   6.128   1.520   3.917 -1.0505 -1.3958 -0.1703
  541TIP3    H2 1630   6.091   1.629   3.817 -0.1833 -1.3577 -0.4593
  542TIP3   OH2 1631   5.640   2.548   2.709  0.5149 -0.1626  0.5306
  542TIP3    H1 1632   5.705   2.560   2.640  0.3777 -1.2751  0.1933
  542TIP3    H2 1633   5.689   2.512   2.783  0.2230 -1.5090  0.0991
  543TIP3   OH2 1634   4.312   3.256   1.430 -0.0617 -0.1187  0.0940
  543TIP3    H1 1635   4.385   3.214   1.475 -0.2254  0.1214  0.5859
  543TIP3    H2 1636   4.236   3.201   1.450  0.3445 -1.7285 -2.3183
  544TIP3   OH2 1637   3.723   1.960   2.974 -0.1228 -0.5550  0.2777
  544TIP3    H1 1638   3.666   1.966   3.050  1.2194 -1.5388  1.4017
  544TIP3    H2 1639   3.806   1.928   3.008  1.2364  1.1380 -1.2465
  545TIP3   OH2 1640   3.140   5.944   4.434  0.1976 -1.0892 -0.5242
  545TIP3    H1 1641   3.052   5.937   4.397 -0.2118  1.5179 -0.2386
  545TIP3    H2 1642   3.127   5.949   4.528  0.5772 -0.2757 -0.5017
  546TIP3   OH2 1643   1.694   4.654   2.632 -0.2100 -0.8611 -0.1400
  546TIP3    H1 1644   1.689   4.712   2.708 -1.6645 -0.8290 -0.2342
  546TIP3    H2 1645   1.621   4.681   2.576  0.2279 -1.5500 -1.0829
  547TIP3   OH2 1646   4.353   1.687   2.223  0.6636  0.6986  0.0453
  547TIP3    H1 1647   4.331   1.603   2.265  1.9590 -0.6166 -1.7247
  547TIP3    H2 1648   4.297   1.690   2.146  0.7486  1.4235  0.0054
  548TIP3   OH2 1649   4.739   1.220   0.106  0.4299  0.3790  0.0766
  548TIP3    H1 1650   4.760   1.236   0.198 -1.3270  0.9756  0.4008
  548TIP3    H2 1651   4.797   1.279   0.058  1.9549 -0.5268  0.7261
  549TIP3   OH2 1652   1.737   4.865   3.505  0.0332  0.4951 -0.3794
  549TIP3    H1 1653   1.762   4.869   3.412  0.5850  0.1168 -0.2520
  549TIP3    H2 1654   1.644   4.890   3.506 -0.0734  0.1540 -1.0763
  550TIP3   OH2 1655   2.716   0.702   0.029 -0.5820 -0.1583 -0.2959
  550TIP3    H1 1656   2.749   0.623   0.072 -1.8478 -0.7521 -0.3763
  550TIP3    H2 1657   2.790   0.733  -0.024  0.7704  0.1426  1.6273
  551TIP3   OH2 1658   3.172   1.947   0.893 -0.0982 -0.0947  1.1208
  551TIP3    H1 1659   3.255   1.900   0.894  0.7503  1.2802 -0.6608
  551TIP3    H2 1660   3.195   2.039   0.881 -1.8625  0.2875  0.2556
  552TIP3   OH2 1661   1.633   5.354   3.117 -0.0275 -0.0783  0.5489
  552TIP3    H1 1662   1.677   5.387   3.196  0.3543  3.0350 -0.8092
  552TIP3    H2 1663   1.696   5.368   3.047 -0.7837 -1.7492 -0.5289
  553TIP3   OH2 1664   1.768   5.396   4.200 -0.2597 -0.8996  0.2631
  553TIP3    H1 1665   1.722   5.453   4.138  1.9829  0.9688  0.1937
  553TIP3    H2 1666   1.830   5.348   4.147 -0.0506 -1.1587  0.7370
  554TIP3   OH2 1667   6.248   4.450   1.522 -0.0843  0.2252 -0.3176
  554TIP3    H1 1668   6.237   4.523   1.583 -0.1216  0.5132 -0.6627
  554TIP3    H2 1669   6.174   4.458   1.462 -0.6093 -0.6547  0.2007
  555TIP3   OH2 1670   2.122   1.478   2.627 -0.1028 -0.0397  0.0979
  555TIP3    H1 1671   2.205   1.454   2.667  0.6038 -1.8005 -2.2053
  555TIP3    H2 1672   2.137   1.470   2.533 -2.0008  2.6943 -0.5758
  556TIP3   OH2 1673   1.800   5.019   1.101  0.3515 -0.1346  0.2722
  556TIP3    H1 1674   1.825   4.991   1.013 -0.2457 -1.0591  0.3750
  556TIP3    H2 1675   1.872   5.075   1.131  0.7263 -0.1017 -0.6575
  557TIP3   OH2 1676   4.637   4.401   3.097  0.0856 -0.0430  0.4669
  557TIP3    H1 1677   4.629   4.469   3.029 -1.6783 -0.1804  0.4997
  557TIP3    H2 1678   4.603   4.442   3.176  1.6349 -0.0690  1.1894
  558TIP3   OH2 1679   1.355   0.649   4.203  0.4619 -0.5756 -0.0185
  558TIP3    H1 1680   1.394   0.717   4.259  1.9846  1.9620 -3.7189
  558TIP3    H2 1681   1.410   0.572   4.217  1.5136  0.3437  1.1543
  559TIP3   OH2 1682   4.339   2.886   4.851 -0.2147 -0.5938 -0.0500
  559TIP3    H1 1683   4.405   2.914   4.788 -0.2953 -0.4069 -0.0532
  559TIP3    H2 1684   4.320   2.965   4.902  1.8191 -1.3471  2.0145
  560TIP3   OH2 1685   2.031   0.913   2.010 -0.0028  0.7534  0.3960
  560TIP3    H1 1686   1.976   0.927   2.087 -0.4257 -0.3493  0.3073
  560TIP3    H2 1687   2.121   0.925   2.043 -0.0595 -1.4443  1.5127
  561TIP3   OH2 1688   3.574   3.480   0.079 -0.4898 -0.2422 -0.0780
  561TIP3    H1 1689   3.550   3.388   0.091 -4.0830  0.5133 -0.3042
  561TIP3    H2 1690   3.596   3.511   0.166 -3.4559 -0.3911  0.8213
  562TIP3   OH2 1691   1.378   3.121   1.550  0.7328  0.2211  0.2502
  562TIP3    H1 1692   1.470   3.147   1.558  0.3567  1.1023  2.5037
  562TIP3    H2 1693   1.373   3.037   1.597  0.2952  0.4572  0.6323
  563TIP3   OH2 1694   1.693   0.130   2.065  0.2637 -0.1380 -0.3626
  563TIP3    H1 1695   1.638   0.133   2.144  1.5706 -0.2309  0.5764
  563TIP3    H2 1696   1.732   0.218   2.061 -2.5755  1.2006 -3.0233
  564TIP3   OH2 1697   4.203   3.029   2.061  0.8967 -0.0653  0.0849
  564TIP3    H1 1698   4.256   3.108   2.069 -1.1204  1.5745 -1.4499
  564TIP3    H2 1699   4.143   3.033   2.136  0.0882  0.5076 -0.5631
  565TIP3   OH2 1700   3.848   0.794   3.041  0.0403 -0.5231  0.0687
  565TIP3    H1 1701   3.781   0.728   3.063 -0.8736  0.7239  1.1537
  565TIP3    H2 1702   3.804   0.853   2.980  0.1585  0.2487  0.7146
  566TIP3   OH2 1703   5.741   2.157   3.984  0.1593  0.1620  0.1982
  566TIP3    H1 1704   5.654   2.116   3.989 -0.4340  1.4515  1.0667
  566TIP3    H2 1705   5.743   2.196   3.896  0.5368 -1.2411 -0.4473
  567TIP3   OH2 1706   3.059   5.562   3.750  0.5914 -0.4164 -0.2878
  567TIP3    H1 1707   2.972   5.558   3.789  0.3732  0.0294 -0.7210
  567TIP3    H2 1708   3.114   5.512   3.810  0.2381  0.1387  0.5151
  568TIP3   OH2 1709   3.844   4.108   5.178  0.1513  0.2214 -0.2853
  568TIP3    H1 1710   3.837   4.199   5.206  0.8972  0.2795 -0.2629
  568TIP3    H2 1711   3.934   4.099   5.147 -0.6000  0.1479 -2.6420
  569TIP3   OH2 1712   6.072   4.934   0.769  0.4357  0.2817  0.1018
  569TIP3    H1 1713   5.976   4.936   0.773  0.4596 -0.0762  2.2142
  569TIP3    H2 1714   6.096   5.014   0.723 -0.8727 -0.0573 -1.2476
  570TIP3   OH2 1715   4.613   1.356   3.966  0.2430 -0.1426  0.0996
  570TIP3    H1 1716   4.637   1.431   3.911  0.3523 -2.4319 -3.2490
  570TIP3    H2 1717   4.683   1.292   3.952 -1.0669 -1.8286  0.8656
  571TIP3   OH2 1718   2.376   1.341   4.020  0.2236 -0.1545 -1.0372
  571TIP3    H1 1719   2.435   1.316   4.091 -1.0110  0.1840  0.1442
  571TIP3    H2 1720   2.425   1.407   3.970  1.1005 -0.3831 -0.4996
  572TIP3   OH2 1721   4.613   1.332   4.870  0.6052 -0.7567 -0.4514
  572TIP3    H1 1722   4.653   1.413   4.840  1.1868 -0.6346  0.5874
  572TIP3    H2 1723   4.548   1.359   4.934  0.6847 -1.0913 -0.2256
  573TIP3   OH2 1724   4.435   2.179   1.311 -0.2472 -0.2734  0.0727
  573TIP3    H1 1725   4.516   2.139   1.277 -0.4175  0.3608 -1.1673
  573TIP3    H2 1726   4.365   2.121   1.282 -0.4348  0.5156 -1.1201
  574TIP3   OH2 1727   0.195   5.461   0.599  0.1819 -0.2071  0.0036
  574TIP3    H1 1728   0.100   5.451   0.600 -0.0524  1.5162 -0.3377
  574TIP3    H2 1729   0.217   5.487   0.689 -0.1360  2.3955 -0.5795
  575TIP3   OH2 1730   0.735   2.391   4.986 -0.0157 -0.3726  0.7299
  575TIP3    H1 1731   0.777   2.443   5.054 -1.1436  1.8426 -0.1513
  575TIP3    H2 1732   0.641   2.406   4.999 -0.4737 -2.7762  0.8130
  576TIP3   OH2 1733   2.458   3.491   0.840 -0.3167 -0.0792 -0.1475
  576TIP3    H1 1734   2.495   3.547   0.908  0.6549 -0.1821 -0.5772
  576TIP3    H2 1735   2.460   3.403   0.877 -1.1943  0.0654  0.2600
  577TIP3   OH2 1736   0.939   1.431   0.523  0.1532 -0.2738 -0.0830
  577TIP3    H1 1737   0.939   1.502   0.587  2.5504 -0.0965 -0.1972
  577TIP3    H2 1738   0.851   1.392   0.530 -1.5327  3.0882 -0.5451
  578TIP3   OH2 1739   4.571   3.608   0.796 -1.1908 -0.7448 -0.8994
  578TIP3    H1 1740   4.526   3.693   0.797  0.2849  0.1273  1.3861
  578TIP3    H2 1741   4.638   3.618   0.729 -1.6300 -0.4479 -1.2984
  579TIP3   OH2 1742   2.622   1.317   3.320 -0.4760  0.6152  0.3646
  579TIP3    H1 1743   2.529   1.335   3.333 -1.0263  0.0071 -2.2537
  579TIP3    H2 1744   2.636   1.232   3.361 -1.0784  0.6722  0.6935
  580TIP3   OH2 1745   4.271   1.746   1.137  0.2237  0.1145  0.5553
  580TIP3    H1 1746   4.269   1.706   1.050 -0.2545  0.7715  0.2492
  580TIP3    H2 1747   4.277   1.673   1.198 -2.6595 -0.6013  0.1247
  581TIP3   OH2 1748   3.203   4.049   0.421 -0.9202  0.3008 -0.1509
  581TIP3    H1 1749   3.249   4.130   0.399 -1.1400  0.8368  1.2045
  581TIP3    H2 1750   3.123   4.052   0.369 -0.5163  0.5310 -0.7616
  582TIP3   OH2 1751   0.124   2.210   0.177  0.2794 -0.2611 -0.0144
  582TIP3    H1 1752   0.165   2.296   0.185  1.8792 -1.0961  1.5763
  582TIP3    H2 1753   0.163   2.173   0.097  1.8397 -0.5947  0.8609
  583TIP3   OH2 1754   5.494   3.306   3.950 -0.1064  0.5357  0.0601
  583TIP3    H1 1755   5.496   3.289   3.856 -1.9057  0.3070  0.0249
  583TIP3    H2 1756   5.472   3.399   3.958 -2.3893  0.0474  0.1953
  584TIP3   OH2 1757   0.549   3.648   1.821  0.0909  0.4999  0.3678
  584TIP3    H1 1758   0.558   3.686   1.909  0.9607  1.1694  0.0049
  584TIP3    H2 1759   0.639   3.625   1.796  0.0199  1.4297 -0.8155
  585TIP3   OH2 1760   0.809   5.065   1.341  0.0436  0.1772 -0.1181
  585TIP3    H1 1761   0.799   5.003   1.269 -0.6961 -1.2990  1.2003
  585TIP3    H2 1762   0.796   5.151   1.300 -1.5936 -0.6726 -1.5528
  586TIP3   OH2 1763   5.886   3.567   4.342  0.0383 -0.0459 -0.4464
  586TIP3    H1 1764   5.933   3.644   4.310 -0.7431  0.1069 -1.2895
  586TIP3    H2 1765   5.841   3.533   4.264 -0.7695 -0.5199  0.2126
  587TIP3   OH2 1766   6.283   0.492   2.497 -0.6088  0.3224  0.0589
  587TIP3    H1 1767   6.266   0.586   2.509 -1.4561  0.1813  0.0222
  587TIP3    H2 1768   6.365   0.476   2.544 -0.2175  1.1662 -0.3109
  588TIP3   OH2 1769   1.941   4.714   1.680  0.4339 -0.3740 -0.3872
  588TIP3    H1 1770   2.008   4.648   1.662  1.0553 -0.2210  1.2541
  588TIP3    H2 1771   1.933   4.716   1.775 -1.7843 -0.2391 -0.5185
  589TIP3   OH2 1772   4.734   0.263   4.523  0.1574  0.5457 -0.0143
  589TIP3    H1 1773   4.708   0.307   4.442 -1.7077 -2.1531 -1.0433
  589TIP3    H2 1774   4.659   0.274   4.581 -0.0225 -0.5445 -0.0187
  590TIP3   OH2 1775   4.068   5.222   3.588 -0.1892  0.3559  0.2335
  590TIP3    H1 1776   4.004   5.191   3.524 -1.8902  1.1933  1.4402
  590TIP3    H2 1777   4.075   5.152   3.652  0.4598  0.0800 -0.1357
  591TIP3   OH2 1778   1.197   4.007   3.668 -0.1764  0.0826 -0.3243
  591TIP3    H1 1779   1.228   4.035   3.582 -0.5264  1.1414 -0.1123
  591TIP3    H2 1780   1.251   3.931   3.689  0.9469  0.7218 -0.8186
  592TIP3   OH2 1781   1.862   4.735   2.331 -0.1485  0.1116  0.1161
  592TIP3    H1 1782   1.810   4.719   2.252  0.5087  0.4265 -0.3816
  592TIP3    H2 1783   1.873   4.648   2.369  0.2256 -0.1503 -0.5784
  593TIP3   OH2 1784   2.559   3.003   1.433 -0.1980 -0.0396  0.2147
  593TIP3    H1 1785   2.518   2.943   1.370  0.3468  0.4130 -0.5961
  593TIP3    H2 1786   2.489   3.025   1.494 -0.3612 -1.6267  0.6459
  594TIP3   OH2 1787   0.658   1.255   1.180  0.0467 -0.2959 -0.3751
  594TIP3    H1 1788   0.699   1.322   1.235  0.3703 -1.3583  0.7505
  594TIP3    H2 1789   0.709   1.255   1.099 -0.6162  1.5051 -0.8309
  595TIP3   OH2 1790   2.178   3.885   4.705  0.2084 -0.2204  0.2318
  595TIP3    H1 1791   2.257   3.938   4.716  0.2777 -0.5282  1.2989
  595TIP3    H2 1792   2.122   3.938   4.648 -1.0012  2.5203  3.6110
  596TIP3   OH2 1793   0.989   1.308   1.755 -0.2554 -0.0791  0.1854
  596TIP3    H1 1794   0.944   1.245   1.698  0.1511 -0.9610  0.8257
  596TIP3    H2 1795   0.980   1.272   1.843  2.4106 -0.7685  0.2718
  597TIP3   OH2 1796   1.540   2.609   0.370 -0.1133 -0.1475 -0.6071
  597TIP3    H1 1797   1.548   2.643   0.459  1.9257 -0.9749 -0.4108
  597TIP3    H2 1798   1.466   2.549   0.374 -1.7527  1.8096 -0.1904
  598TIP3   OH2 1799   3.353   1.118   3.751  0.5427  0.8320 -0.7100
  598TIP3    H1 1800   3.297   1.147   3.678 -0.1115  0.3077 -0.4234
  598TIP3    H2 1801   3.355   1.193   3.811 -1.7767  0.0817  0.4025
  599TIP3   OH2 1802   5.959   2.116   2.631 -0.2010  0.2021 -0.2385
  599TIP3    H1 1803   5.944   2.063   2.710 -2.0111  1.2863  0.2174
  599TIP3    H2 1804   5.971   2.052   2.561  1.3726 -0.7885  0.8630
  600TIP3   OH2 1805   4.470   5.841   2.441 -0.6457 -0.5811 -0.8528
  600TIP3    H1 1806   4.502   5.931   2.449 -0.6582 -0.7231  1.4847
  600TIP3    H2 1807   4.435   5.836   2.352  0.3642  1.3697 -1.4209
  601TIP3   OH2 1808   4.556   0.764   1.775 -0.1871  0.6292 -0.1921
  601TIP3    H1 1809   4.639   0.810   1.787  0.2115 -0.2969  0.8012
  601TIP3    H2 1810   4.501   0.796   1.847 -1.0162  1.8923 -1.3539
  602TIP3   OH2 1811   1.808   3.715   2.510 -0.1668 -0.1968  0.0180
  602TIP3    H1 1812   1.741   3.655   2.543 -1.3314  1.1078  0.1313
  602TIP3    H2 1813   1.807   3.702   2.415 -1.3163  0.5331 -0.0793
  603TIP3   OH2 1814   1.687   0.926   4.566  0.0059  0.1669  0.1068
  603TIP3    H1 1815   1.741   0.964   4.497  0.1313  0.1607  0.2003
  603TIP3    H2 1816   1.738   0.853   4.599  0.6579  1.1170  1.2683
  604TIP3   OH2 1817   1.358   3.467   0.179 -0.9054  0.0363  0.0300
  604TIP3    H1 1818   1.354   3.377   0.147  0.1479  0.5709 -1.7158
  604TIP3    H2 1819   1.439   3.471   0.230 -1.0862 -0.0698  0.3261
  605TIP3   OH2 1820   1.779   4.424   0.260  0.2854  0.0719 -1.0403
  605TIP3    H1 1821   1.707   4.430   0.323  2.2281  0.0474  1.3138
  605TIP3    H2 1822   1.747   4.470   0.183 -1.1158  2.8362  1.0246
  606TIP3   OH2 1823   2.273   0.634   0.814 -0.2945  0.1918  0.4184
  606TIP3    H1 1824   2.272   0.589   0.899  1.0858  1.0654  0.9419
  606TIP3    H2 1825   2.306   0.569   0.752  0.7872  0.1584  0.9903
  607TIP3   OH2 1826   1.694   4.269   4.631  0.3479 -0.2226 -0.1824
  607TIP3    H1 1827   1.730   4.183   4.652  0.2866  0.3487  2.7273
  607TIP3    H2 1828   1.766   4.317   4.591  0.8240 -1.1776 -0.4794
  608TIP3   OH2 1829   1.647   3.726   4.578 -0.8972 -0.6676 -0.3949
  608TIP3    H1 1830   1.743   3.718   4.583 -0.2452  3.4424 -2.2906
  608TIP3    H2 1831   1.616   3.691   4.661  2.2850 -1.6245  0.5569
  609TIP3   OH2 1832   4.085   5.741   0.039  0.4553  0.4046 -0.4260
  609TIP3    H1 1833   4.175   5.722   0.068  0.4167  1.0342  0.1267
  609TIP3    H2 1834   4.096   5.808  -0.029  0.2552  3.3211  2.1773
  610TIP3   OH2 1835   4.728   2.947   4.418 -0.3659  0.1230  0.0220
  610TIP3    H1 1836   4.786   2.937   4.342  0.2497 -0.1062  0.5179
  610TIP3    H2 1837   4.713   3.042   4.424  0.9831  0.3075  0.6479
  611TIP3   OH2 1838   3.215   4.622   3.511 -0.0413 -0.6888  0.0488
  611TIP3    H1 1839   3.184   4.584   3.594  1.2897  0.1330  0.9571
  611TIP3    H2 1840   3.197   4.555   3.446 -0.4571 -1.6527  1.1186
  612TIP3   OH2 1841   4.838   0.566   0.237 -0.4101  0.3872  0.0700
  612TIP3    H1 1842   4.887   0.494   0.276 -0.2612  0.4876  0.0680
  612TIP3    H2 1843   4.877   0.645   0.274  0.6821  0.5483 -1.3608
  613TIP3   OH2 1844   5.698   4.142   0.688 -0.0035  0.3986  0.0081
  613TIP3    H1 1845   5.701   4.238   0.689  0.3012  0.4184  1.8806
  613TIP3    H2 1846   5.761   4.115   0.755  0.0367 -1.1207 -0.6019
  614TIP3   OH2 1847   0.920   0.039   0.051 -0.0923  0.1681  0.1900
  614TIP3    H1 1848   0.848   0.006   0.104 -0.3631 -0.5746 -0.6141
  614TIP3    H2 1849   0.990   0.056   0.114 -0.1559 -1.3803  0.7261
  615TIP3   OH2 1850   1.472   0.959   0.505  0.6218  0.1945 -0.1969
  615TIP3    H1 1851   1.431   0.915   0.579  0.5492 -0.4586 -0.6221
  615TIP3    H2 1852   1.549   0.906   0.484  0.9206  0.6503 -0.2751
  616TIP3   OH2 1853   4.349   0.040   0.566 -0.0763  0.5568  0.0564
  616TIP3    H1 1854   4.424   0.099   0.575  0.1836  0.6459 -2.0497
  616TIP3    H2 1855   4.290   0.086   0.506 -0.3133 -0.9017 -0.8626
  617TIP3   OH2 1856   4.072   0.784   2.885 -0.5271 -0.1772  0.2378
  617TIP3    H1 1857   4.049   0.702   2.842 -0.8928  0.4136 -0.7220
  617TIP3    H2 1858   4.011   0.791   2.959  0.0901 -1.1819  0.8711
  618TIP3   OH2 1859   2.774   5.842   3.041  0.1371 -0.2380  0.3063
  618TIP3    H1 1860   2.769   5.785   2.965 -0.8330 -0.6199  0.6347
  618TIP3    H2 1861   2.704   5.907   3.027 -1.4991 -1.5581  1.8309
  619TIP3   OH2 1862   0.549   4.031   3.926  0.2577 -0.0872  0.1811
  619TIP3    H1 1863   0.626   4.046   3.981  0.3247 -0.9303  0.3175
  619TIP3    H2 1864   0.550   3.938   3.907 -1.5550 -0.4229  1.4282
  620TIP3   OH2 1865   1.578   5.786   4.808 -0.2162  0.1381 -0.1666
  620TIP3    H1 1866   1.531   5.824   4.882  1.1650  1.6080  0.0363
  620TIP3    H2 1867   1.665   5.766   4.843  0.8373  1.9057 -1.5981
  621TIP3   OH2 1868   1.587   5.780   3.639  0.5484 -0.6847 -0.5657
  621TIP3    H1 1869   1.546   5.755   3.722 -0.4125  0.1882 -0.7560
  621TIP3    H2 1870   1.678   5.750   3.647  1.5582  2.4593  2.2985
  622TIP3   OH2 1871   5.998   1.887   4.858  0.3090  0.6217 -0.1756
  622TIP3    H1 1872   5.998   1.972   4.813  1.7638  0.6437 -0.1750
  622TIP3    H2 1873   5.988   1.909   4.951  1.9394  0.9199 -0.0356
  623TIP3   OH2 1874   2.628   1.588   3.992 -0.0408  0.0119 -1.0031
  623TIP3    H1 1875   2.715   1.629   3.984  0.5230 -1.0126 -0.3476
  623TIP3    H2 1876   2.638   1.504   3.949  0.0457 -1.1710  1.1788
  624TIP3   OH2 1877   0.714   5.926   3.408  0.0383 -0.3836 -0.3332
  624TIP3    H1 1878   0.662   5.955   3.483  0.3543  0.0184 -0.2651
  624TIP3    H2 1879   0.790   5.984   3.408  0.1337 -0.5050 -0.8531
  625TIP3   OH2 1880   2.710   2.054   1.730  0.5188 -0.3855  0.0300
  625TIP3    H1 1881   2.776   2.063   1.798  0.7710  0.5579 -0.3299
  625TIP3    H2 1882   2.642   2.117   1.754 -0.3368 -1.4429  0.4772
  626TIP3   OH2 1883   0.017   5.058   2.611 -0.2668  0.3771  0.1548
  626TIP3    H1 1884   0.050   4.977   2.572  2.1518  0.5597  1.6229
  626TIP3    H2 1885  -0.038   5.028   2.684  0.4561  0.0152  0.5686
  627TIP3   OH2 1886   5.657   1.379   4.221 -0.1143  0.2811 -0.6467
  627TIP3    H1 1887   5.694   1.408   4.138  0.0924  0.9931 -0.3157
  627TIP3    H2 1888   5.591   1.445   4.243  0.9068  0.9667  0.4961
  628TIP3   OH2 1889   4.368   4.636   0.344 -0.2436 -0.0816 -0.4331
  628TIP3    H1 1890   4.344   4.640   0.437 -3.1914 -0.5586 -1.0644
  628TIP3    H2 1891   4.302   4.579   0.305  0.9150  0.1014 -2.8531
  629TIP3   OH2 1892   1.935   4.326   4.243 -0.3003  0.7275  0.5903
  629TIP3    H1 1893   1.969   4.314   4.155  0.5634  1.6790  0.7809
  629TIP3    H2 1894   1.842   4.307   4.235 -0.3381  1.3269 -0.6416
  630TIP3   OH2 1895   3.866   0.419   4.591  0.4535 -0.2128  0.0900
  630TIP3    H1 1896   3.785   0.372   4.611 -0.1732  0.7839 -0.0291
  630TIP3    H2 1897   3.913   0.361   4.532 -1.1168  0.0275 -1.5036
  631TIP3   OH2 1898   4.291   0.098   4.760 -0.2510  0.0446 -0.3904
  631TIP3    H1 1899   4.294   0.009   4.725  1.2973 -0.0518 -0.1002
  631TIP3    H2 1900   4.314   0.088   4.852 -0.2606  0.7195 -0.3110
  632TIP3   OH2 1901   0.093   4.333   2.377 -0.5955  0.4063 -0.6375
  632TIP3    H1 1902   0.032   4.262   2.397 -0.7057  0.5084 -0.6087
  632TIP3    H2 1903   0.038   4.412   2.375 -0.5332  0.4418 -1.0226
  633TIP3   OH2 1904   6.253   5.565   1.213 -0.3377  0.8074 -0.1202
  633TIP3    H1 1905   6.267   5.500   1.281  0.9235 -0.2140 -1.2824
  633TIP3    H2 1906   6.160   5.558   1.191 -0.1425 -0.9235 -0.5100
  634TIP3   OH2 1907   1.884   4.228   0.061 -0.2155  0.0612  0.0744
  634TIP3    H1 1908   1.979   4.215   0.059 -0.1777  0.2139  0.8262
  634TIP3    H2 1909   1.872   4.320   0.083 -0.5404 -0.3222  1.5983
  635TIP3   OH2 1910   3.830   4.210   4.763  0.3481  0.4948  0.2621
  635TIP3    H1 1911   3.823   4.261   4.683  0.1049  0.8709  0.5211
  635TIP3    H2 1912   3.919   4.227   4.795  1.2949 -1.4532 -1.1205
  636TIP3   OH2 1913   5.048   2.875   0.866 -0.1939  0.5174 -0.4115
  636TIP3    H1 1914   5.128   2.838   0.902  0.0606 -0.0107 -1.4717
  636TIP3    H2 1915   5.073   2.907   0.779 -1.3163 -0.4497 -1.1206
  637TIP3   OH2 1916   2.278   4.094   0.249 -0.4039 -0.1023  0.4433
  637TIP3    H1 1917   2.246   4.089   0.159 -0.7378 -1.5500  0.6184
  637TIP3    H2 1918   2.344   4.163   0.247 -1.7761  1.2514 -0.4780
  638TIP3   OH2 1919   5.455   0.134   1.800  0.5108 -0.3678  0.0806
  638TIP3    H1 1920   5.506   0.074   1.745  3.7576  2.2618 -0.0874
  638TIP3    H2 1921   5.367   0.096   1.802  0.9592 -2.2578 -4.4064
  639TIP3   OH2 1922   5.394   5.832   3.103 -0.7917 -0.3993 -0.5412
  639TIP3    H1 1923   5.331   5.903   3.113 -0.7672 -0.5998  1.4826
  639TIP3    H2 1924   5.475   5.876   3.075 -1.2334  0.1300 -1.0114
  640TIP3   OH2 1925   3.809   2.555   0.281  0.1668 -0.2810  0.9609
  640TIP3    H1 1926   3.822   2.536   0.374  2.0451 -0.2774  0.7505
  640TIP3    H2 1927   3.887   2.518   0.239 -0.9030 -0.7254 -0.6824
  641TIP3   OH2 1928   6.330   5.239   1.553  0.3247 -0.1293  0.0515
  641TIP3    H1 1929   6.323   5.184   1.631  0.1636  1.2210  1.0296
  641TIP3    H2 1930   6.284   5.189   1.485  1.7009 -1.9930  0.4105
  642TIP3   OH2 1931   4.033   2.846   4.788  0.4368 -0.2417  0.1034
  642TIP3    H1 1932   4.128   2.849   4.793  0.5025 -1.8068  0.1928
  642TIP3    H2 1933   4.012   2.898   4.710  1.2125  1.5625  1.0374
  643TIP3   OH2 1934   6.017   4.805   3.729 -0.6777  0.0650  0.1013
  643TIP3    H1 1935   6.093   4.862   3.740 -1.0247  0.8968 -1.4380
  643TIP3    H2 1936   5.987   4.788   3.818  0.2476  1.2002  0.6626
  644TIP3   OH2 1937   2.472   2.978   4.602 -0.0822 -0.2575  0.1851
  644TIP3    H1 1938   2.386   2.934   4.603 -1.0579  1.5661  0.5170
  644TIP3    H2 1939   2.502   2.972   4.693  0.1130 -0.7991  0.0916
  645TIP3   OH2 1940   2.080   3.228   0.758 -0.1685  0.6413  0.1977
  645TIP3    H1 1941   2.146   3.242   0.690  0.6913 -2.3468  0.2861
  645TIP3    H2 1942   2.116   3.271   0.835 -0.0084  1.9755 -0.5786
  646TIP3   OH2 1943   1.218   4.489   2.029  0.7849 -0.5659 -0.0143
  646TIP3    H1 1944   1.266   4.489   1.946  2.9434  2.1880  1.0795
  646TIP3    H2 1945   1.133   4.527   2.008  1.5104  0.6259 -0.8973
  647TIP3   OH2 1946   4.818   4.240   1.069 -0.5215 -0.1168  0.2332
  647TIP3    H1 1947   4.781   4.320   1.106 -0.6962 -0.9561  2.0253
  647TIP3    H2 1948   4.913   4.252   1.074 -0.5119  0.8354 -1.5791
  648TIP3   OH2 1949   2.929   2.850   4.881  0.5910 -0.3913  0.7152
  648TIP3    H1 1950   2.999   2.886   4.935 -1.7797 -0.1701  3.9661
  648TIP3    H2 1951   2.866   2.921   4.872 -0.3511 -1.2889 -0.0253
  649TIP3   OH2 1952   4.113   5.888   0.375  0.6272  0.1029 -0.0570
  649TIP3    H1 1953   4.095   5.974   0.339  1.0588  0.1852 -0.0751
  649TIP3    H2 1954   4.065   5.827   0.318  2.1826  0.1247 -1.4536
  650TIP3   OH2 1955   2.879   1.551   4.588 -0.3625  0.0037  0.5625
  650TIP3    H1 1956   2.889   1.592   4.502  3.0099 -0.4751  0.6168
  650TIP3    H2 1957   2.869   1.458   4.568 -0.0367 -0.0537  0.6615
  651TIP3   OH2 1958   0.808   4.120   0.474  0.5708  0.1787 -0.0185
  651TIP3    H1 1959   0.843   4.074   0.550  0.8553  0.4077 -0.0070
  651TIP3    H2 1960   0.769   4.199   0.509 -1.5679 -0.9014  0.1741
  652TIP3   OH2 1961   6.115   3.896   2.621 -0.2202 -0.5917  0.4063
  652TIP3    H1 1962   6.175   3.860   2.557  1.8375  1.4363  1.0443
  652TIP3    H2 1963   6.048   3.941   2.570  1.5076  1.1846 -0.4329
  653TIP3   OH2 1964   5.973   4.733   5.078  0.1798 -0.0862  0.2210
  653TIP3    H1 1965   6.017   4.670   5.022 -2.5595 -0.8013 -1.3188
  653TIP3    H2 1966   5.982   4.698   5.166  1.9598 -0.5696 -0.1302
  654TIP3   OH2 1967   2.428   5.228   1.633 -0.2341 -0.2148 -0.4542
  654TIP3    H1 1968   2.350   5.173   1.624  0.6510 -1.3261 -1.5912
  654TIP3    H2 1969   2.501   5.167   1.638  0.7625  0.8339 -1.5067
  655TIP3   OH2 1970   1.117   4.384   0.341 -0.2503  0.1978  0.4179
  655TIP3    H1 1971   1.063   4.326   0.288  0.1088  0.7888 -0.6263
  655TIP3    H2 1972   1.180   4.327   0.385  0.6697 -0.1366 -1.2783
  656TIP3   OH2 1973   5.181   0.511   3.128  0.1057 -0.0287  0.0582
  656TIP3    H1 1974   5.110   0.458   3.093 -0.1739 -0.3647  1.0929
  656TIP3    H2 1975   5.229   0.541   3.051 -0.9588 -0.0691 -0.6327
  657TIP3   OH2 1976   2.511   4.595   2.127 -0.3344 -0.0990 -0.2116
  657TIP3    H1 1977   2.416   4.592   2.133 -0.3443  0.2605 -0.1794
  657TIP3    H2 1978   2.530   4.566   2.038 -0.5420  0.9585 -0.6178
  658TIP3   OH2 1979   5.423   0.460   5.077  0.1417  0.3445  0.1375
  658TIP3    H1 1980   5.496   0.452   5.016  0.1789 -0.6725  0.2843
  658TIP3    H2 1981   5.463   0.451   5.164 -0.2819 -1.7717  0.1816
  659TIP3   OH2 1982   4.695   2.764   2.329 -0.0823 -0.3340 -0.6227
  659TIP3    H1 1983   4.623   2.784   2.270  0.6939  0.8654 -1.1957
  659TIP3    H2 1984   4.741   2.691   2.287  0.9835  1.0731 -2.0186
  660TIP3   OH2 1985   1.642   0.430   1.199  0.3783  0.2549  0.3198
  660TIP3    H1 1986   1.731   0.398   1.212  0.3054  0.3199  0.9899
  660TIP3    H2 1987   1.644   0.469   1.111  0.9044 -0.0849  0.1750
  661TIP3   OH2 1988   3.776   3.032   4.196 -0.3329 -0.4589 -0.5682
  661TIP3    H1 1989   3.752   3.076   4.278  1.8060 -0.3344  0.0498
  661TIP3    H2 1990   3.758   2.940   4.212 -0.7397 -0.3282 -0.2671
  662TIP3   OH2 1991   6.022   5.852   3.989 -0.3817  0.4289  0.1881
  662TIP3    H1 1992   5.988   5.933   3.951  0.8678  1.0672  0.3723
  662TIP3    H2 1993   5.994   5.855   4.081 -1.4801 -0.0251 -0.1105
  663TIP3   OH2 1994   0.860   5.730   2.031  0.5893 -0.2786  0.0285
  663TIP3    H1 1995   0.824   5.641   2.026  0.8312 -0.5585  2.1505
  663TIP3    H2 1996   0.853   5.764   1.942 -3.0198 -1.0463 -0.1359
  664TIP3   OH2 1997   2.414   5.919   5.014 -0.1084  0.0724  0.3562
  664TIP3    H1 1998   2.428   5.938   4.922  1.8046 -0.1433  0.5635
  664TIP3    H2 1999   2.404   5.823   5.018  0.2028  0.0397  0.4025
  665TIP3   OH2 2000   3.196   5.118   0.324 -0.3121 -0.3083 -0.8190
  665TIP3    H1 2001   3.199   5.213   0.333  0.3896 -0.2909 -1.1100
  665TIP3    H2 2002   3.121   5.091   0.376 -0.3544  0.3806 -0.5047
  666TIP3   OH2 2003   1.713   2.946   2.595  0.3390 -0.3986  0.1902
  666TIP3    H1 2004   1.674   2.980   2.514 -0.0464 -1.3457 -0.0381
  666TIP3    H2 2005   1.690   2.853   2.595 -0.2471 -0.2901  1.7143
  667TIP3   OH2 2006   1.226   4.798   4.872  0.2814  0.0874 -0.1824
  667TIP3    H1 2007   1.318   4.794   4.899 -0.2015 -2.7829  1.4565
  667TIP3    H2 2008   1.224   4.752   4.788  0.2849 -0.3375  0.0467
  668TIP3   OH2 2009   4.835   5.346   0.850  0.7132  0.3962  0.2977
  668TIP3    H1 2010   4.851   5.334   0.943 -1.2480  0.3238  0.6812
  668TIP3    H2 2011   4.779   5.424   0.845  1.3295  0.7953 -0.8924
  669TIP3   OH2 2012   2.424   0.633   2.265  0.1945 -0.2939 -0.3711
  669TIP3    H1 2013   2.455   0.723   2.263  0.8592 -0.4893  0.5359
  669TIP3    H2 2014   2.366   0.626   2.189 -1.2507  1.3912  0.4911
  670TIP3   OH2 2015   5.706   4.324   2.535 -0.4254  0.3396  0.2544
  670TIP3    H1 2016   5.688   4.297   2.625  0.9223 -1.3361  0.0928
  670TIP3    H2 2017   5.801   4.321   2.528 -0.5309 -0.3064 -1.4176
  671TIP3   OH2 2018   5.987   4.659   3.071 -0.6381 -0.1224 -0.1430
  671TIP3    H1 2019   6.057   4.616   3.021  0.0500 -0.3457  0.9766
  671TIP3    H2 2020   5.908   4.641   3.021  0.1374  0.3826 -1.5955
  672TIP3   OH2 2021   5.322   1.959   0.567  0.4222 -0.2086  0.4362
  672TIP3    H1 2022   5.395   1.950   0.506 -1.5251 -0.1924 -2.0057
  672TIP3    H2 2023   5.280   2.041   0.544  0.5042  0.6079  2.8878
  673TIP3   OH2 2024   3.863   2.155   2.166 -0.1388 -0.6659 -0.3148
  673TIP3    H1 2025   3.927   2.090   2.196 -0.6930 -1.2501 -0.3678
  673TIP3    H2 2026   3.873   2.156   2.071  0.7024  0.2174 -0.2258
  674TIP3   OH2 2027   1.788   1.485   3.736 -0.0295 -0.3865 -0.0682
  674TIP3    H1 2028   1.791   1.474   3.641 -1.0894 -0.4372 -0.1118
  674TIP3    H2 2029   1.852   1.554   3.754 -0.3948  0.2034 -0.9232
  675TIP3   OH2 2030   5.376   4.115   4.151 -0.2770  0.2253  0.5336
  675TIP3    H1 2031   5.468   4.107   4.174 -0.1479  0.6528  0.1812
  675TIP3    H2 2032   5.334   4.040   4.193  0.5185 -0.9798 -0.7605
  676TIP3   OH2 2033   4.995   3.825   0.735  0.5499  0.0197 -0.0829
  676TIP3    H1 2034   4.944   3.807   0.814 -1.0333  0.5907 -0.9251
  676TIP3    H2 2035   5.086   3.808   0.760 -0.1759 -2.8446  0.9877
  677TIP3   OH2 2036   0.076   3.965   2.239  0.0424  0.1281 -0.0458
  677TIP3    H1 2037   0.039   3.883   2.207  1.3277 -0.6064  0.3075
  677TIP3    H2 2038   0.002   4.027   2.236 -0.6960 -0.7649 -1.2469
  678TIP3   OH2 2039   5.750   4.940   2.948  0.1431  0.4489 -0.3055
  678TIP3    H1 2040   5.815   4.881   2.988  0.3013  0.3560 -0.7010
  678TIP3    H2 2041   5.749   5.016   3.006  0.1019  0.1573  0.0851
  679TIP3   OH2 2042   6.225   2.238   3.121  0.4931 -0.1708  0.3623
  679TIP3    H1 2043   6.162   2.180   3.078  0.0412  0.3917  0.2618
  679TIP3    H2 2044   6.172   2.310   3.154  1.1819  0.6863 -0.3797
  680TIP3   OH2 2045   0.283   0.128   2.291  0.4886 -0.1761  0.2263
  680TIP3    H1 2046   0.259   0.086   2.209 -0.4268 -0.2764  0.5316
  680TIP3    H2 2047   0.217   0.197   2.303  1.5548  0.8946  0.0798
  681TIP3   OH2 2048   5.312   2.717   2.482  1.0370 -0.4062  0.1700
  681TIP3    H1 2049   5.376   2.787   2.474 -0.3367  0.6681 -2.5007
  681TIP3    H2 2050   5.288   2.695   2.392 -0.6603 -2.3664  1.0063
  682TIP3   OH2 2051   3.876   0.389   0.251  0.3595 -0.1311  0.2798
  682TIP3    H1 2052   3.784   0.380   0.226  0.3419 -0.6146  0.4922
  682TIP3    H2 2053   3.875   0.447   0.327  0.0516 -1.4168  1.2887
  683TIP3   OH2 2054   1.468   2.029   2.588  0.0519  0.4270 -0.7452
  683TIP3    H1 2055   1.516   1.959   2.544  1.0558  1.3898 -1.2296
  683TIP3    H2 2056   1.430   2.080   2.516  0.1609  0.9431 -0.4410
  684TIP3   OH2 2057   0.916   3.751   0.693 -0.0375  0.0677 -0.3467
  684TIP3    H1 2058   0.967   3.760   0.773 -0.0708  0.9039 -0.4091
  684TIP3    H2 2059   0.826   3.773   0.719 -0.1341 -0.1384 -0.5044
  685TIP3   OH2 2060   5.987   2.317   3.527 -0.0748 -0.0728 -0.5184
  685TIP3    H1 2061   5.906   2.368   3.525 -0.4107 -0.4478  1.4468
  685TIP3    H2 2062   5.960   2.228   3.503 -0.3636 -0.2808  0.4914
  686TIP3   OH2 2063   3.973   0.805   1.955 -0.6317 -0.3649 -0.1670
  686TIP3    H1 2064   3.974   0.742   1.883  0.2162 -0.1749 -0.3310
  686TIP3    H2 2065   4.027   0.878   1.924 -0.0247 -0.4025  0.7685
  687TIP3   OH2 2066   3.816   0.153   1.702  0.1460  0.1479 -0.7210
  687TIP3    H1 2067   3.852   0.077   1.655  2.1291  1.2809 -1.1467
  687TIP3    H2 2068   3.721   0.140   1.699  0.4324 -2.4968 -0.4330
  688TIP3   OH2 2069   4.512   1.414   0.318  0.5392 -0.1141  0.0543
  688TIP3    H1 2070   4.442   1.354   0.344  0.6901 -0.5291 -0.4688
  688TIP3    H2 2071   4.584   1.356   0.293  0.9507  0.3037  0.2709
  689TIP3   OH2 2072   0.201   4.706   3.803 -0.2484  0.3327  0.2057
  689TIP3    H1 2073   0.183   4.718   3.897  2.7506 -0.0869  0.9317
  689TIP3    H2 2074   0.199   4.794   3.767 -1.2769  0.5169  0.6494
  690TIP3   OH2 2075   5.195   0.345   4.911 -0.7132  0.1962 -0.0098
  690TIP3    H1 2076   5.210   0.257   4.876  0.7838 -0.2264  1.5770
  690TIP3    H2 2077   5.273   0.363   4.964 -0.6456  2.7707 -0.8572
  691TIP3   OH2 2078   6.189   4.372   3.857  0.3681  0.2907  0.2629
  691TIP3    H1 2079   6.283   4.380   3.874  0.3692 -0.0194  0.4056
  691TIP3    H2 2080   6.176   4.281   3.832  0.5378  0.9329 -2.4976
  692TIP3   OH2 2081   1.965   4.929   2.073  0.0830 -0.0208 -0.3675
  692TIP3    H1 2082   1.885   4.878   2.083 -0.3615  0.7678  0.1939
  692TIP3    H2 2083   2.032   4.864   2.052 -0.2062 -1.0385  1.5439
  693TIP3   OH2 2084   3.578   1.894   2.440  0.4271  0.7631 -0.1268
  693TIP3    H1 2085   3.566   1.877   2.346 -1.7580  2.3140 -0.2097
  693TIP3    H2 2086   3.669   1.922   2.449  1.7232 -2.6037 -1.1912
  694TIP3   OH2 2087   3.785   5.549   0.083 -0.0718  0.5667  0.3710
  694TIP3    H1 2088   3.809   5.497   0.006 -1.8875 -0.8083  0.6633
  694TIP3    H2 2089   3.768   5.485   0.152  0.2315  1.7074  1.5465
  695TIP3   OH2 2090   1.695   5.470   3.668  0.9223 -0.4022  0.0013
  695TIP3    H1 2091   1.771   5.420   3.695  1.7762 -1.5753 -3.9919
  695TIP3    H2 2092   1.728   5.559   3.652  0.5987  0.0552  1.6664
  696TIP3   OH2 2093   3.565   2.864   4.052  0.3040  0.6009  0.0707
  696TIP3    H1 2094   3.654   2.836   4.073  0.2028  0.9773  1.0867
  696TIP3    H2 2095   3.571   2.902   3.965  1.0291  0.1364 -0.0888
  697TIP3   OH2 2096   3.518   4.859   1.578  0.4195  0.0209 -0.0844
  697TIP3    H1 2097   3.563   4.779   1.548 -0.4307  0.1389 -1.8430
  697TIP3    H2 2098   3.588   4.919   1.601  1.1328 -0.5255 -0.7659
  698TIP3   OH2 2099   5.859   1.514   0.585  0.4395 -0.8056  0.3167
  698TIP3    H1 2100   5.800   1.462   0.530  0.9199 -0.5559 -0.4442
  698TIP3    H2 2101   5.912   1.564   0.523  0.6082 -0.0924  1.0230
  699TIP3   OH2 2102   2.542   3.727   1.895 -0.0749  0.2281 -0.1738
  699TIP3    H1 2103   2.473   3.742   1.830 -0.4588 -0.3462  0.0959
  699TIP3    H2 2104   2.611   3.682   1.847 -0.2949 -0.0603 -0.2224
  700TIP3   OH2 2105   4.606   2.006   4.013  0.1590  0.0637  0.1649
  700TIP3    H1 2106   4.632   2.006   3.921 -2.0936  0.6805 -0.5358
  700TIP3    H2 2107   4.647   2.084   4.050 -0.4199  0.8409 -0.8020
  701TIP3   OH2 2108   0.387   1.744   5.176  0.3961 -0.8830 -0.4912
  701TIP3    H1 2109   0.405   1.819   5.119 -0.0642 -0.2988  0.1095
  701TIP3    H2 2110   0.355   1.676   5.117 -0.2102 -0.2367 -0.9223
  702TIP3   OH2 2111   5.211   1.206   3.424  0.2711 -0.5670  0.4507
  702TIP3    H1 2112   5.131   1.191   3.474 -0.6036  0.5461 -0.5848
  702TIP3    H2 2113   5.236   1.118   3.392 -0.0223 -1.0471  1.5031
  703TIP3   OH2 2114   0.107   3.218   4.701 -0.2073  0.3745 -0.0148
  703TIP3    H1 2115   0.058   3.295   4.729 -2.3566 -0.7710 -0.4029
  703TIP3    H2 2116   0.138   3.239   4.613  0.5854  1.3483  0.4744
  704TIP3   OH2 2117   4.988   2.794   2.569  0.1195 -0.0751 -0.0948
  704TIP3    H1 2118   5.044   2.856   2.616 -0.7425  0.4833  0.2170
  704TIP3    H2 2119   4.912   2.783   2.626  0.7110 -2.2371  0.3638
  705TIP3   OH2 2120   3.800   2.279   0.541  0.3895  0.3552 -0.4860
  705TIP3    H1 2121   3.850   2.354   0.509  0.2697  0.3528 -0.6798
  705TIP3    H2 2122   3.863   2.228   0.593 -0.1664  2.0336  2.0366
  706TIP3   OH2 2123   6.232   1.762   1.551 -0.4457  0.0607 -0.2776
  706TIP3    H1 2124   6.290   1.826   1.509 -0.8684  0.3733 -0.3985
  706TIP3    H2 2125   6.193   1.714   1.478  0.5850 -0.9883 -0.1575
  707TIP3   OH2 2126   0.412   0.712   3.333 -0.1539  0.3097 -0.3036
  707TIP3    H1 2127   0.381   0.684   3.419 -0.9466 -0.0017 -0.6826
  707TIP3    H2 2128   0.341   0.764   3.297  0.5615  1.2682 -0.3873
  708TIP3   OH2 2129   2.001   2.825   4.951  0.0721 -0.2369 -1.2881
  708TIP3    H1 2130   1.973   2.876   4.875 -1.2398 -0.5340 -1.0449
  708TIP3    H2 2131   1.956   2.741   4.940 -1.4747  0.2619  0.6124
  709TIP3   OH2 2132   5.320   1.349   4.317 -0.1660 -0.0419  0.6640
  709TIP3    H1 2133   5.261   1.283   4.355  0.5335 -0.0726  1.7443
  709TIP3    H2 2134   5.386   1.298   4.271  0.2009 -0.0985  1.2404
  710TIP3   OH2 2135   4.026   3.173   4.212 -0.5576 -0.2860 -0.0077
  710TIP3    H1 2136   3.958   3.109   4.196  1.2813 -1.9954 -1.3691
  710TIP3    H2 2137   4.078   3.136   4.283  0.8741 -0.6652 -1.2023
  711TIP3   OH2 2138   2.782   3.489   0.436 -0.2139  0.7240  0.3240
  711TIP3    H1 2139   2.738   3.516   0.517 -0.1002 -0.5055  0.8246
  711TIP3    H2 2140   2.844   3.421   0.464 -0.2526  0.1965 -0.8068
  712TIP3   OH2 2141   3.265   0.709   2.485  0.0655  0.1813 -0.5834
  712TIP3    H1 2142   3.254   0.624   2.442 -0.6871  0.1623 -0.3560
  712TIP3    H2 2143   3.224   0.699   2.570 -0.7316  1.0065 -0.8493
  713TIP3   OH2 2144   1.908   5.464   0.473 -0.1639  0.2864  0.2317
  713TIP3    H1 2145   1.854   5.476   0.395  0.8490  1.5988 -0.3117
  713TIP3    H2 2146   1.994   5.440   0.439  0.7125  2.3691  0.8027
  714TIP3   OH2 2147   1.642   0.197   4.530 -0.2032 -0.1559 -0.3747
  714TIP3    H1 2148   1.570   0.189   4.593 -0.2574  1.7926 -0.1101
  714TIP3    H2 2149   1.721   0.204   4.584  0.2234 -2.1230 -0.6618
  715TIP3   OH2 2150   5.580   2.595   4.086  0.1320 -0.1285  0.4387
  715TIP3    H1 2151   5.637   2.555   4.021  0.4365  1.9230 -0.6338
  715TIP3    H2 2152   5.511   2.529   4.101  0.5193 -0.9917 -1.3042
  716TIP3   OH2 2153   1.000   4.304   1.907  0.2856 -0.5759  0.2936
  716TIP3    H1 2154   0.975   4.280   1.997 -0.8563 -1.0675 -0.1413
  716TIP3    H2 2155   0.978   4.397   1.900  0.1320 -0.6000  0.4412
  717TIP3   OH2 2156   5.012   2.686   0.022  0.2787 -1.3018 -0.7401
  717TIP3    H1 2157   5.027   2.732   0.105  1.2446 -2.1707 -0.4091
  717TIP3    H2 2158   5.067   2.608   0.028 -0.7324 -2.1059 -1.6136
  718TIP3   OH2 2159   5.603   3.027   1.257 -0.4474  1.2598  0.4309
  718TIP3    H1 2160   5.558   3.010   1.175 -0.7525 -1.3678  1.0604
  718TIP3    H2 2161   5.693   3.045   1.231 -0.4614  0.1310 -0.4787
  719TIP3   OH2 2162   1.011   2.750   5.069 -0.3232 -0.2739 -0.2233
  719TIP3    H1 2163   0.969   2.809   5.007  1.5124 -0.0503 -1.3386
  719TIP3    H2 2164   1.074   2.701   5.016  1.1507 -0.2264  1.4082
  720TIP3   OH2 2165   3.437   4.807   0.641 -0.0901  0.7164 -0.2684
  720TIP3    H1 2166   3.363   4.827   0.583 -1.0490 -2.1874 -0.2291
  720TIP3    H2 2167   3.425   4.714   0.664  2.1875  0.8266  1.8054
  721TIP3   OH2 2168   5.073   3.122   2.574 -0.0809 -0.0039 -0.4356
  721TIP3    H1 2169   5.084   3.093   2.484  0.2505  0.3395 -0.5084
  721TIP3    H2 2170   5.146   3.082   2.621  1.2145  1.8015 -0.8044
  722TIP3   OH2 2171   4.761   2.007   3.153 -0.2071 -0.1706  0.2225
  722TIP3    H1 2172   4.727   2.054   3.229  0.0560  1.3778 -0.5805
  722TIP3    H2 2173   4.684   1.990   3.099 -0.2926 -0.6299  0.4816
  723TIP3   OH2 2174   3.588   3.597   1.746 -0.4116  0.0975 -0.0824
  723TIP3    H1 2175   3.670   3.589   1.698 -0.2245  0.1822  0.2218
  723TIP3    H2 2176   3.557   3.686   1.728 -0.5756 -0.0278 -0.4182
  724TIP3   OH2 2177   2.685   5.005   3.059  0.4822 -0.4159  0.4211
  724TIP3    H1 2178   2.630   5.059   3.116  0.2404 -0.3108  0.0866
  724TIP3    H2 2179   2.763   4.987   3.112  0.5008  0.1377  0.5842
  725TIP3   OH2 2180   4.673   1.070   4.822  0.5096 -0.1937  0.8232
  725TIP3    H1 2181   4.664   1.152   4.870  0.0955  0.0588  0.3184
  725TIP3    H2 2182   4.584   1.038   4.812  0.5596 -0.0610 -0.0881
  726TIP3   OH2 2183   4.975   0.697   2.944 -0.2684 -0.1511 -0.3063
  726TIP3    H1 2184   4.993   0.603   2.945  2.4472  0.2800 -0.0329
  726TIP3    H2 2185   4.911   0.708   2.874 -0.1771 -2.1303 -0.7727
  727TIP3   OH2 2186   4.428   4.485   1.286 -0.6571 -0.3385 -0.1849
  727TIP3    H1 2187   4.430   4.390   1.298 -0.1599 -0.3612 -0.4187
  727TIP3    H2 2188   4.390   4.496   1.198 -0.6001 -0.3244 -0.2076
  728TIP3   OH2 2189   1.722   1.782   2.878  0.0448  0.2604  0.1417
  728TIP3    H1 2190   1.783   1.752   2.945 -0.9135 -1.4491  0.3275
  728TIP3    H2 2191   1.775   1.832   2.816  1.2283  0.5292  1.3418
  729TIP3   OH2 2192   4.095   4.391   1.049 -0.3816  0.4002  0.2800
  729TIP3    H1 2193   4.117   4.357   0.962  0.8316  1.6039  0.0819
  729TIP3    H2 2194   4.000   4.401   1.047 -0.2294  2.2997 -1.7017
  730TIP3   OH2 2195   0.196   3.309   4.456  0.1299 -0.2349  0.0538
  730TIP3    H1 2196   0.181   3.403   4.448  1.6309 -0.0017 -0.3735
  730TIP3    H2 2197   0.283   3.295   4.417 -0.3526 -1.9008 -0.5049
  731TIP3   OH2 2198   2.253   3.588   1.162  0.4515  0.3569 -0.3788
  731TIP3    H1 2199   2.343   3.570   1.135  1.3295  0.5510  2.1168
  731TIP3    H2 2200   2.203   3.512   1.134  1.5430 -0.0911 -1.1555
  732TIP3   OH2 2201   1.704   3.633   0.608 -0.0392  0.1134  0.6650
  732TIP3    H1 2202   1.621   3.682   0.614  0.0685  0.8126 -2.0283
  732TIP3    H2 2203   1.682   3.545   0.638 -1.6613  0.4229  0.4878
  733TIP3   OH2 2204   6.106   4.827   4.449  0.1376 -0.4080 -0.3138
  733TIP3    H1 2205   6.117   4.815   4.543 -1.7446 -0.7051 -0.0979
  733TIP3    H2 2206   6.071   4.743   4.418  1.2116 -0.4918 -1.3893
  734TIP3   OH2 2207   1.135   5.077   4.549  0.1512 -0.4674  0.1741
  734TIP3    H1 2208   1.187   5.148   4.513  1.4944 -1.8657 -0.8053
  734TIP3    H2 2209   1.117   5.103   4.639  4.6254 -0.8399  1.4229
  735TIP3   OH2 2210   6.268   0.426   2.837 -0.4791 -0.2340  0.2217
  735TIP3    H1 2211   6.278   0.516   2.871 -0.6264 -0.3455  0.5713
  735TIP3    H2 2212   6.198   0.433   2.772 -0.9913 -0.2265  0.7672
  736TIP3   OH2 2213   4.865   1.373   1.270  0.1666  0.2284 -0.0525
  736TIP3    H1 2214   4.912   1.361   1.352  0.0721 -1.0205 -0.1509
  736TIP3    H2 2215   4.877   1.465   1.248  0.2475  0.5670  1.3179
  737TIP3   OH2 2216   0.122   1.523   2.044  0.1582 -0.6853 -0.1056
  737TIP3    H1 2217   0.104   1.615   2.061  1.9391 -0.4387  0.6684
  737TIP3    H2 2218   0.155   1.489   2.127 -1.9684 -2.4697  0.0995
  738TIP3   OH2 2219   0.218   5.557   1.354 -0.0627 -0.1311  0.2736
  738TIP3    H1 2220   0.206   5.529   1.263 -0.4768  2.3025 -0.4886
  738TIP3    H2 2221   0.278   5.631   1.348 -0.7618  0.6067  1.8814
  739TIP3   OH2 2222   2.954   4.649   1.174  0.3030  0.3558  0.7051
  739TIP3    H1 2223   2.907   4.566   1.173 -0.8889  0.9818 -1.1377
  739TIP3    H2 2224   3.038   4.630   1.134  0.1285 -0.0335  0.5153
  740TIP3   OH2 2225   4.389   3.533   4.267  0.4598 -0.5808 -0.2124
  740TIP3    H1 2226   4.392   3.592   4.192 -1.2630  0.7396  0.6815
  740TIP3    H2 2227   4.415   3.448   4.232 -1.0252 -0.1646 -2.5132
  741TIP3   OH2 2228   2.747   4.015   4.099 -0.3457 -0.3245  0.3675
  741TIP3    H1 2229   2.754   3.922   4.079 -1.6911 -0.5423  0.7787
  741TIP3    H2 2230   2.687   4.018   4.173 -1.7787  0.9902 -0.8004
  742TIP3   OH2 2231   6.052   3.409   2.699  0.3095 -0.0272 -0.5712
  742TIP3    H1 2232   6.122   3.467   2.669  0.9420  0.2880  1.4182
  742TIP3    H2 2233   6.097   3.333   2.735 -0.4459 -0.6615 -0.9380
  743TIP3   OH2 2234   1.183   0.855   1.632  0.3894  0.0783  0.1582
  743TIP3    H1 2235   1.111   0.918   1.640  2.3281  2.1625  5.2893
  743TIP3    H2 2236   1.227   0.880   1.550 -2.2232  1.4617 -0.9680
  744TIP3   OH2 2237   2.632   0.506   5.193  0.0256 -0.4952  0.6745
  744TIP3    H1 2238   2.579   0.431   5.164 -1.7360  0.3440  1.5688
  744TIP3    H2 2239   2.636   0.563   5.117  0.8212 -1.1766  0.1871
  745TIP3   OH2 2240   1.843   5.891   2.258 -0.0399 -0.1181 -0.0902
  745TIP3    H1 2241   1.753   5.921   2.246  0.5723  4.1213  3.3374
  745TIP3    H2 2242   1.892   5.936   2.189 -0.0468  1.6521  0.9807
  746TIP3   OH2 2243   0.810   1.079   2.386  0.1921  0.0200  0.5271
  746TIP3    H1 2244   0.831   1.170   2.409  0.1533  0.1097  0.2049
  746TIP3    H2 2245   0.885   1.029   2.417  1.1793  0.4024 -1.1331
  747TIP3   OH2 2246   3.824   0.327   3.764 -0.0244  0.6339 -0.0110
  747TIP3    H1 2247   3.907   0.332   3.812 -0.4111 -0.6578  0.8179
  747TIP3    H2 2248   3.824   0.240   3.725 -0.8680  0.7413 -0.2699
  748TIP3   OH2 2249   5.751   3.570   1.878 -0.4168  0.5050 -0.0970
  748TIP3    H1 2250   5.661   3.541   1.892 -0.2874 -0.0154 -0.3074
  748TIP3    H2 2251   5.760   3.649   1.931  0.2221 -1.6665  3.2799
  749TIP3   OH2 2252   2.769   0.227   3.819  0.3555  0.3579  0.1842
  749TIP3    H1 2253   2.775   0.194   3.908  0.6455  0.9737  0.3994
  749TIP3    H2 2254   2.788   0.320   3.827 -1.9323  0.9241 -0.1882
  750TIP3   OH2 2255   1.644   1.609   0.746 -0.6833 -0.2159 -0.2961
  750TIP3    H1 2256   1.727   1.581   0.785 -0.6438  0.2011 -0.0781
  750TIP3    H2 2257   1.639   1.559   0.664  0.5729  0.9375 -1.1064
  751TIP3   OH2 2258   4.296   0.606   2.694  0.3547 -0.2821  0.0825
  751TIP3    H1 2259   4.315   0.699   2.702  0.1258 -0.3643  1.9552
  751TIP3    H2 2260   4.202   0.601   2.681  0.3943 -0.2598 -0.2313
  752TIP3   OH2 2261   4.330   4.242   5.048 -0.0892 -0.4104 -0.6046
  752TIP3    H1 2262   4.384   4.183   5.101  0.0295  2.4145  2.8131
  752TIP3    H2 2263   4.392   4.307   5.014 -0.8298  1.2798  1.0622
  753TIP3   OH2 2264  -0.007   4.209   4.081 -0.7416  0.6276  0.2622
  753TIP3    H1 2265   0.004   4.304   4.073 -1.5503  0.7113  0.0227
  753TIP3    H2 2266   0.061   4.182   4.143  0.2929  1.1884 -0.5857
  754TIP3   OH2 2267   3.414   4.092   1.045  0.5341  0.3641  0.0696
  754TIP3    H1 2268   3.477   4.057   0.982 -2.1415 -0.5271 -2.2991
  754TIP3    H2 2269   3.419   4.187   1.033 -0.1888  0.2004 -1.8609
  755TIP3   OH2 2270   6.089   3.126   0.465 -0.2388  0.4143  0.4031
  755TIP3    H1 2271   6.073   3.037   0.433 -0.9118  0.4370  0.6629
  755TIP3    H2 2272   6.145   3.165   0.398 -1.6476  0.4689 -0.8059
  756TIP3   OH2 2273   6.269   1.810   2.911  0.3431 -0.3315  0.2379
  756TIP3    H1 2274   6.309   1.824   2.997  2.5694 -1.7878 -0.4492
  756TIP3    H2 2275   6.189   1.761   2.929  0.2154  0.3181  1.5375
  757TIP3   OH2 2276   0.275   4.950   1.184 -0.2684 -0.4393 -0.1015
  757TIP3    H1 2277   0.254   4.889   1.254 -0.2011  0.0742  0.3788
  757TIP3    H2 2278   0.335   5.014   1.225 -1.5085  0.8094 -0.1521
  758TIP3   OH2 2279   0.901   0.541   3.939  0.0504  0.1511 -0.0802
  758TIP3    H1 2280   0.921   0.454   3.904  0.6358  0.4181 -0.4167
  758TIP3    H2 2281   0.876   0.593   3.863  2.2686  1.0041 -0.2837
  759TIP3   OH2 2282   3.460   2.123   0.149  0.6271 -0.1912 -0.3705
  759TIP3    H1 2283   3.425   2.035   0.137 -2.5948  0.7680  0.9371
  759TIP3    H2 2284   3.492   2.125   0.239  0.4615  0.0392 -0.3155
  760TIP3   OH2 2285   0.219   3.549   0.538 -0.0268 -0.0273 -0.4115
  760TIP3    H1 2286   0.199   3.592   0.455  0.2779  0.7171 -0.1064
  760TIP3    H2 2287   0.196   3.457   0.523 -2.3819  0.5131 -0.5053
  761TIP3   OH2 2288   3.945   3.757   2.628  0.3794  0.3322 -0.3929
  761TIP3    H1 2289   3.939   3.718   2.541 -0.3543  1.3416 -0.8233
  761TIP3    H2 2290   3.885   3.705   2.681  1.7524 -1.0671 -0.1578
  762TIP3   OH2 2291   1.013   3.516   1.420 -0.1366  0.4434  0.1831
  762TIP3    H1 2292   1.059   3.439   1.452  0.3182  1.2385  1.5449
  762TIP3    H2 2293   0.922   3.488   1.412  0.1688 -0.4764 -0.2118
  763TIP3   OH2 2294   5.197   2.941   2.727  0.1292 -0.2477  0.5704
  763TIP3    H1 2295   5.203   2.846   2.728  0.1176 -0.2976 -1.2198
  763TIP3    H2 2296   5.285   2.971   2.752 -0.3358 -0.6584  2.9536
  764TIP3   OH2 2297   3.252   5.702   1.893 -0.4755 -0.0934 -0.6029
  764TIP3    H1 2298   3.220   5.792   1.905 -1.5342 -0.4732 -0.4792
  764TIP3    H2 2299   3.204   5.671   1.816  0.1011 -0.4704 -0.8168
  765TIP3   OH2 2300   5.126   0.170   3.074  0.2531  0.1188  0.0564
  765TIP3    H1 2301   5.131   0.193   3.167 -1.0853  0.0466  0.1615
  765TIP3    H2 2302   5.207   0.122   3.057  2.2361  3.1056  0.3092
  766TIP3   OH2 2303   2.404   5.489   2.731  0.4222 -0.2360 -0.3992
  766TIP3    H1 2304   2.315   5.522   2.716  0.2827 -0.7001 -0.6105
  766TIP3    H2 2305   2.433   5.458   2.645  0.8318  0.0147 -0.3519
  767TIP3   OH2 2306   1.997   5.914   1.478  0.3809 -0.4905 -0.0742
  767TIP3    H1 2307   2.072   5.855   1.486  3.2402  2.4491 -2.6437
  767TIP3    H2 2308   2.006   5.975   1.551 -1.6736 -2.1047  1.6573
  768TIP3   OH2 2309   5.702   1.383   0.367  0.2549 -0.0590 -1.1088
  768TIP3    H1 2310   5.660   1.418   0.289  0.1991 -0.2995 -1.1874
  768TIP3    H2 2311   5.639   1.321   0.403  1.2275 -1.7650 -2.2048
  769TIP3   OH2 2312   0.536   2.615   1.197 -0.4274  0.7730  0.1619
  769TIP3    H1 2313   0.627   2.596   1.177  0.0144  0.4011  2.2449
  769TIP3    H2 2314   0.498   2.645   1.114  1.3875  0.2582 -0.9005
  770TIP3   OH2 2315   1.487   4.689   0.528 -0.1804 -0.7777  0.3066
  770TIP3    H1 2316   1.490   4.769   0.476  0.7619 -0.0470  1.4200
  770TIP3    H2 2317   1.423   4.708   0.597  1.5982 -0.1059  1.8577
  771TIP3   OH2 2318   4.533   5.584   2.785  0.7003 -0.4321  0.1243
  771TIP3    H1 2319   4.553   5.531   2.862 -0.6517 -1.5376 -0.2467
  771TIP3    H2 2320   4.568   5.534   2.711  3.1512  1.2296  0.0428
  772TIP3   OH2 2321   1.422   4.629   2.512 -0.1806 -0.3383  0.2555
  772TIP3    H1 2322   1.364   4.561   2.480 -0.4638 -0.3915  0.8769
  772TIP3    H2 2323   1.365   4.690   2.558  0.2791 -0.5387  1.1210
  773TIP3   OH2 2324   3.937   4.537   2.647 -0.0274  0.4981  0.1486
  773TIP3    H1 2325   3.934   4.441   2.650 -0.3321  0.5212  1.1597
  773TIP3    H2 2326   3.855   4.562   2.606 -0.5430  0.3412  1.0445
  774TIP3   OH2 2327   3.438   4.815   1.873 -0.7176 -0.4937  0.5940
  774TIP3    H1 2328   3.420   4.721   1.878  0.2404 -0.6672  0.8487
  774TIP3    H2 2329   3.491   4.825   1.795  0.2187 -0.3388  1.2360
  775TIP3   OH2 2330   4.178   0.339   2.254  0.0638 -0.0121 -0.3318
  775TIP3    H1 2331   4.210   0.372   2.170  0.6945  0.2383  0.0043
  775TIP3    H2 2332   4.256   0.309   2.300  0.1581  2.6122  1.3894
  776TIP3   OH2 2333   4.479   0.258   0.644 -0.5323 -0.4695  0.2084
  776TIP3    H1 2334   4.400   0.243   0.695 -0.2258  0.1710  0.9050
  776TIP3    H2 2335   4.551   0.242   0.707 -0.1104 -0.9139 -0.3724
  777TIP3   OH2 2336   1.418   4.214   3.947  0.5473  0.4837  0.0010
  777TIP3    H1 2337   1.429   4.231   3.854  0.9259 -0.9891 -0.2470
  777TIP3    H2 2338   1.332   4.249   3.968  0.0653  0.0263 -1.1133
  778TIP3   OH2 2339   5.939   3.552   3.014 -0.4702 -0.2273  0.5561
  778TIP3    H1 2340   5.972   3.481   3.069 -1.0913 -1.6102 -0.8013
  778TIP3    H2 2341   5.850   3.525   2.991 -0.4132  0.5749 -0.6724
  779TIP3   OH2 2342   4.975   1.235   0.605 -0.1943  0.1429 -0.5398
  779TIP3    H1 2343   5.047   1.266   0.660 -1.2203 -0.5873  1.2757
  779TIP3    H2 2344   4.932   1.315   0.574  0.4072  0.5693 -0.2926
  780TIP3   OH2 2345   2.015   5.147   1.938 -0.6914 -0.1832 -0.4718
  780TIP3    H1 2346   1.938   5.143   1.881 -1.4154  0.2000  0.4425
  780TIP3    H2 2347   2.003   5.075   2.000 -0.1174 -0.3494 -0.5503
  781TIP3   OH2 2348   3.290   1.859   4.016 -0.2071  0.3151  0.3901
  781TIP3    H1 2349   3.379   1.884   3.990 -0.2819  0.9592  0.7122
  781TIP3    H2 2350   3.297   1.768   4.043  0.4339  0.4598  0.7381
  782TIP3   OH2 2351   0.033   2.743   1.513  0.0437 -0.4572  0.0741
  782TIP3    H1 2352   0.022   2.819   1.569 -1.6615  0.1426 -1.0025
  782TIP3    H2 2353   0.125   2.720   1.522 -0.1665 -0.4741  3.1527
  783TIP3   OH2 2354   5.119   2.393   3.927  0.3146 -0.0396  0.3238
  783TIP3    H1 2355   5.115   2.478   3.972  1.0172 -0.5306  1.3614
  783TIP3    H2 2356   5.196   2.400   3.870  1.7486 -0.7267  2.0880
  784TIP3   OH2 2357   2.013   0.528   2.211  0.6758 -0.0358 -0.1624
  784TIP3    H1 2358   2.015   0.621   2.235 -0.4021 -0.3838  1.4521
  784TIP3    H2 2359   2.080   0.488   2.267  0.5699 -0.3400 -0.2529
  785TIP3   OH2 2360   4.607   2.861   2.579 -0.0037 -0.5853  0.2004
  785TIP3    H1 2361   4.569   2.949   2.567  0.8338 -0.4444 -2.0688
  785TIP3    H2 2362   4.648   2.842   2.494  0.8050 -2.7205  1.0130
  786TIP3   OH2 2363   3.457   0.087   0.142  0.6114 -0.1444 -0.3710
  786TIP3    H1 2364   3.384   0.107   0.202  0.6905 -0.1097 -0.2864
  786TIP3    H2 2365   3.442   0.143   0.066  0.3644 -0.3781 -0.4987
  787TIP3   OH2 2366   5.297   5.563   3.206  0.1411 -0.3447 -0.1066
  787TIP3    H1 2367   5.214   5.610   3.211  1.8548  3.0246 -0.2640
  787TIP3    H2 2368   5.343   5.603   3.133  2.3353 -1.3163  0.6570
  788TIP3   OH2 2369   5.564   5.321   2.084 -0.2611 -0.2307 -0.1160
  788TIP3    H1 2370   5.469   5.316   2.069 -0.3848  1.6077 -0.1742
  788TIP3    H2 2371   5.603   5.301   1.999 -0.6057 -0.7022 -0.1654
  789TIP3   OH2 2372   4.008   5.607   2.940  0.3588 -0.0154  0.2250
  789TIP3    H1 2373   3.968   5.625   2.854 -1.0015 -0.2310  0.7836
  789TIP3    H2 2374   4.087   5.661   2.942 -0.3357  1.0773 -0.6090
  790TIP3   OH2 2375   1.274   1.603   4.266 -0.3888 -0.4124 -0.0463
  790TIP3    H1 2376   1.226   1.529   4.230  0.1747 -0.4037 -0.8478
  790TIP3    H2 2377   1.357   1.566   4.296  0.1050 -0.0522 -0.9040
  791TIP3   OH2 2378   4.742   0.135   2.032 -0.1137  0.2140  0.4861
  791TIP3    H1 2379   4.824   0.090   2.010 -0.1957  0.1878  0.2413
  791TIP3    H2 2380   4.695   0.142   1.950 -0.9431 -0.9450  0.8356
  792TIP3   OH2 2381   5.876   2.528   0.642 -0.2475  0.0568 -0.2029
  792TIP3    H1 2382   5.904   2.574   0.721  0.6909 -2.4443  1.0427
  792TIP3    H2 2383   5.955   2.483   0.611 -0.6610  0.7131 -2.4594
  793TIP3   OH2 2384   3.310   5.751   3.814 -0.5326  0.7129 -0.4546
  793TIP3    H1 2385   3.375   5.680   3.814 -0.8399  0.4308 -0.6446
  793TIP3    H2 2386   3.326   5.797   3.897 -0.7784  0.0101 -0.0077
  794TIP3   OH2 2387   4.204   2.595   2.684  0.2502  0.3816 -0.2057
  794TIP3    H1 2388   4.286   2.608   2.637  0.5286 -1.3208 -0.2285
  794TIP3    H2 2389   4.230   2.559   2.769 -0.4830 -0.3176 -0.2677
  795TIP3   OH2 2390   3.982   4.519   2.023 -0.2929  0.3895  0.2048
  795TIP3    H1 2391   4.035   4.526   1.944 -0.8460  0.0709 -0.1973
  795TIP3    H2 2392   4.035   4.466   2.083 -0.5528 -0.7593 -0.5479
  796TIP3   OH2 2393   6.084   2.365   5.054 -0.8081  0.1214 -0.3577
  796TIP3    H1 2394   6.074   2.330   5.142 -1.2409 -1.7674 -1.1066
  796TIP3    H2 2395   6.016   2.432   5.046 -0.3722  0.7405  0.9123
  797TIP3   OH2 2396   1.741   2.627   3.433 -0.5940 -0.1265  0.1028
  797TIP3    H1 2397   1.670   2.626   3.497 -0.1632 -0.5193  0.5831
  797TIP3    H2 2398   1.745   2.718   3.404 -1.3030 -0.1036  0.0548
  798TIP3   OH2 2399   2.088   4.709   4.315 -0.1849 -0.4956 -0.0440
  798TIP3    H1 2400   2.100   4.619   4.342 -0.8296 -0.7509 -0.5800
  798TIP3    H2 2401   2.050   4.752   4.392  0.8375 -0.4871  0.4724
  799TIP3   OH2 2402   1.140   2.589   0.308 -0.4289  0.4503 -0.0967
  799TIP3    H1 2403   1.170   2.569   0.397 -2.7928 -1.3934  0.3791
  799TIP3    H2 2404   1.218   2.580   0.254  0.4752 -1.4719  1.3979
  800TIP3   OH2 2405   0.327   4.562   0.475 -0.4861  0.5788 -0.1066
  800TIP3    H1 2406   0.295   4.489   0.422  1.4077 -0.8855  0.6528
  800TIP3    H2 2407   0.261   4.572   0.544 -0.7735 -0.4132 -0.2240
  801TIP3   OH2 2408   0.392   3.724   0.685 -0.4433 -0.1344  0.2716
  801TIP3    H1 2409   0.330   3.702   0.755 -2.5566  2.5638 -0.5693
  801TIP3    H2 2410   0.360   3.677   0.608 -0.7283  0.2888  0.1278
  802TIP3   OH2 2411   3.614   3.023   4.441  0.1839 -0.5830 -0.2843
  802TIP3    H1 2412   3.663   3.023   4.523  0.6995 -1.7900 -0.5763
  802TIP3    H2 2413   3.525   2.998   4.466 -0.4276  1.8990  0.2875
  803TIP3   OH2 2414   4.494   0.399   3.294 -0.4678  0.8466  0.5641
  803TIP3    H1 2415   4.456   0.486   3.297  0.2193  1.3180 -2.0978
  803TIP3    H2 2416   4.581   0.409   3.333  0.1683  1.7120 -1.0242
  804TIP3   OH2 2417   1.346   1.437   1.978 -0.4272 -0.0287  0.0372
  804TIP3    H1 2418   1.374   1.349   2.006 -1.9519  0.1050  2.2461
  804TIP3    H2 2419   1.295   1.422   1.899  0.9454 -0.8764 -0.7377
  805TIP3   OH2 2420   3.857   2.772   2.059 -0.1242 -0.2780 -0.1807
  805TIP3    H1 2421   3.833   2.845   2.002 -2.1206 -0.2787  0.5938
  805TIP3    H2 2422   3.826   2.695   2.013 -0.2710 -0.4151  0.1437
  806TIP3   OH2 2423   5.518   4.705   3.484  0.5831 -0.3454 -0.0776
  806TIP3    H1 2424   5.476   4.736   3.404  0.3698  0.6641  0.4038
  806TIP3    H2 2425   5.529   4.784   3.537 -0.7662 -1.2167  1.5766
  807TIP3   OH2 2426   1.633   2.312   0.139  0.1399  0.2470 -0.5696
  807TIP3    H1 2427   1.662   2.264   0.217 -0.1509  0.0676 -0.5703
  807TIP3    H2 2428   1.539   2.322   0.151 -0.0224 -0.3942 -1.2320
  808TIP3   OH2 2429   0.724   3.868   0.454 -0.0143 -0.2606  0.3044
  808TIP3    H1 2430   0.686   3.861   0.541  0.2560 -2.4462  0.3101
  808TIP3    H2 2431   0.737   3.962   0.440 -0.2560  0.1407  2.5168
  809TIP3   OH2 2432   4.703   2.096   1.175  0.0443 -0.2889 -0.2631
  809TIP3    H1 2433   4.671   2.007   1.159 -0.5592 -0.0807 -0.2231
  809TIP3    H2 2434   4.699   2.106   1.270 -1.4550  0.3462 -0.3653
  810TIP3   OH2 2435   2.813   1.569   4.283  0.2315  0.1206  0.0224
  810TIP3    H1 2436   2.812   1.548   4.190  0.0621 -1.2156  0.3016
  810TIP3    H2 2437   2.895   1.532   4.315 -0.4139 -0.7808  0.6812
  811TIP3   OH2 2438   2.881   0.516   3.792  0.3398 -0.1442  0.0493
  811TIP3    H1 2439   2.822   0.588   3.771  2.5322  1.2713 -1.7487
  811TIP3    H2 2440   2.903   0.530   3.884 -0.5426  0.4743  0.1810
  812TIP3   OH2 2441   6.305   3.822   4.841 -0.9325  0.3294 -0.4821
  812TIP3    H1 2442   6.226   3.867   4.810 -0.3588  2.4340  0.9271
  812TIP3    H2 2443   6.370   3.891   4.849  0.4206 -1.0139  0.4742
  813TIP3   OH2 2444   0.445   0.370   2.497 -0.2213  0.3907  0.1327
  813TIP3    H1 2445   0.442   0.393   2.405 -2.8292  1.4475  0.4081
  813TIP3    H2 2446   0.439   0.274   2.498  0.1154  0.3528 -0.7893
  814TIP3   OH2 2447   2.646   1.054   2.854  0.0288 -0.0724 -0.2172
  814TIP3    H1 2448   2.695   0.988   2.904 -1.7776  0.6267  2.7881
  814TIP3    H2 2449   2.699   1.133   2.860 -0.1945  0.0186  0.7326
  815TIP3   OH2 2450   2.966   4.886   3.835  0.3911  0.3468  0.1884
  815TIP3    H1 2451   2.946   4.905   3.744 -1.1832 -0.9145  0.2244
  815TIP3    H2 2452   3.061   4.881   3.838  0.4447 -0.6293 -1.6183
  816TIP3   OH2 2453   2.430   0.924   4.165 -0.4916  0.1653  0.0508
  816TIP3    H1 2454   2.347   0.881   4.143 -0.4584 -0.4378  1.0257
  816TIP3    H2 2455   2.419   0.952   4.256 -0.5309  2.3298 -0.5833
  817TIP3   OH2 2456   5.563   3.811   0.769 -0.3488  0.1811 -0.3124
  817TIP3    H1 2457   5.608   3.828   0.852  1.5184 -2.0166 -0.7752
  817TIP3    H2 2458   5.547   3.717   0.770  1.2968 -0.2461 -3.1122
  818TIP3   OH2 2459   1.472   0.815   4.424 -0.3830  0.1027 -0.4318
  818TIP3    H1 2460   1.402   0.848   4.479 -0.9449  2.1504 -2.2024
  818TIP3    H2 2461   1.552   0.854   4.461 -0.5598  0.2283 -0.1803
  819TIP3   OH2 2462   5.988   0.087   0.501  0.5684  0.1042 -0.0502
  819TIP3    H1 2463   6.025   0.171   0.476  2.2308 -0.8277 -0.9449
  819TIP3    H2 2464   5.921   0.069   0.435 -0.7233  1.2714  0.8946
  820TIP3   OH2 2465   0.414   4.525   4.810  0.2149  0.4688  0.1850
  820TIP3    H1 2466   0.407   4.586   4.885 -0.4245  2.7029 -1.5762
  820TIP3    H2 2467   0.375   4.444   4.842  2.0478  0.5452  3.0071
  821TIP3   OH2 2468   4.826   3.208   3.018  0.1966 -0.6146  0.4047
  821TIP3    H1 2469   4.920   3.213   3.005  0.3702 -1.7093  1.1226
  821TIP3    H2 2470   4.792   3.172   2.935  0.3170  0.4057 -0.1028
  822TIP3   OH2 2471   3.428   4.251   0.715 -0.2336 -0.5493 -0.3848
  822TIP3    H1 2472   3.411   4.224   0.624  0.1507 -0.7145 -0.4093
  822TIP3    H2 2473   3.472   4.176   0.754 -0.2654 -0.4191 -0.1017
  823TIP3   OH2 2474   1.578   3.058   0.591  0.1724  0.5126  0.2152
  823TIP3    H1 2475   1.613   3.066   0.679 -1.2789 -0.3723  0.8998
  823TIP3    H2 2476   1.532   3.141   0.576  1.2627  1.0777 -0.1298
  824TIP3   OH2 2477   1.107   4.613   4.180  0.7924 -0.2988 -0.1507
  824TIP3    H1 2478   1.102   4.592   4.273  1.9013  1.1640  0.2834
  824TIP3    H2 2479   1.020   4.591   4.145  0.0984 -0.1266  1.3956
  825TIP3   OH2 2480   0.349   0.583   0.425 -0.1956 -0.1768  0.1354
  825TIP3    H1 2481   0.373   0.637   0.500  0.5459 -0.1738 -0.0952
  825TIP3    H2 2482   0.424   0.590   0.365 -0.3213 -1.0200 -0.1353
  826TIP3   OH2 2483   5.175   2.432   2.775  0.3469  0.6086  0.1862
  826TIP3    H1 2484   5.081   2.421   2.785 -0.0882  3.3604 -0.2220
  826TIP3    H2 2485   5.208   2.343   2.762 -1.6402 -0.9143  4.0870
  827TIP3   OH2 2486   0.982   4.011   2.025  0.0260  0.0221  0.4287
  827TIP3    H1 2487   1.074   4.011   2.001 -0.2193 -2.6739 -0.9568
  827TIP3    H2 2488   0.938   3.970   1.950 -2.3835  1.6589  0.8500
  828TIP3   OH2 2489   3.631   4.492   4.729 -0.0494 -0.4881  0.1844
  828TIP3    H1 2490   3.677   4.444   4.797  2.9795 -0.3926 -1.5731
  828TIP3    H2 2491   3.666   4.456   4.647 -0.7439  1.8646 -1.2455
  829TIP3   OH2 2492   2.519   5.663   0.407 -0.5467  0.0816  0.0429
  829TIP3    H1 2493   2.503   5.742   0.356 -0.2250  0.1309  0.0152
  829TIP3    H2 2494   2.434   5.642   0.446 -0.4865  0.8356  0.6062
  830TIP3   OH2 2495   2.535   0.485   3.202 -0.1306 -0.1571  0.2474
  830TIP3    H1 2496   2.610   0.462   3.148 -0.1513  1.3494 -0.4934
  830TIP3    H2 2497   2.504   0.569   3.166 -1.3485 -0.0797  1.3698
  831TIP3   OH2 2498   1.380   0.132   0.376 -0.6207  0.2915  0.1787
  831TIP3    H1 2499   1.354   0.143   0.467 -0.2512 -1.5547  0.5606
  831TIP3    H2 2500   1.438   0.056   0.377 -0.6190  0.2245 -1.5968
  832TIP3   OH2 2501   1.714   4.861   3.224  0.4299  0.1297 -0.2094
  832TIP3    H1 2502   1.756   4.813   3.152 -1.4982 -0.9387 -0.6836
  832TIP3    H2 2503   1.663   4.930   3.181  1.2100  1.0683  0.3241
  833TIP3   OH2 2504   4.232   3.077   4.025 -0.6787 -0.8501 -0.0678
  833TIP3    H1 2505   4.159   3.114   4.075 -1.1901 -1.5164 -0.2932
  833TIP3    H2 2506   4.224   2.982   4.039 -0.4774 -1.0024 -0.9264
  834TIP3   OH2 2507   1.049   0.703   3.003 -0.2211 -0.4095  0.0429
  834TIP3    H1 2508   1.037   0.713   2.908  0.7988  1.1728  0.0371
  834TIP3    H2 2509   0.980   0.757   3.041  1.2283  1.5258  0.1072
  835TIP3   OH2 2510   6.345   3.366   0.595 -0.1939 -0.7714 -0.1834
  835TIP3    H1 2511   6.407   3.324   0.654 -1.3389 -2.8432 -0.3726
  835TIP3    H2 2512   6.269   3.385   0.650 -0.0674  0.2399 -0.3253
  836TIP3   OH2 2513   0.486   3.766   1.073 -0.0600  0.3276  0.1086
  836TIP3    H1 2514   0.439   3.812   1.003  0.3410 -0.6616 -0.8341
  836TIP3    H2 2515   0.417   3.723   1.124 -0.3969  1.5020  0.6880
  837TIP3   OH2 2516   1.190   0.593   3.949  0.5221 -0.0100 -0.1823
  837TIP3    H1 2517   1.098   0.573   3.968  1.0836 -1.5937  1.1582
  837TIP3    H2 2518   1.234   0.580   4.033  2.0843 -0.0330 -0.9851
  838TIP3   OH2 2519   2.129   1.830   2.008  0.4264 -0.2784  0.3578
  838TIP3    H1 2520   2.085   1.747   2.028  1.7314 -0.8467  0.9980
  838TIP3    H2 2521   2.156   1.821   1.916  0.3961 -0.4946  0.3692
  839TIP3   OH2 2522   1.686   2.013   1.231  0.4320 -0.4667 -0.0857
  839TIP3    H1 2523   1.661   1.941   1.174 -0.7369 -1.5027  1.6156
  839TIP3    H2 2524   1.626   2.084   1.207  0.0846 -0.8241 -0.2949
  840TIP3   OH2 2525   1.814   3.174   3.481  0.2711  0.0683  0.4500
  840TIP3    H1 2526   1.900   3.162   3.520  0.7666  0.2630 -0.5510
  840TIP3    H2 2527   1.831   3.218   3.398 -0.7109 -0.7218 -0.1944
  841TIP3   OH2 2528   3.016   4.085   3.299  0.2092  0.5043 -0.7075
  841TIP3    H1 2529   3.011   4.162   3.356 -1.8281  0.3274 -0.5677
  841TIP3    H2 2530   3.053   4.017   3.355  2.7079  1.4939 -1.0341
  842TIP3   OH2 2531   6.174   0.689   4.634  0.5669 -0.0560  0.3267
  842TIP3    H1 2532   6.095   0.660   4.588 -0.1684  1.2906  0.6608
  842TIP3    H2 2533   6.172   0.785   4.626  1.9283  0.0296  0.7520
  843TIP3   OH2 2534   0.265   2.731   3.070  0.3722 -0.3976  0.0195
  843TIP3    H1 2535   0.246   2.752   2.979 -0.9853 -2.5053 -0.2513
  843TIP3    H2 2536   0.180   2.734   3.114  0.9075 -0.1349  1.0606
  844TIP3   OH2 2537   1.267   3.731   2.523 -0.3535 -0.0640  0.2200
  844TIP3    H1 2538   1.304   3.724   2.435 -1.1252  0.6723 -0.1829
  844TIP3    H2 2539   1.276   3.644   2.560  0.7705 -0.1747 -0.2621
  845TIP3   OH2 2540   0.430   1.683   3.571  0.0346  0.2800  0.3041
  845TIP3    H1 2541   0.383   1.680   3.487 -0.0917 -1.1800  0.4048
  845TIP3    H2 2542   0.522   1.691   3.546  0.0815 -1.0559 -0.0232
  846TIP3   OH2 2543   5.114   0.389   2.261  0.5138 -0.1785 -0.1992
  846TIP3    H1 2544   5.025   0.426   2.261  0.5469 -0.0505 -1.3326
  846TIP3    H2 2545   5.169   0.460   2.296  0.2817  0.0618 -0.3114
  847TIP3   OH2 2546   5.546   4.423   1.574 -0.7115  0.2135 -0.1383
  847TIP3    H1 2547   5.583   4.435   1.487 -2.7357  0.8226 -0.9728
  847TIP3    H2 2548   5.523   4.512   1.602 -0.8204 -0.0675  0.6862
  848TIP3   OH2 2549   1.267   1.593   0.618 -0.5889  0.0498 -0.3096
  848TIP3    H1 2550   1.299   1.538   0.690 -0.5058  0.0139 -0.3740
  848TIP3    H2 2551   1.222   1.665   0.662  0.6869  0.7875 -0.1698
  849TIP3   OH2 2552   4.916   0.981   3.954  0.6628  0.5289  0.3126
  849TIP3    H1 2553   4.951   0.996   4.042  0.2980  2.0964  0.2104
  849TIP3    H2 2554   4.828   0.949   3.969  1.2558 -1.1014  0.5255
  850TIP3   OH2 2555   2.381   1.720   2.700 -0.1443  0.0273  0.5464
  850TIP3    H1 2556   2.400   1.677   2.784 -1.6890 -0.5261  0.6494
  850TIP3    H2 2557   2.384   1.813   2.720 -0.9240 -0.1018  1.3513
  851TIP3   OH2 2558   4.166   0.477   4.583 -0.8436 -0.5049  0.3757
  851TIP3    H1 2559   4.193   0.553   4.532 -0.5595 -0.0842  1.1390
  851TIP3    H2 2560   4.076   0.496   4.610 -1.2074 -0.9864 -0.4246
  852TIP3   OH2 2561   1.061   3.945   1.675  0.0015  0.3474 -0.1019
  852TIP3    H1 2562   1.012   3.881   1.623  1.5876 -1.0494  0.0424
  852TIP3    H2 2563   1.128   3.893   1.720  0.8100  2.0083  0.6901
  853TIP3   OH2 2564   0.011   5.965   0.567 -0.7451  0.8041 -1.2477
  853TIP3    H1 2565   0.072   6.038   0.581 -0.6871  0.2176  2.7397
  853TIP3    H2 2566   0.060   5.905   0.510  2.0574  0.8855  0.8386
  854TIP3   OH2 2567   0.616   2.967   4.759  0.5750 -0.1992 -0.0564
  854TIP3    H1 2568   0.558   2.929   4.693  1.7351 -3.2592  0.5198
  854TIP3    H2 2569   0.568   2.958   4.841 -0.0774  1.8647 -0.1435
  855TIP3   OH2 2570   4.067   0.365   3.912  0.0102 -0.2085  0.1251
  855TIP3    H1 2571   4.146   0.387   3.862 -0.3148 -1.8207 -1.1853
  855TIP3    H2 2572   4.064   0.430   3.981  1.3514  1.1702 -1.0351
  856TIP3   OH2 2573   1.768   3.723   0.877  0.3101 -0.0128  0.5604
  856TIP3    H1 2574   1.750   3.675   0.796 -0.3282  0.2746  0.5276
  856TIP3    H2 2575   1.814   3.802   0.847  1.4337 -0.6219  0.6218
  857TIP3   OH2 2576   1.878   5.743   3.224  1.0837 -0.1760 -0.5806
  857TIP3    H1 2577   1.888   5.794   3.144 -0.4667  0.4387 -0.4231
  857TIP3    H2 2578   1.878   5.652   3.194 -1.5654  0.0702 -1.6455
  858TIP3   OH2 2579   6.081   5.884   5.127  0.6553 -0.4454 -0.6967
  858TIP3    H1 2580   6.025   5.823   5.079 -1.1384  0.2343  0.4312
  858TIP3    H2 2581   6.056   5.970   5.094  0.3441 -0.0640  0.5262
  859TIP3   OH2 2582   5.925   0.181   3.326 -0.5049  0.0365 -0.5689
  859TIP3    H1 2583   6.012   0.194   3.364 -0.5909 -0.6089 -0.1423
  859TIP3    H2 2584   5.942   0.164   3.233 -0.2167  0.4459 -0.5969
  860TIP3   OH2 2585   3.791   1.590   0.408  0.7767  0.1457  0.2203
  860TIP3    H1 2586   3.797   1.495   0.412  0.6792  0.1453  0.3980
  860TIP3    H2 2587   3.752   1.615   0.493  1.2548  0.3808  0.3738
  861TIP3   OH2 2588   2.410   1.478   0.614 -0.1741 -0.4918 -0.3340
  861TIP3    H1 2589   2.421   1.573   0.613  3.2664 -0.7515 -2.6001
  861TIP3    H2 2590   2.460   1.449   0.690  0.9193 -0.5778 -1.0568
  862TIP3   OH2 2591   3.118   0.852   4.713 -0.4706 -0.2192  0.4396
  862TIP3    H1 2592   3.187   0.867   4.648 -1.3446 -1.3278 -0.7960
  862TIP3    H2 2593   3.159   0.876   4.796  1.5005 -1.0484 -0.2118
  863TIP3   OH2 2594   3.368   0.440   2.794  0.1628 -0.1104  0.0160
  863TIP3    H1 2595   3.396   0.462   2.705 -1.7242 -0.2588 -0.6458
  863TIP3    H2 2596   3.407   0.353   2.810  1.0633  0.2016 -0.3893
  864TIP3   OH2 2597   6.220   5.676   1.493  0.1493  0.3935 -0.1332
  864TIP3    H1 2598   6.254   5.692   1.405 -0.2690 -1.5606 -0.6937
  864TIP3    H2 2599   6.184   5.587   1.489  1.6839 -0.4483  2.4543
  865TIP3   OH2 2600   2.861   4.834   2.524  0.9835 -0.4969  0.2168
  865TIP3    H1 2601   2.829   4.855   2.436  1.2851  0.8816  0.4062
  865TIP3    H2 2602   2.829   4.746   2.542 -0.0247 -0.3568 -0.8339
  866TIP3   OH2 2603   6.156   4.616   1.008 -0.1741 -0.3999  0.1856
  866TIP3    H1 2604   6.251   4.611   0.997  0.0313  1.6116  0.7148
  866TIP3    H2 2605   6.126   4.526   0.992  1.8512 -1.1954  0.4786
  867TIP3   OH2 2606   4.732   0.633   3.672  0.8222 -0.1112  0.5041
  867TIP3    H1 2607   4.790   0.705   3.649  2.1571 -0.9239  1.1573
  867TIP3    H2 2608   4.712   0.647   3.765  0.6916 -0.3086  0.5072
  868TIP3   OH2 2609   0.132   0.726   1.760  0.0297  0.2350  0.3896
  868TIP3    H1 2610   0.115   0.816   1.787 -1.6634  0.0790  0.0029
  868TIP3    H2 2611   0.166   0.683   1.838  1.7487  1.3909  0.3388
  869TIP3   OH2 2612   0.498  -0.002   3.929 -0.1630 -0.0712  0.6943
  869TIP3    H1 2613   0.469   0.074   3.879 -1.5407 -0.7763  0.3749
  869TIP3    H2 2614   0.521   0.033   4.015 -1.1451  0.6573  0.6707
  870TIP3   OH2 2615   2.470   5.398   1.897  0.2080  0.2216  0.2110
  870TIP3    H1 2616   2.405   5.354   1.952  0.4243 -1.0416 -0.4997
  870TIP3    H2 2617   2.471   5.348   1.816  0.5227  1.5301 -0.6271
  871TIP3   OH2 2618   5.516   1.153   4.121 -0.2199  0.3227 -0.1497
  871TIP3    H1 2619   5.553   1.143   4.033  1.1350  0.3085  0.3993
  871TIP3    H2 2620   5.583   1.201   4.169 -1.0939  0.6184  0.7880
  872TIP3   OH2 2621   4.444   0.879   1.235  0.8718 -0.1968 -0.0819
  872TIP3    H1 2622   4.405   0.807   1.284  0.2316  1.0246  1.2844
  872TIP3    H2 2623   4.494   0.928   1.300  1.0163  0.7884 -0.9089
  873TIP3   OH2 2624   5.101   2.413   3.215  0.5465  0.3195  0.0683
  873TIP3    H1 2625   5.051   2.379   3.140  1.1453 -1.5006  0.4458
  873TIP3    H2 2626   5.039   2.414   3.287  0.3377  0.7315 -0.1132
  874TIP3   OH2 2627   2.780   5.261   2.379  0.1238 -0.1245  0.0860
  874TIP3    H1 2628   2.852   5.283   2.439  1.4563  0.7207 -1.7213
  874TIP3    H2 2629   2.769   5.167   2.387 -0.2377  0.0318  2.1363
  875TIP3   OH2 2630   3.620   4.758   4.802 -0.9188  0.4796 -0.4241
  875TIP3    H1 2631   3.609   4.670   4.766 -0.9155  0.2670  0.0849
  875TIP3    H2 2632   3.701   4.754   4.853 -1.4244  0.4995  0.4067
  876TIP3   OH2 2633   0.288   2.882   0.623  0.4821 -0.1084 -0.4977
  876TIP3    H1 2634   0.215   2.934   0.590 -0.8381 -1.1361  0.6921
  876TIP3    H2 2635   0.350   2.878   0.550 -1.1793 -0.2049 -1.9564
  877TIP3   OH2 2636   4.793   4.931   0.549 -0.2041 -0.0990  0.0125
  877TIP3    H1 2637   4.795   4.848   0.499  1.3237 -0.1689  0.1467
  877TIP3    H2 2638   4.852   4.989   0.501  0.2331  0.2804  0.9862
  878TIP3   OH2 2639   2.373   4.026   3.113  0.1741 -0.8365  0.5623
  878TIP3    H1 2640   2.420   4.052   3.034 -0.3751  2.2560  1.1269
  878TIP3    H2 2641   2.297   3.977   3.080 -0.2688  0.7345 -0.9219
  879TIP3   OH2 2642   5.749   5.837   0.345 -0.8689  0.1921 -0.3547
  879TIP3    H1 2643   5.729   5.748   0.319  1.2158  0.1227 -2.0808
  879TIP3    H2 2644   5.804   5.828   0.423  0.2228 -0.1402 -1.1362
  880TIP3   OH2 2645   2.119   1.728   4.098  0.1924  0.4763  0.1063
  880TIP3    H1 2646   2.073   1.701   4.178 -0.1749 -1.0799 -0.5993
  880TIP3    H2 2647   2.209   1.696   4.110  0.6830  1.9622  0.7072
  881TIP3   OH2 2648   4.424   2.018   1.916  0.4318  0.5318 -0.4826
  881TIP3    H1 2649   4.342   2.053   1.880 -0.2719  0.3428  0.8636
  881TIP3    H2 2650   4.459   1.963   1.846 -1.2971 -0.4706 -0.6402
  882TIP3   OH2 2651   4.317   4.705   3.515 -0.2921  0.1978 -0.2328
  882TIP3    H1 2652   4.309   4.729   3.607  0.0483  0.1367 -0.1850
  882TIP3    H2 2653   4.387   4.761   3.481  1.8319 -1.9347  0.3337
  883TIP3   OH2 2654   1.775   2.108   2.878 -0.0195 -0.2592  0.6763
  883TIP3    H1 2655   1.787   2.050   2.802 -0.2547  1.4025 -0.6813
  883TIP3    H2 2656   1.689   2.084   2.913 -1.1168  0.6913 -1.2210
  884TIP3   OH2 2657   1.313   5.556   3.095 -0.4332  0.0456 -0.4505
  884TIP3    H1 2658   1.403   5.569   3.066  0.1010 -0.7514  0.7657
  884TIP3    H2 2659   1.279   5.645   3.108  0.8154  0.3643  0.9113
  885TIP3   OH2 2660   6.348   3.990   4.592 -0.0875  0.2830 -0.8777
  885TIP3    H1 2661   6.394   4.016   4.671 -1.8666 -2.0253  1.0462
  885TIP3    H2 2662   6.267   4.041   4.593  1.0082  2.2023 -2.7156
  886TIP3   OH2 2663   1.189   2.580   1.144 -0.6051 -0.1063  0.5446
  886TIP3    H1 2664   1.185   2.503   1.089 -3.3295  0.6327 -0.4354
  886TIP3    H2 2665   1.250   2.557   1.214 -0.4519 -2.6807 -0.3544
  887TIP3   OH2 2666   6.189   4.619   0.687 -0.4602  0.5721 -0.3233
  887TIP3    H1 2667   6.120   4.669   0.731 -0.3774 -0.5569  1.1651
  887TIP3    H2 2668   6.155   4.605   0.598 -1.4642  1.3206 -0.0857
  888TIP3   OH2 2669   1.333   0.160   0.653  0.0469 -0.1043 -0.0659
  888TIP3    H1 2670   1.345   0.075   0.696 -0.1279  0.6601  1.5635
  888TIP3    H2 2671   1.246   0.188   0.681  0.4072  0.9487  0.0252
  889TIP3   OH2 2672   5.750   3.863   1.205  0.4168  0.5376  0.2747
  889TIP3    H1 2673   5.682   3.923   1.175 -0.5318 -0.5813  0.1150
  889TIP3    H2 2674   5.719   3.832   1.290  0.3188 -0.5507 -0.1278
  890TIP3   OH2 2675   4.074   4.254   4.900  0.3324  0.6623  0.4292
  890TIP3    H1 2676   4.074   4.347   4.877  0.1381  0.6970  0.5636
  890TIP3    H2 2677   4.143   4.244   4.965  0.9274  0.5528 -0.2082
  891TIP3   OH2 2678   2.580   3.085   2.522 -0.1651  0.1340  0.3331
  891TIP3    H1 2679   2.558   3.003   2.566 -2.9244  0.9831  0.7109
  891TIP3    H2 2680   2.620   3.139   2.590  0.0926 -0.2852  0.5184
  892TIP3   OH2 2681   5.053   3.892   1.160 -0.5383 -0.4036  0.0604
  892TIP3    H1 2682   5.127   3.833   1.174 -2.7914 -3.1049  1.7059
  892TIP3    H2 2683   5.061   3.956   1.231 -0.9012 -2.0198  1.6438
  893TIP3   OH2 2684   3.376   4.533   1.910 -0.1690 -0.6687  0.3310
  893TIP3    H1 2685   3.425   4.518   1.829  0.4234 -0.4350  0.6334
  893TIP3    H2 2686   3.288   4.557   1.882  1.0660  3.8617 -0.4695
  894TIP3   OH2 2687   3.003   3.111   4.983 -0.4612  0.2462  0.2065
  894TIP3    H1 2688   2.916   3.149   4.991 -0.6130  0.0110 -0.2536
  894TIP3    H2 2689   3.028   3.088   5.072 -0.6455  0.8004  0.4047
  895TIP3   OH2 2690   2.129   5.658   2.175  0.3152 -0.3338 -0.2992
  895TIP3    H1 2691   2.075   5.600   2.121  0.1319  0.6569 -1.2041
  895TIP3    H2 2692   2.102   5.638   2.265 -0.0351 -1.3439 -0.6086
  896TIP3   OH2 2693   2.705   1.320   3.907  0.4964  0.4293  0.3831
  896TIP3    H1 2694   2.650   1.263   3.961 -0.2962  0.5799 -0.2374
  896TIP3    H2 2695   2.783   1.335   3.960 -0.1486  0.3711  1.3865
  897TIP3   OH2 2696   5.410   2.524   1.660 -0.0700  0.0227 -0.0089
  897TIP3    H1 2697   5.321   2.506   1.631 -0.9127  2.0357  1.0841
  897TIP3    H2 2698   5.403   2.606   1.710  2.3702  0.1758  0.2274
  898TIP3   OH2 2699   5.468   0.744   4.872  0.3805  0.2650 -0.2876
  898TIP3    H1 2700   5.393   0.701   4.913  1.0031  1.4117  2.2755
  898TIP3    H2 2701   5.456   0.729   4.778 -1.2513 -2.4272  0.2368
  899TIP3   OH2 2702   5.016   5.397   3.749  0.2822  0.4676  0.1549
  899TIP3    H1 2703   5.089   5.429   3.696  1.3249 -1.9103  0.0498
  899TIP3    H2 2704   4.979   5.325   3.699  0.4845 -1.0169  2.0232
  900TIP3   OH2 2705   3.776   1.949   1.020  0.3332 -0.1540  0.2367
  900TIP3    H1 2706   3.817   1.864   1.032  1.1118  0.1003 -0.5614
  900TIP3    H2 2707   3.736   1.945   0.933  0.0062  0.1439  0.3709
  901TIP3   OH2 2708   3.688   0.636   3.417 -1.2203  0.2235 -0.0361
  901TIP3    H1 2709   3.621   0.595   3.471 -0.0468  0.3022  1.5610
  901TIP3    H2 2710   3.688   0.728   3.444 -1.7423  0.6478 -1.3890
  902TIP3   OH2 2711   1.044   4.317   4.517 -0.6409  0.1606  0.2058
  902TIP3    H1 2712   1.034   4.383   4.448  1.9152 -0.0583 -0.4725
  902TIP3    H2 2713   1.038   4.233   4.470  0.1686 -0.0091  0.4081
  903TIP3   OH2 2714   2.830   4.652   3.093 -0.1456  0.1068 -0.1120
  903TIP3    H1 2715   2.868   4.736   3.066 -2.2338  0.3686 -2.6562
  903TIP3    H2 2716   2.780   4.673   3.172 -0.2131  1.1886 -0.4171
  904TIP3   OH2 2717   0.107   4.438   2.120 -0.3410  0.3747  0.5645
  904TIP3    H1 2718   0.124   4.420   2.213  3.0173  1.5688  0.3032
  904TIP3    H2 2719   0.146   4.363   2.074 -1.2731  0.1882  0.0612
  905TIP3   OH2 2720   1.841   2.710   2.688  0.0179  0.2376 -0.0147
  905TIP3    H1 2721   1.913   2.666   2.644  0.8333 -1.0117  2.3962
  905TIP3    H2 2722   1.786   2.639   2.723 -0.8965  1.1497  0.4820
  906TIP3   OH2 2723   3.516   0.311   3.077 -0.2350 -0.2296  0.9609
  906TIP3    H1 2724   3.529   0.236   3.019  0.3939 -0.1458  0.9941
  906TIP3    H2 2725   3.443   0.359   3.037 -1.4095 -1.4531  1.5582
  907TIP3   OH2 2726   4.034   0.519   1.100  0.2727 -0.1708 -0.6723
  907TIP3    H1 2727   3.943   0.518   1.130  0.4770 -0.8707 -0.0377
  907TIP3    H2 2728   4.052   0.428   1.075  1.1937 -0.3255  0.4819
  908TIP3   OH2 2729   2.762   5.567   3.761  0.2928  0.0720 -0.0158
  908TIP3    H1 2730   2.671   5.573   3.790  0.1404 -0.6270 -0.3464
  908TIP3    H2 2731   2.766   5.621   3.682  0.1564  0.0711 -0.0232
  909TIP3   OH2 2732   1.610   3.969   1.787 -0.3596 -0.0205 -0.3340
  909TIP3    H1 2733   1.612   3.885   1.833 -1.7831  0.1967  0.2062
  909TIP3    H2 2734   1.516   3.986   1.775 -0.0613  1.0971 -1.1681
  910TIP3   OH2 2735   1.388   2.442   1.277  0.5876 -0.3251  0.5136
  910TIP3    H1 2736   1.482   2.443   1.257  0.3827 -2.4883 -0.8839
  910TIP3    H2 2737   1.369   2.351   1.301 -0.8062  0.4998  2.8580
  911TIP3   OH2 2738   1.616   5.578   2.354  0.4226 -0.6351  0.0921
  911TIP3    H1 2739   1.595   5.489   2.381 -1.0982 -0.3248 -0.0032
  911TIP3    H2 2740   1.635   5.571   2.260  0.8257 -0.9348  0.1941
  912TIP3   OH2 2741   3.076   3.071   1.642  0.2905 -0.0498  0.1584
  912TIP3    H1 2742   3.125   3.108   1.716  0.0908 -1.2147  0.8936
  912TIP3    H2 2743   3.010   3.138   1.622 -1.0029 -0.5498  2.4005
  913TIP3   OH2 2744   3.974   0.789   0.702  0.3048 -0.1930  0.3819
  913TIP3    H1 2745   3.972   0.771   0.796  0.5443 -1.0491  0.2417
  913TIP3    H2 2746   4.058   0.833   0.688  1.5722 -2.4760  0.2194
  914TIP3   OH2 2747   1.432   4.997   4.887 -0.1414 -0.1636 -0.0528
  914TIP3    H1 2748   1.511   4.949   4.910 -0.0850  0.3154  0.7851
  914TIP3    H2 2749   1.445   5.021   4.795  0.3946 -0.6411 -0.1080
  915TIP3   OH2 2750   3.021   4.050   4.388  0.4137 -0.3256  0.6844
  915TIP3    H1 2751   2.930   4.033   4.413  0.0867 -0.5460 -0.6097
  915TIP3    H2 2752   3.036   4.141   4.414 -1.6386  1.3029 -3.0186
  916TIP3   OH2 2753   6.139   1.868   4.353  0.1717  0.1512  0.0725
  916TIP3    H1 2754   6.113   1.776   4.349  0.9429 -0.1883  1.7944
  916TIP3    H2 2755   6.058   1.916   4.367 -0.2568 -0.2300 -1.0325
  917TIP3   OH2 2756   3.839   1.434   5.137  0.5198 -0.2373  0.1304
  917TIP3    H1 2757   3.814   1.354   5.183 -0.3603 -0.3320 -0.4948
  917TIP3    H2 2758   3.758   1.484   5.130  0.5811 -0.3039 -1.4412
  918TIP3   OH2 2759   5.752   3.321   5.162  0.2802  0.4387 -0.0185
  918TIP3    H1 2760   5.834   3.352   5.123 -0.3819 -0.2894 -2.0930
  918TIP3    H2 2761   5.701   3.401   5.176 -0.6307  0.6300 -3.5238
  919TIP3   OH2 2762   2.045   4.270   0.416 -0.4036 -0.3582 -0.2139
  919TIP3    H1 2763   2.051   4.331   0.342  1.1978  0.3423  0.4397
  919TIP3    H2 2764   2.040   4.184   0.375 -0.8057  0.0803 -1.1404
  920TIP3   OH2 2765   4.321   5.249   0.160  0.4866  0.2547 -0.0092
  920TIP3    H1 2766   4.255   5.299   0.210 -0.0873  0.5385 -1.0186
  920TIP3    H2 2767   4.314   5.160   0.195 -0.3608  0.3057 -0.0068
  921TIP3   OH2 2768   1.405   0.201   2.864 -0.0554 -0.8945  0.4815
  921TIP3    H1 2769   1.440   0.169   2.781  0.3188 -0.2782  0.3941
  921TIP3    H2 2770   1.443   0.144   2.930  2.0905  0.4506  0.5096
  922TIP3   OH2 2771   0.944   5.199   0.669 -1.1233  0.0421 -0.2606
  922TIP3    H1 2772   0.960   5.208   0.763  0.1656  0.1927 -0.4827
  922TIP3    H2 2773   0.923   5.287   0.639 -0.7255  0.1438 -0.2481
  923TIP3   OH2 2774   5.861   2.071   1.814 -0.0116  0.3838  0.5378
  923TIP3    H1 2775   5.915   1.991   1.819  1.9470  1.6064  0.0275
  923TIP3    H2 2776   5.878   2.106   1.727 -0.3792  1.6720  0.9595
  924TIP3   OH2 2777   6.275   5.748   4.246  0.2603 -0.0228  0.2692
  924TIP3    H1 2778   6.182   5.738   4.265  0.3545  0.7273  1.1995
  924TIP3    H2 2779   6.279   5.762   4.151 -0.3201 -2.7670 -0.2349
  925TIP3   OH2 2780   6.219   3.981   1.416  0.1156 -0.3649 -0.3313
  925TIP3    H1 2781   6.186   4.003   1.503  1.4064 -0.7585  0.2812
  925TIP3    H2 2782   6.311   3.961   1.429  0.5598  0.4481 -1.9541
  926TIP3   OH2 2783   5.764   1.150   1.403  0.9756  0.1637 -0.3021
  926TIP3    H1 2784   5.773   1.202   1.323  2.9385 -0.2562 -0.4029
  926TIP3    H2 2785   5.709   1.076   1.377  0.4158  0.7628 -0.8698
  927TIP3   OH2 2786   5.239   4.991   1.625  0.0723  0.5645  0.5147
  927TIP3    H1 2787   5.280   5.063   1.578  0.2444 -0.6325 -1.2328
  927TIP3    H2 2788   5.146   5.015   1.630 -0.1583  0.2227 -1.4638
  928TIP3   OH2 2789   3.745   3.223   3.042 -0.1555 -0.5722  0.2035
  928TIP3    H1 2790   3.715   3.263   2.960  0.9961 -0.7500 -0.3231
  928TIP3    H2 2791   3.838   3.208   3.028 -0.1293 -1.4177  1.2302
  929TIP3   OH2 2792   0.207   4.876   2.511  0.2113  0.1128 -0.5433
  929TIP3    H1 2793   0.237   4.785   2.518 -0.5616 -0.2390 -1.6291
  929TIP3    H2 2794   0.238   4.905   2.425  0.2206  0.7975 -0.3119
  930TIP3   OH2 2795   5.674   1.747   0.484  0.6740  0.7589 -0.5997
  930TIP3    H1 2796   5.621   1.696   0.545  1.0085 -0.1650 -1.0628
  930TIP3    H2 2797   5.610   1.794   0.430  0.3243 -0.1139 -0.9571
  931TIP3   OH2 2798   0.933   1.817   1.802 -0.4935 -0.0583 -0.1177
  931TIP3    H1 2799   1.024   1.844   1.815  0.0682 -1.9079  0.0368
  931TIP3    H2 2800   0.881   1.887   1.843  0.8304  1.0747 -0.2994
  932TIP3   OH2 2801   6.275   3.566   4.948 -0.2316  0.1158 -0.1877
  932TIP3    H1 2802   6.289   3.659   4.928  0.8647  0.1216  0.5090
  932TIP3    H2 2803   6.203   3.566   5.011  1.3778  0.7469  1.7669
  933TIP3   OH2 2804   4.078   5.993   3.704 -0.1346  0.1323  0.1266
  933TIP3    H1 2805   4.073   5.997   3.799 -1.2029 -0.2293  0.0997
  933TIP3    H2 2806   4.155   5.940   3.686 -0.2068 -0.2070  0.7972
  934TIP3   OH2 2807   2.936   4.381   0.174  0.1140  0.0428 -0.2143
  934TIP3    H1 2808   3.001   4.394   0.243 -0.3121  0.6294  0.0750
  934TIP3    H2 2809   2.875   4.453   0.184 -1.3063 -1.1828  0.3066
  935TIP3   OH2 2810   0.237   4.390   0.806  0.0927  0.1932  0.5083
  935TIP3    H1 2811   0.157   4.350   0.840  0.4437  0.3257  1.5460
  935TIP3    H2 2812   0.210   4.477   0.777 -0.3064 -0.0885  0.0400
  936TIP3   OH2 2813   2.576   0.928   0.616  0.6301 -0.3846  0.3902
  936TIP3    H1 2814   2.481   0.918   0.624  0.4679 -0.1431 -0.9559
  936TIP3    H2 2815   2.588   1.018   0.584  1.1558 -1.0584 -1.4241
  937TIP3   OH2 2816   1.608   0.440   0.756  0.6542 -0.4196  0.2376
  937TIP3    H1 2817   1.629   0.347   0.771  0.1750 -0.6570 -0.5257
  937TIP3    H2 2818   1.522   0.439   0.716  0.9132  0.3251 -0.3548
  938TIP3   OH2 2819   2.106   3.243   2.827  0.2863  0.5505 -0.1720
  938TIP3    H1 2820   2.047   3.168   2.835 -0.7264  1.4970  2.9104
  938TIP3    H2 2821   2.060   3.304   2.769 -0.5449  0.1943  0.0947
  939TIP3   OH2 2822   2.646   2.509   1.816 -0.4485 -0.5307  0.0493
  939TIP3    H1 2823   2.732   2.472   1.800 -0.4488 -0.1474 -0.8814
  939TIP3    H2 2824   2.660   2.604   1.822 -0.9267 -0.3693 -1.1086
  940TIP3   OH2 2825   0.518   2.156   1.608 -0.0962  0.7607  0.4490
  940TIP3    H1 2826   0.447   2.205   1.568  0.7394 -0.2980 -2.6471
  940TIP3    H2 2827   0.596   2.209   1.592  0.2849  0.2328  0.4932
  941TIP3   OH2 2828   6.316   0.727   0.764  0.0436 -0.0399  0.4536
  941TIP3    H1 2829   6.247   0.760   0.822  0.1628 -0.7852  1.0230
  941TIP3    H2 2830   6.279   0.647   0.726 -0.2170  0.6733 -0.8758
  942TIP3   OH2 2831   2.897   2.106   1.930  0.1361 -0.4541 -0.1455
  942TIP3    H1 2832   2.987   2.090   1.900  0.3698 -0.5069  0.5652
  942TIP3    H2 2833   2.889   2.055   2.010 -1.0965 -1.8233 -1.0926
  943TIP3   OH2 2834   0.225   2.858   2.391 -0.0319 -0.0346 -1.0026
  943TIP3    H1 2835   0.302   2.845   2.336 -0.0235 -0.2408 -0.9455
  943TIP3    H2 2836   0.222   2.779   2.445  0.2875  0.4203 -0.3074
  944TIP3   OH2 2837   5.387   1.744   3.005 -0.1363  0.3768  0.0717
  944TIP3    H1 2838   5.388   1.650   3.025  0.2772  0.2133 -0.7077
  944TIP3    H2 2839   5.354   1.750   2.916  1.4218  0.8406 -0.5150
  945TIP3   OH2 2840   2.343   2.656   2.032 -0.3026 -0.5395  0.1130
  945TIP3    H1 2841   2.304   2.677   1.947 -0.7374  3.0758  1.0331
  945TIP3    H2 2842   2.291   2.583   2.065 -3.0814  0.8455 -0.8848
  946TIP3   OH2 2843   2.236   1.922   0.087 -0.3229 -0.6331  0.0485
  946TIP3    H1 2844   2.223   2.015   0.106  0.7992 -0.3878 -0.3350
  946TIP3    H2 2845   2.205   1.877   0.166 -0.4660  0.0851  0.4128
  947TIP3   OH2 2846   3.594   5.525   2.012  0.3203  0.0861  0.2716
  947TIP3    H1 2847   3.542   5.454   1.973 -0.7509  1.0766 -0.1753
  947TIP3    H2 2848   3.554   5.541   2.097  0.8347 -0.1343  0.5573
  948TIP3   OH2 2849   3.760   2.862   4.769  0.2546  0.3576  0.2548
  948TIP3    H1 2850   3.849   2.860   4.805  0.1012  2.8145  0.9623
  948TIP3    H2 2851   3.741   2.956   4.759 -1.9336 -0.1407 -0.7193
  949TIP3   OH2 2852   3.023   2.048   1.333  0.0291  0.2787 -0.8851
  949TIP3    H1 2853   3.007   2.126   1.386 -0.6433 -0.1287 -0.4644
  949TIP3    H2 2854   3.072   1.989   1.391  1.6728  0.8650 -1.6203
  950TIP3   OH2 2855   2.556   1.857   2.526 -0.0440  0.3598 -0.0574
  950TIP3    H1 2856   2.500   1.829   2.453 -1.0711 -0.6936  1.0765
  950TIP3    H2 2857   2.560   1.780   2.583  0.7610  1.1518  0.9775
  951TIP3   OH2 2858   5.330   3.315   4.757  0.2468 -0.1625  0.0985
  951TIP3    H1 2859   5.332   3.325   4.661 -0.5632  0.5871  0.1454
  951TIP3    H2 2860   5.393   3.246   4.775  0.3597 -0.3658 -0.9908
  952TIP3   OH2 2861   2.680   1.435   1.483 -0.1099  0.5514 -0.0137
  952TIP3    H1 2862   2.767   1.472   1.471 -0.2481  0.9590  0.2052
  952TIP3    H2 2863   2.641   1.434   1.396  0.2044  0.1300 -0.1525
  953TIP3   OH2 2864   5.576   5.297   5.144  0.2758 -0.0033 -0.3383
  953TIP3    H1 2865   5.622   5.371   5.183 -1.1716  0.2935  0.9517
  953TIP3    H2 2866   5.549   5.244   5.219 -0.8787 -0.4995 -1.0717
  954TIP3   OH2 2867   4.768   2.782   2.770 -0.3281 -0.7750 -0.2343
  954TIP3    H1 2868   4.710   2.797   2.845  0.5102  0.0567  0.2830
  954TIP3    H2 2869   4.713   2.796   2.693 -1.5183 -2.8190  0.1750
  955TIP3   OH2 2870   0.378   4.304   3.384 -0.1769  0.3375 -0.1520
  955TIP3    H1 2871   0.397   4.210   3.374  0.4747  0.1307  2.2747
  955TIP3    H2 2872   0.461   4.347   3.361  0.9709 -0.0461  2.8475
  956TIP3   OH2 2873   1.750   5.618   2.117 -0.2500 -0.1987  0.1889
  956TIP3    H1 2874   1.819   5.648   2.176 -1.4224 -1.3466  2.2615
  956TIP3    H2 2875   1.737   5.690   2.056  1.7734  0.6094  0.6544
  957TIP3   OH2 2876   3.215   5.631   0.627  0.2686  0.0291 -0.8303
  957TIP3    H1 2877   3.172   5.711   0.595 -0.6769 -0.1790 -0.1327
  957TIP3    H2 2878   3.253   5.656   0.710 -0.2697 -0.3075 -0.4763
  958TIP3   OH2 2879   5.975   5.556   2.284  0.0881 -0.1954 -0.3706
  958TIP3    H1 2880   5.977   5.518   2.372  0.3139 -0.1822 -0.3706
  958TIP3    H2 2881   5.929   5.639   2.295  0.4180 -0.0347 -0.2036
  959TIP3   OH2 2882   4.964   2.384   4.530 -0.5670  0.0240  0.6074
  959TIP3    H1 2883   4.883   2.343   4.498  0.2057 -0.6856 -0.5157
  959TIP3    H2 2884   4.958   2.379   4.625 -2.8315  1.9243  0.6750
  960TIP3   OH2 2885   3.984   2.258   1.511  0.1900 -0.3420  0.1425
  960TIP3    H1 2886   4.018   2.293   1.594 -1.8543 -0.5360  1.1272
  960TIP3    H2 2887   4.048   2.193   1.484  1.0447 -0.0664  1.4257
  961TIP3   OH2 2888   5.005   0.793   0.279  0.1079  0.8001 -0.2651
  961TIP3    H1 2889   4.941   0.846   0.233 -0.7776  0.2005  0.2356
  961TIP3    H2 2890   5.084   0.846   0.281 -0.7129  2.0431  0.1100
  962TIP3   OH2 2891   0.253   1.233   1.970  0.3112 -0.1797  0.4370
  962TIP3    H1 2892   0.208   1.315   1.992  0.0081 -0.5491  1.2310
  962TIP3    H2 2893   0.344   1.259   1.958  0.5324  0.0600  2.2709
  963TIP3   OH2 2894   3.654   4.321   3.807  0.4225  0.3652  0.0434
  963TIP3    H1 2895   3.585   4.256   3.795 -0.0855  0.7291  0.8588
  963TIP3    H2 2896   3.663   4.363   3.722 -0.5517  0.4891 -0.0098
  964TIP3   OH2 2897   5.462   3.396   0.389 -0.4347 -0.1023 -0.2312
  964TIP3    H1 2898   5.510   3.327   0.433 -1.8974  0.1684  1.9648
  964TIP3    H2 2899   5.510   3.476   0.409  0.2817 -0.2480 -1.2919
  965TIP3   OH2 2900   5.951   4.072   0.813  0.0279  0.0485 -0.0337
  965TIP3    H1 2901   6.002   4.057   0.734  0.6144  0.6577  0.2154
  965TIP3    H2 2902   6.016   4.086   0.881 -0.4691  0.5920  0.3404
  966TIP3   OH2 2903   1.464   2.575   1.968 -0.0458  0.0192 -0.0955
  966TIP3    H1 2904   1.502   2.620   2.044  0.9366 -0.9468  0.0074
  966TIP3    H2 2905   1.520   2.601   1.895 -0.8497  0.7596 -0.4724
  967TIP3   OH2 2906   0.144   4.616   0.677  0.2093 -0.7119  0.2059
  967TIP3    H1 2907   0.067   4.593   0.626  0.1020 -1.0722  0.5210
  967TIP3    H2 2908   0.115   4.686   0.735 -0.1034 -1.3763  0.8716
  968TIP3   OH2 2909   1.334   3.830   0.486 -0.2380 -0.6196 -0.0179
  968TIP3    H1 2910   1.362   3.802   0.573 -1.4338 -0.6890  0.3671
  968TIP3    H2 2911   1.414   3.860   0.444  0.1659  0.7390  1.5953
  969TIP3   OH2 2912   5.548   5.793   1.666 -0.1039 -0.0130  0.5693
  969TIP3    H1 2913   5.480   5.798   1.734 -0.0084 -0.0719  0.6699
  969TIP3    H2 2914   5.549   5.880   1.627 -0.3908 -0.0754  0.4174
  970TIP3   OH2 2915   2.402   5.013   1.359  0.1149  0.2660  0.1778
  970TIP3    H1 2916   2.380   4.925   1.328  2.9055 -0.4035 -0.1118
  970TIP3    H2 2917   2.434   5.059   1.282  1.0001  0.7091  0.7879
  971TIP3   OH2 2918   4.619   1.213   2.552 -0.8961 -0.3294  0.3359
  971TIP3    H1 2919   4.693   1.258   2.512 -1.6906  0.2484 -0.5221
  971TIP3    H2 2920   4.574   1.171   2.480 -0.6304 -1.8843  1.0273
  972TIP3   OH2 2921   5.826   1.027   0.203 -0.0127  0.1479  0.2360
  972TIP3    H1 2922   5.773   1.026   0.283 -0.2044 -0.6703  0.1071
  972TIP3    H2 2923   5.916   1.022   0.235  0.0148  1.5809  0.4575
  973TIP3   OH2 2924   2.689   3.228   1.003 -0.0695  0.2453 -0.5331
  973TIP3    H1 2925   2.598   3.222   0.976  0.6313 -1.2140 -2.8286
  973TIP3    H2 2926   2.715   3.138   1.023  0.4807  0.8321  1.6982
  974TIP3   OH2 2927   0.091   0.136   1.199  0.3427  0.1520 -0.4284
  974TIP3    H1 2928   0.093   0.220   1.246 -0.7047  0.6256 -1.1693
  974TIP3    H2 2929   0.063   0.072   1.264 -0.8629  0.7560 -0.3298
  975TIP3   OH2 2930   2.180   3.571   4.697 -0.0486  0.6765  0.0688
  975TIP3    H1 2931   2.239   3.496   4.711  0.3091  1.0650  0.6997
  975TIP3    H2 2932   2.238   3.647   4.695 -0.3765  0.9124 -0.9287
  976TIP3   OH2 2933   6.164   3.609   4.209  0.0945 -0.2276 -0.1780
  976TIP3    H1 2934   6.182   3.552   4.284  1.0925  0.2709 -0.0268
  976TIP3    H2 2935   6.201   3.562   4.134  1.3337  0.4075  0.0121
  977TIP3   OH2 2936   5.676   2.282   3.732 -0.4699 -0.6227  0.0807
  977TIP3    H1 2937   5.686   2.330   3.650  0.3191  0.0058  0.5360
  977TIP3    H2 2938   5.634   2.199   3.707 -0.6595 -0.2425 -0.8825
  978TIP3   OH2 2939   0.681   5.500   3.730  0.2538 -0.4927  0.2804
  978TIP3    H1 2940   0.677   5.422   3.674  1.7694  0.3809 -1.1174
  978TIP3    H2 2941   0.596   5.501   3.775 -0.1980 -2.3827 -0.4219
  979TIP3   OH2 2942   5.712   0.869   3.583 -0.4102  0.0255 -0.7135
  979TIP3    H1 2943   5.748   0.781   3.597  0.9882  0.5155 -1.1428
  979TIP3    H2 2944   5.617   0.857   3.595 -0.0222 -0.8711  2.5936
  980TIP3   OH2 2945   5.598   2.128   1.911  0.1687  0.0696  0.3970
  980TIP3    H1 2946   5.686   2.117   1.875  0.5571  1.1317  0.9882
  980TIP3    H2 2947   5.551   2.181   1.846 -0.2854 -1.1142 -0.2722
  981TIP3   OH2 2948   4.899   2.390   3.052  0.7342 -0.0892 -0.1534
  981TIP3    H1 2949   4.861   2.430   2.974  1.6995 -0.7664 -0.9866
  981TIP3    H2 2950   4.856   2.436   3.125  0.4431  1.1408 -1.0616
  982TIP3   OH2 2951   4.676   1.450   4.246  0.2513  0.0882  0.1048
  982TIP3    H1 2952   4.628   1.418   4.169  1.2595  0.3602 -0.6531
  982TIP3    H2 2953   4.755   1.490   4.210  0.8328  0.0470  1.3044
  983TIP3   OH2 2954   6.136   4.776   2.601  0.0577 -0.5799  0.0826
  983TIP3    H1 2955   6.101   4.858   2.567 -1.0891 -0.6954  0.9141
  983TIP3    H2 2956   6.061   4.733   2.641  0.5808 -2.1590 -0.5506
  984TIP3   OH2 2957   6.312   2.334   2.055  0.0315  0.9729  0.4470
  984TIP3    H1 2958   6.381   2.395   2.030 -0.2767  1.8184  1.5954
  984TIP3    H2 2959   6.267   2.376   2.128 -0.1442 -0.6653  1.3308
  985TIP3   OH2 2960   5.428   1.491   2.095  0.1107  0.2387 -0.5209
  985TIP3    H1 2961   5.510   1.533   2.121  1.5808 -1.3219 -2.3870
  985TIP3    H2 2962   5.436   1.401   2.128 -0.8128  0.0413 -0.8029
  986TIP3   OH2 2963   0.055   1.833   0.083 -0.1889  0.0191 -0.3879
  986TIP3    H1 2964   0.052   1.743   0.114 -0.0767  0.3892  0.7421
  986TIP3    H2 2965   0.148   1.855   0.082 -0.2705  0.4349  0.3182
  987TIP3   OH2 2966   1.401   5.468   2.611  0.3951 -0.1415 -0.1984
  987TIP3    H1 2967   1.348   5.518   2.548  0.1989  0.3852  0.3779
  987TIP3    H2 2968   1.358   5.383   2.615 -1.2813  0.7081  1.2936
  988TIP3   OH2 2969   0.491   5.823   3.898 -0.0416  0.2322 -0.2923
  988TIP3    H1 2970   0.534   5.775   3.968 -1.6069 -2.3873 -0.9806
  988TIP3    H2 2971   0.397   5.808   3.913 -0.5812  2.5242 -0.9910
  989TIP3   OH2 2972   0.657   2.505   0.051  0.5114  0.5175 -0.0269
  989TIP3    H1 2973   0.588   2.570   0.066  0.2147 -0.4090  3.2941
  989TIP3    H2 2974   0.739   2.553   0.062  0.3487  0.8655 -0.3250
  990TIP3   OH2 2975   3.229   3.246   1.778 -0.2399  0.0601  0.5055
  990TIP3    H1 2976   3.279   3.184   1.831  2.5726 -1.9716 -3.9686
  990TIP3    H2 2977   3.288   3.320   1.766  0.7802 -1.0967 -2.4640
  991TIP3   OH2 2978   2.474   0.990   1.997  0.2471 -0.2050  0.2408
  991TIP3    H1 2979   2.424   0.926   1.947  1.5960 -1.5126  0.5161
  991TIP3    H2 2980   2.527   1.036   1.932  1.4893 -1.4359  0.3447
  992TIP3   OH2 2981   0.218   4.936   0.168  0.1561  0.5228  0.0101
  992TIP3    H1 2982   0.153   4.868   0.184  1.3591 -1.2223 -2.0687
  992TIP3    H2 2983   0.258   4.951   0.254 -1.4358  0.0328  0.8782
  993TIP3   OH2 2984   5.284   5.378   2.073 -0.0684 -0.3482  0.0551
  993TIP3    H1 2985   5.219   5.325   2.027 -0.1928  0.8816 -1.2610
  993TIP3    H2 2986   5.234   5.428   2.138 -0.2916 -0.2143 -0.2153
  994TIP3   OH2 2987   1.674   3.434   4.277 -0.7684 -0.4915  0.1819
  994TIP3    H1 2988   1.622   3.441   4.198 -1.1390 -1.1030  0.3677
  994TIP3    H2 2989   1.648   3.351   4.317 -1.0100  0.0753  1.2426
  995TIP3   OH2 2990   2.619   5.144   1.976  0.2561  0.0088  0.5928
  995TIP3    H1 2991   2.534   5.188   1.983 -0.7916 -1.9691  0.8621
  995TIP3    H2 2992   2.656   5.149   2.065  0.0048  0.0732  0.6934
  996TIP3   OH2 2993   1.786   2.045   2.449  0.8981  0.3989  0.4244
  996TIP3    H1 2994   1.807   2.134   2.420  0.7745  0.3661  0.2294
  996TIP3    H2 2995   1.704   2.024   2.403  1.5513 -0.2633 -0.4700
  997TIP3   OH2 2996   3.791   4.000   2.601 -0.1091 -0.3246  0.5921
  997TIP3    H1 2997   3.842   3.919   2.599  0.5113  0.0510  0.8261
  997TIP3    H2 2998   3.746   4.002   2.517 -0.7035 -1.2656  0.8744
  998TIP3   OH2 2999   1.351   2.715   2.277  0.4026 -0.1277  0.1293
  998TIP3    H1 3000   1.446   2.716   2.286  0.5661  1.4301 -1.1830
  998TIP3    H2 3001   1.333   2.779   2.208 -1.5450 -1.0431 -0.2855
  999TIP3   OH2 3002   1.794   4.954   4.138 -0.5044 -0.1711  0.0475
  999TIP3    H1 3003   1.739   4.918   4.068 -1.2192  2.0259 -0.5887
  999TIP3    H2 3004   1.737   4.951   4.215 -1.6296  2.0798 -0.6059
 1000TIP3   OH2 3005   2.041   4.809   3.402 -0.1198  0.9360 -0.6412
 1000TIP3    H1 3006   2.026   4.715   3.415  0.2512  0.7403 -1.5122
 1000TIP3    H2 3007   2.038   4.846   3.490  0.2835  0.0151 -0.2158
 1001TIP3   OH2 3008   5.047   1.148   0.945 -0.2069 -0.5524  0.0101
 1001TIP3    H1 3009   5.091   1.114   0.867  0.6867 -0.6043  0.5317
 1001TIP3    H2 3010   5.107   1.214   0.980 -1.2286  0.5053 -0.1302
 1002TIP3   OH2 3011   0.906   0.333   3.775 -0.2703 -0.5804 -0.2694
 1002TIP3    H1 3012   0.971   0.357   3.708 -1.6509  1.1459 -1.0666
 1002TIP3    H2 3013   0.925   0.242   3.794  0.2095 -1.1648 -3.0351
 1003TIP3   OH2 3014   2.260   0.148   2.494  0.0268  0.5969  0.0924
 1003TIP3    H1 3015   2.227   0.144   2.584 -0.1525  0.9102  0.0413
 1003TIP3    H2 3016   2.226   0.068   2.453 -0.9535  1.0749 -0.0539
 1004TIP3   OH2 3017   6.261   5.162   3.519  0.0584  0.2017 -0.3259
 1004TIP3    H1 3018   6.334   5.101   3.515  0.5732  0.8520 -1.1523
 1004TIP3    H2 3019   6.186   5.108   3.545  0.5651 -0.7145 -0.7207
 1005TIP3   OH2 3020   1.218   2.589   4.947 -0.1643  0.2577  0.3395
 1005TIP3    H1 3021   1.309   2.617   4.955  0.1908 -1.1123  1.5780
 1005TIP3    H2 3022   1.209   2.562   4.855  0.1235  2.0859 -0.2739
 1006TIP3   OH2 3023   3.766   1.826   5.107 -0.6615 -0.2682 -0.0794
 1006TIP3    H1 3024   3.745   1.885   5.180 -0.0433 -0.4262  0.2345
 1006TIP3    H2 3025   3.800   1.884   5.039  1.7476 -0.4133  0.9144
 1007TIP3   OH2 3026   4.986   5.031   4.836  0.0053 -0.0809  0.4012
 1007TIP3    H1 3027   4.952   4.947   4.867  0.7206 -1.4309 -2.2058
 1007TIP3    H2 3028   5.032   5.010   4.755 -1.6583  3.1186 -1.5945
 1008TIP3   OH2 3029   2.457   1.777   2.231  0.0218 -0.8515  0.2645
 1008TIP3    H1 3030   2.446   1.809   2.142  0.0019  0.7408  0.8034
 1008TIP3    H2 3031   2.370   1.784   2.270  0.3602  0.1535  0.9030
 1009TIP3   OH2 3032   1.691   5.134   2.155 -0.7532 -0.1379  0.2443
 1009TIP3    H1 3033   1.780   5.141   2.188 -1.4354  0.9530  1.9848
 1009TIP3    H2 3034   1.693   5.179   2.071  0.4967 -0.8130 -0.1074
 1010TIP3   OH2 3035   5.910   2.463   0.332  0.7197  0.1722  0.2544
 1010TIP3    H1 3036   5.869   2.383   0.366  0.9466 -0.9787 -2.0087
 1010TIP3    H2 3037   5.839   2.528   0.331  0.2262 -0.3364  0.9571
 1011TIP3   OH2 3038   2.024   5.063   0.876 -0.1253  0.8608  0.5248
 1011TIP3    H1 3039   2.061   5.075   0.789  0.4884  1.3535  0.8381
 1011TIP3    H2 3040   2.100   5.061   0.934 -0.5128  0.3273  1.0308
 1012TIP3   OH2 3041   0.184   2.310   1.268 -0.1201  0.3939  0.0506
 1012TIP3    H1 3042   0.255   2.364   1.303 -1.2008  1.2430  1.0490
 1012TIP3    H2 3043   0.191   2.227   1.316  1.8039 -0.5847 -1.7857
 1013TIP3   OH2 3044   2.452   2.595   2.726  0.0892 -0.1346 -0.1029
 1013TIP3    H1 3045   2.414   2.605   2.813  1.9601  0.4088  0.7118
 1013TIP3    H2 3046   2.380   2.563   2.672 -0.5188 -3.2338  2.2240
 1014TIP3   OH2 3047   3.984   1.119   4.442 -0.0170  0.2392 -0.3518
 1014TIP3    H1 3048   3.903   1.131   4.491  0.2096  2.2882 -0.3856
 1014TIP3    H2 3049   3.957   1.077   4.360 -0.9641  0.4343 -0.1488
 1015TIP3   OH2 3050   5.996   1.630   0.256 -0.4110 -0.5638 -0.3891
 1015TIP3    H1 3051   6.035   1.546   0.280 -0.0338 -0.3009 -0.0842
 1015TIP3    H2 3052   6.061   1.695   0.280 -0.4851 -0.2140 -1.1012
 1016TIP3   OH2 3053   1.840   4.997   5.103  0.3862  0.6300 -0.1197
 1016TIP3    H1 3054   1.935   4.986   5.096  0.4597  0.3316  1.1159
 1016TIP3    H2 3055   1.825   5.090   5.087  0.8091  0.5590 -0.9746
 1017TIP3   OH2 3056   3.341   5.144   0.676  0.6969  0.1409 -0.6456
 1017TIP3    H1 3057   3.393   5.176   0.603  0.8174 -1.1845 -1.1740
 1017TIP3    H2 3058   3.301   5.063   0.643 -0.5409  0.3618  0.2214
 1018TIP3   OH2 3059   3.668   0.964   0.853 -0.5018 -0.1801 -0.0525
 1018TIP3    H1 3060   3.577   0.987   0.866 -0.4296 -0.2818  0.6381
 1018TIP3    H2 3061   3.688   0.902   0.923 -0.1197 -0.7596 -0.6617
 1019TIP3   OH2 3062   0.375   4.644   1.723  0.1104  0.1626  0.0578
 1019TIP3    H1 3063   0.328   4.562   1.705  0.5623  0.1187 -0.9761
 1019TIP3    H2 3064   0.467   4.620   1.716  0.3107  0.2886  1.9149
 1020TIP3   OH2 3065   3.940   0.076   3.532  0.6710  0.1401  0.0984
 1020TIP3    H1 3066   3.921   0.147   3.471 -1.5513 -2.2341 -2.2734
 1020TIP3    H2 3067   3.863   0.071   3.589 -0.5836 -1.9413 -1.5987
 1021TIP3   OH2 3068   6.272   3.201   3.511  0.4595 -0.1211  0.2474
 1021TIP3    H1 3069   6.251   3.122   3.461 -0.1714  0.0607  0.2187
 1021TIP3    H2 3070   6.362   3.221   3.487  0.5419 -0.6923  0.0637
 1022TIP3   OH2 3071   1.635   1.613   1.236 -0.3457  0.0069  0.0432
 1022TIP3    H1 3072   1.630   1.685   1.299 -2.0023 -0.3794  0.4119
 1022TIP3    H2 3073   1.647   1.656   1.152 -0.3269  0.6608  0.3723
 1023TIP3   OH2 3074   5.876   1.269   2.336 -0.2942 -0.1106  0.1000
 1023TIP3    H1 3075   5.865   1.338   2.401  0.7240  0.3197 -0.1591
 1023TIP3    H2 3076   5.842   1.307   2.255 -2.2155 -0.8976  0.4916
 1024TIP3   OH2 3077   3.674   3.084   1.138  0.0094  0.2880 -0.3604
 1024TIP3    H1 3078   3.663   3.044   1.052 -1.0815 -0.9963  0.3457
 1024TIP3    H2 3079   3.595   3.137   1.150 -0.9855 -1.3460  0.7485
 1025TIP3   OH2 3080   3.784   2.772   4.315 -0.4066  0.2818  0.5623
 1025TIP3    H1 3081   3.839   2.693   4.312 -0.6130  0.1046  1.2896
 1025TIP3    H2 3082   3.745   2.770   4.402 -1.3841  0.5326  0.1369
 1026TIP3   OH2 3083   3.702   4.802   0.642 -0.0223  0.0742 -0.2677
 1026TIP3    H1 3084   3.619   4.850   0.643 -0.3114 -0.3598  2.4686
 1026TIP3    H2 3085   3.741   4.825   0.557 -3.0691 -0.0203 -1.8549
 1027TIP3   OH2 3086   1.257   3.544   0.715  0.6948 -0.1299  0.1001
 1027TIP3    H1 3087   1.255   3.458   0.758 -1.4045  0.0511  0.4634
 1027TIP3    H2 3088   1.230   3.525   0.625 -1.0636  0.2833  0.5136
 1028TIP3   OH2 3089   4.947   3.018   0.002  0.3130 -0.5434  0.2791
 1028TIP3    H1 3090   4.996   2.938   0.020  1.2298 -0.2659 -0.8214
 1028TIP3    H2 3091   4.996   3.088   0.045 -0.8662 -0.6082  1.8412
 1029TIP3   OH2 3092   3.634   0.743   1.067 -0.2627  0.5950  0.2363
 1029TIP3    H1 3093   3.573   0.677   1.099 -0.7189  0.5204 -0.7236
 1029TIP3    H2 3094   3.699   0.752   1.136 -0.5815 -0.3528  0.6772
 1030TIP3   OH2 3095   2.849   5.629   1.848 -0.0537  0.5940 -0.3596
 1030TIP3    H1 3096   2.862   5.537   1.824 -2.3389  0.9562 -3.6768
 1030TIP3    H2 3097   2.801   5.626   1.930  2.8969 -0.9808  1.4691
 1031TIP3   OH2 3098   6.026   2.069   3.893 -0.0306 -0.4825  0.4991
 1031TIP3    H1 3099   5.944   2.053   3.847 -0.3879  1.0936  0.5346
 1031TIP3    H2 3100   6.002   2.069   3.985 -0.0417  0.2081  0.4990
 1032TIP3   OH2 3101   0.980   5.230   2.789 -0.0578  0.2346  0.1193
 1032TIP3    H1 3102   1.031   5.286   2.847 -1.4195  0.1153  1.5052
 1032TIP3    H2 3103   0.992   5.142   2.825 -1.3971  0.2384  0.6467
 1033TIP3   OH2 3104   0.556   0.288   4.811  0.5709  0.1420 -0.6960
 1033TIP3    H1 3105   0.505   0.283   4.892 -0.8129 -1.0351 -1.5931
 1033TIP3    H2 3106   0.592   0.376   4.811  1.1483 -0.0344  1.5061
 1034TIP3   OH2 3107   5.985   0.475   1.199  0.6168 -0.6792  0.4554
 1034TIP3    H1 3108   5.984   0.502   1.291  1.6350  0.2807  0.2047
 1034TIP3    H2 3109   5.917   0.408   1.193 -0.4144  0.2041  1.6191
 1035TIP3   OH2 3110   6.030   1.486   4.920 -0.5406 -0.0231 -0.8947
 1035TIP3    H1 3111   5.970   1.412   4.920 -0.9225  0.2376  0.9232
 1035TIP3    H2 3112   5.972   1.563   4.918 -0.4617  0.2650  2.2676
 1036TIP3   OH2 3113   5.643   3.249   4.317 -0.4921 -0.3404  0.1242
 1036TIP3    H1 3114   5.669   3.320   4.258 -1.1200  0.8342  1.1980
 1036TIP3    H2 3115   5.675   3.170   4.275  0.8285  0.6307 -0.7905
 1037TIP3   OH2 3116   3.694   4.324   4.532 -0.2559 -0.3671  0.1203
 1037TIP3    H1 3117   3.727   4.312   4.443 -1.6272  0.3449 -0.5287
 1037TIP3    H2 3118   3.601   4.301   4.525 -0.5262  0.3567  1.2161
 1038TIP3   OH2 3119   0.285   1.572   4.984 -0.2574 -0.5637  0.1063
 1038TIP3    H1 3120   0.277   1.570   4.889  0.2197 -1.7389  0.0718
 1038TIP3    H2 3121   0.197   1.594   5.016 -1.0955 -2.7914 -0.5401
 1039TIP3   OH2 3122   2.803   4.262   4.746  0.1028  0.6803 -0.6064
 1039TIP3    H1 3123   2.760   4.186   4.785 -1.9052  1.5453 -0.9774
 1039TIP3    H2 3124   2.850   4.303   4.819  0.1958 -0.2227 -0.1377
 1040TIP3   OH2 3125   4.948   0.257   4.216  0.5925  0.0995 -0.3307
 1040TIP3    H1 3126   4.951   0.338   4.266  1.5318  0.7040 -1.3159
 1040TIP3    H2 3127   5.037   0.248   4.181  0.2591 -0.9020 -0.9370
 1041TIP3   OH2 3128   0.856   3.062   0.771  0.0383 -0.5070 -0.1529
 1041TIP3    H1 3129   0.878   2.978   0.730  0.6876 -0.0574 -0.7387
 1041TIP3    H2 3130   0.768   3.081   0.738  1.1972  0.6836 -2.8026
 1042TIP3   OH2 3131   3.762   1.454   0.910 -0.4660  0.1289  0.2996
 1042TIP3    H1 3132   3.725   1.434   0.996 -0.7837 -2.0907 -0.2889
 1042TIP3    H2 3133   3.825   1.384   0.894 -1.8609 -0.7018 -2.0927
 1043TIP3   OH2 3134   0.861   4.713   4.886  0.4779 -0.2305  0.1266
 1043TIP3    H1 3135   0.919   4.733   4.959 -1.0761  3.3346  0.5841
 1043TIP3    H2 3136   0.779   4.684   4.927 -0.6260  2.4090  0.0122
 1044TIP3   OH2 3137   6.019   3.826   2.215 -0.0560 -0.1570  0.1648
 1044TIP3    H1 3138   6.036   3.808   2.123  2.3503  0.3568  0.4451
 1044TIP3    H2 3139   6.012   3.740   2.256  2.1149 -0.4669 -0.0101
 1045TIP3   OH2 3140   1.414   4.617   1.015 -0.1768 -0.0370  0.3769
 1045TIP3    H1 3141   1.395   4.698   1.064 -0.9046  1.0413 -1.5809
 1045TIP3    H2 3142   1.473   4.568   1.072  1.1012  2.3268  1.2228
 1046TIP3   OH2 3143   3.864   3.270   1.670 -0.1688 -0.0494 -0.0286
 1046TIP3    H1 3144   3.775   3.291   1.641  0.2925  1.2189 -0.6189
 1046TIP3    H2 3145   3.901   3.354   1.695  1.0328 -0.4927 -0.2700
 1047TIP3   OH2 3146   5.808   2.030   1.187  0.1912  0.4153 -0.4234
 1047TIP3    H1 3147   5.895   2.068   1.205  0.6623 -0.4387 -0.8442
 1047TIP3    H2 3148   5.749   2.105   1.188  0.8426  0.9420  0.4623
 1048TIP3   OH2 3149   0.828   2.624   1.369 -0.2691 -0.1597  0.1972
 1048TIP3    H1 3150   0.779   2.700   1.336  1.1728  0.7035 -0.0655
 1048TIP3    H2 3151   0.792   2.609   1.456 -1.0234  0.4173 -0.0014
 1049TIP3   OH2 3152   3.428   3.145   1.929 -0.1342  0.0479  0.0592
 1049TIP3    H1 3153   3.406   3.177   2.016  1.6569  0.2272  0.4902
 1049TIP3    H2 3154   3.487   3.071   1.944  1.2152  0.8506 -0.9581
 1050TIP3   OH2 3155   4.455   4.640   4.938  0.1104  0.4729  0.3323
 1050TIP3    H1 3156   4.436   4.600   5.023  0.9739  1.0999  0.8302
 1050TIP3    H2 3157   4.485   4.729   4.959  1.7563  0.1563 -0.5151
 1051TIP3   OH2 3158   3.072   2.948   3.653 -0.4002  0.3091 -0.3937
 1051TIP3    H1 3159   3.123   2.890   3.709 -0.5782 -1.2542 -1.7802
 1051TIP3    H2 3160   3.133   3.019   3.632  0.9413 -1.0002 -1.1988
 1052TIP3   OH2 3161   0.737   4.440   3.597 -0.3119 -0.3029 -0.6156
 1052TIP3    H1 3162   0.715   4.442   3.504 -1.2619 -0.4359 -0.4061
 1052TIP3    H2 3163   0.654   4.420   3.641 -0.0307  0.4577  0.3049
 1053TIP3   OH2 3164   2.889   1.011   0.564  0.1895  0.3665  0.4258
 1053TIP3    H1 3165   2.967   0.956   0.557  0.7178  1.2264 -0.6982
 1053TIP3    H2 3166   2.848   1.007   0.478 -0.8019  0.2600  0.8821
 1054TIP3   OH2 3167   5.001   0.062   2.020 -0.4256  0.2326  0.3567
 1054TIP3    H1 3168   5.069   0.126   2.040 -0.1161 -0.7177  2.6557
 1054TIP3    H2 3169   5.014   0.041   1.928  2.8454 -0.3717  0.8260
 1055TIP3   OH2 3170   2.136   3.970   5.141  0.0759 -0.0594  0.0122
 1055TIP3    H1 3171   2.160   3.980   5.233  0.1317 -1.3857  0.1529
 1055TIP3    H2 3172   2.189   4.036   5.095  0.7625 -0.0428  0.8122
 1056TIP3   OH2 3173   3.661   4.393   0.838  0.0653 -0.2660 -0.1335
 1056TIP3    H1 3174   3.682   4.414   0.747  2.5579 -2.3373 -0.1640
 1056TIP3    H2 3175   3.566   4.386   0.840 -0.3047  2.5688 -1.8723
 1057TIP3   OH2 3176   4.308   4.892   3.736 -0.1737 -0.1129 -0.7407
 1057TIP3    H1 3177   4.338   4.963   3.679  2.2725  0.0762  0.6302
 1057TIP3    H2 3178   4.236   4.931   3.785  0.4926  1.1505 -0.7019
 1058TIP3   OH2 3179   3.873   5.187   1.356 -0.2009 -0.2826 -0.0647
 1058TIP3    H1 3180   3.959   5.228   1.350 -0.5121  0.3137 -0.7592
 1058TIP3    H2 3181   3.884   5.114   1.416  0.5317  0.4358  0.6944
 1059TIP3   OH2 3182   5.698   4.019   3.603  0.1051  0.2881  0.1492
 1059TIP3    H1 3183   5.787   4.045   3.628 -0.1067  1.3584 -0.1322
 1059TIP3    H2 3184   5.651   4.102   3.593 -1.1910 -0.2815  1.1875
 1060TIP3   OH2 3185   2.004   1.691   1.122  0.2814  0.1825  0.0852
 1060TIP3    H1 3186   1.999   1.758   1.054  0.0885 -0.0598 -0.1443
 1060TIP3    H2 3187   1.977   1.735   1.202  0.5981  0.4949  0.0216
 1061TIP3   OH2 3188   1.230   0.938   3.728  0.6125  0.6721 -0.4960
 1061TIP3    H1 3189   1.161   0.879   3.697  1.8163 -0.6620 -0.7576
 1061TIP3    H2 3190   1.183   1.010   3.770 -0.9250 -0.8398  0.5316
 1062TIP3   OH2 3191   0.260   3.159   5.153  0.0315  0.5059 -0.2057
 1062TIP3    H1 3192   0.298   3.159   5.065 -0.4900 -0.1681 -0.4430
 1062TIP3    H2 3193   0.186   3.098   5.147 -0.6735  1.2849  0.4235
 1063TIP3   OH2 3194   3.431   0.689   4.717 -0.1043  0.2942 -0.4388
 1063TIP3    H1 3195   3.387   0.773   4.711  0.1001  0.5348  1.0598
 1063TIP3    H2 3196   3.523   0.710   4.729 -0.1994 -0.0724  1.2356
 1064TIP3   OH2 3197   3.764   6.016   1.997  0.2580  0.2601 -0.5655
 1064TIP3    H1 3198   3.799   5.981   2.078 -0.5448  1.5541  0.3829
 1064TIP3    H2 3199   3.705   5.948   1.964 -1.7245  0.8048  1.5273
 1065TIP3   OH2 3200   0.685   0.953   3.403  0.3661 -0.7637  0.3512
 1065TIP3    H1 3201   0.734   0.978   3.325 -2.7175  1.3385 -1.0931
 1065TIP3    H2 3202   0.693   1.029   3.461  0.0579 -1.0164  0.7264
 1066TIP3   OH2 3203   3.917   2.502   3.639  0.3164 -0.2612 -0.6965
 1066TIP3    H1 3204   3.827   2.492   3.609  0.2740  1.3121 -1.1778
 1066TIP3    H2 3205   3.967   2.441   3.584 -0.3066 -0.3516 -1.1761
 1067TIP3   OH2 3206   3.428   5.346   3.568 -0.0077  0.2032 -0.6936
 1067TIP3    H1 3207   3.444   5.431   3.607  0.9698 -0.3107  0.0687
 1067TIP3    H2 3208   3.334   5.331   3.579 -0.1734  1.1475 -0.7889
 1068TIP3   OH2 3209   0.638   4.294   4.250  0.3546 -0.0747 -0.3802
 1068TIP3    H1 3210   0.669   4.265   4.164  1.9744  2.3304 -0.7163
 1068TIP3    H2 3211   0.693   4.369   4.271 -1.7994  1.0970  1.5440
 1069TIP3   OH2 3212   2.237   1.870   3.863 -0.0119 -0.1812 -0.4170
 1069TIP3    H1 3213   2.208   1.813   3.934 -0.2358  1.7953  1.1988
 1069TIP3    H2 3214   2.314   1.915   3.899 -1.6690  2.8364 -0.2832
 1070TIP3   OH2 3215   5.645   3.527   3.001  0.2217  0.1853  0.2880
 1070TIP3    H1 3216   5.631   3.580   2.923 -1.4770 -0.0109  0.4383
 1070TIP3    H2 3217   5.558   3.513   3.037  0.6165 -2.4158  0.4486
 1071TIP3   OH2 3218   1.829   3.055   0.062  0.2246  0.8354 -0.4109
 1071TIP3    H1 3219   1.804   3.001  -0.014 -1.8572  0.2146  0.6287
 1071TIP3    H2 3220   1.858   2.991   0.127 -3.5509  0.5839  1.3347
 1072TIP3   OH2 3221   3.551   1.582   0.134 -0.0436  0.0474 -0.3990
 1072TIP3    H1 3222   3.524   1.598   0.043  0.8714 -0.1775 -0.7262
 1072TIP3    H2 3223   3.642   1.610   0.136  0.1206 -0.5195  0.2948
 1073TIP3   OH2 3224   4.467   2.305   4.837 -0.5030  0.5833 -0.2486
 1073TIP3    H1 3225   4.412   2.242   4.883  2.2908 -0.9923  1.1753
 1073TIP3    H2 3226   4.425   2.390   4.853 -2.4307 -0.4867  0.7883
 1074TIP3   OH2 3227   5.814   1.973   3.229  0.0517  0.1087 -0.5071
 1074TIP3    H1 3228   5.724   2.001   3.214  0.3694  0.6611 -1.4674
 1074TIP3    H2 3229   5.820   1.888   3.185 -0.4188 -0.6754  0.8931
 1075TIP3   OH2 3230   5.666   1.595   3.153  0.1423 -0.8346  0.3631
 1075TIP3    H1 3231   5.606   1.547   3.096  0.2088 -2.2128  1.3899
 1075TIP3    H2 3232   5.733   1.630   3.094 -0.8447 -0.5351 -0.6171
 1076TIP3   OH2 3233   2.756   5.195   2.687  0.1754 -1.1731  0.3243
 1076TIP3    H1 3234   2.700   5.268   2.662  1.2751 -0.8544 -1.3218
 1076TIP3    H2 3235   2.838   5.236   2.714  0.8375 -1.7698 -0.7088
 1077TIP3   OH2 3236   1.878   1.665   3.270 -0.1330 -0.5432 -0.6307
 1077TIP3    H1 3237   1.905   1.705   3.188 -1.0961 -2.1291 -1.7732
 1077TIP3    H2 3238   1.806   1.719   3.301 -0.2493 -0.3586 -1.2206
 1078TIP3   OH2 3239   4.401   2.838   2.185 -0.5559 -0.0803  0.0260
 1078TIP3    H1 3240   4.381   2.750   2.218 -0.1393 -0.3845 -0.5144
 1078TIP3    H2 3241   4.318   2.871   2.153 -0.9655  0.2024  1.3103
 1079TIP3   OH2 3242   1.947   5.387   1.610 -0.6668  0.0634 -0.2027
 1079TIP3    H1 3243   1.954   5.379   1.515  1.4168 -1.5868  0.0249
 1079TIP3    H2 3244   2.036   5.376   1.642 -0.8977  3.0767  1.8519
 1080TIP3   OH2 3245   3.043   2.199   4.308 -0.2605  0.1732  0.3765
 1080TIP3    H1 3246   3.131   2.165   4.318 -0.0068  0.7318  0.0977
 1080TIP3    H2 3247   2.986   2.126   4.330  0.2451 -0.8906 -1.5718
 1081TIP3   OH2 3248   0.612   5.323   4.349  0.0659 -0.2098 -0.2065
 1081TIP3    H1 3249   0.667   5.264   4.401 -0.8240  0.0091  1.0231
 1081TIP3    H2 3250   0.597   5.398   4.406 -1.8757 -0.4697 -0.3253
 1082TIP3   OH2 3251   5.675   0.747   0.440 -0.4487 -0.8464  0.1151
 1082TIP3    H1 3252   5.677   0.689   0.516  1.1446 -0.2046  0.6208
 1082TIP3    H2 3253   5.683   0.835   0.478  1.3781 -0.5663 -0.7945
 1083TIP3   OH2 3254   2.570   5.144   3.457  0.1635  0.1793 -0.1917
 1083TIP3    H1 3255   2.632   5.211   3.487  0.3519  0.1510 -0.5108
 1083TIP3    H2 3256   2.573   5.151   3.361 -2.0112  1.7497 -0.2181
 1084TIP3   OH2 3257   5.633   5.388   4.245 -0.2305 -0.5463  0.3324
 1084TIP3    H1 3258   5.646   5.345   4.161  1.4385  0.7245 -0.1044
 1084TIP3    H2 3259   5.562   5.450   4.229 -0.3951 -0.8016  0.0650
 1085TIP3   OH2 3260   5.647   1.889   5.032 -0.4903 -0.3655  0.0623
 1085TIP3    H1 3261   5.600   1.819   5.076  1.3226 -1.3331  0.5873
 1085TIP3    H2 3262   5.732   1.850   5.009  0.1811  1.3499 -0.5620
 1086TIP3   OH2 3263   3.106   5.628   4.503  0.5394  0.0356 -0.1453
 1086TIP3    H1 3264   3.171   5.697   4.494 -0.3531  0.8320 -0.6617
 1086TIP3    H2 3265   3.022   5.674   4.509  0.0578 -0.9499  0.9978
 1087TIP3   OH2 3266   3.412   4.835   0.912 -0.1731 -0.0008 -0.0599
 1087TIP3    H1 3267   3.401   4.816   0.819 -0.9162 -0.5156  0.1251
 1087TIP3    H2 3268   3.416   4.931   0.916 -0.5094  0.0386 -0.5834
 1088TIP3   OH2 3269   1.894   0.265   2.395  0.6949  0.4498 -0.2085
 1088TIP3    H1 3270   1.799   0.265   2.394  0.6407  1.0522 -2.8971
 1088TIP3    H2 3271   1.918   0.236   2.483 -1.9337 -1.1982  0.0466
 1089TIP3   OH2 3272   2.727   4.273   4.374  0.1135 -0.6421 -0.3186
 1089TIP3    H1 3273   2.764   4.283   4.287 -0.4533 -1.9497 -0.7320
 1089TIP3    H2 3274   2.799   4.295   4.434 -0.1865  2.8674 -1.0264
 1090TIP3   OH2 3275   3.687   3.221   4.027 -0.1181 -0.2816  0.4314
 1090TIP3    H1 3276   3.728   3.220   3.940  1.5950  0.7413  1.1726
 1090TIP3    H2 3277   3.708   3.135   4.063  0.0958 -0.3210  0.2257
 1091TIP3   OH2 3278   1.645   4.942   2.511  0.4235 -0.2584 -0.2365
 1091TIP3    H1 3279   1.677   5.029   2.538 -0.5339 -0.0487  0.2797
 1091TIP3    H2 3280   1.649   4.944   2.416 -1.7648  1.2657 -0.3799
 1092TIP3   OH2 3281   5.559   1.852   1.553  0.2337 -0.0102  0.3243
 1092TIP3    H1 3282   5.573   1.770   1.599  1.6235 -0.3091 -0.5592
 1092TIP3    H2 3283   5.635   1.906   1.577  1.5654 -0.5448 -2.2884
 1093TIP3   OH2 3284   2.379   2.590   1.758  0.2276 -0.2928  0.3543
 1093TIP3    H1 3285   2.405   2.644   1.683 -0.3074  0.6589  0.8243
 1093TIP3    H2 3286   2.460   2.551   1.789  0.6135  0.1364 -0.0884
 1094TIP3   OH2 3287   4.944   5.520   4.106 -0.1568  0.1532 -0.4539
 1094TIP3    H1 3288   4.913   5.529   4.016 -0.8319 -0.4207 -0.2839
 1094TIP3    H2 3289   4.885   5.574   4.158  0.7392  1.1586 -0.4445
 1095TIP3   OH2 3290   0.364   5.668   0.846  0.0948 -0.3042  0.7629
 1095TIP3    H1 3291   0.429   5.705   0.786 -0.5442 -1.4887 -0.7194
 1095TIP3    H2 3292   0.282   5.712   0.824 -0.2148 -0.9906  0.5186
 1096TIP3   OH2 3293   3.700   5.684   1.137 -0.4851  0.2200 -0.6072
 1096TIP3    H1 3294   3.731   5.665   1.225  1.4444  0.1152 -1.2633
 1096TIP3    H2 3295   3.676   5.777   1.139 -0.6401  0.1708  0.0529
 1097TIP3   OH2 3296   1.543   1.315   0.694 -0.4944 -0.2595  0.0049
 1097TIP3    H1 3297   1.463   1.357   0.725 -1.8328 -0.6108 -2.6419
 1097TIP3    H2 3298   1.607   1.331   0.763 -2.7189  0.3754  2.0516
 1098TIP3   OH2 3299   5.463   4.213   1.900  0.5114 -0.2262  0.3875
 1098TIP3    H1 3300   5.458   4.203   1.805 -1.1366 -0.8680  0.5134
 1098TIP3    H2 3301   5.510   4.295   1.913 -0.8165  0.8198 -1.0323
 1099TIP3   OH2 3302   1.985   5.640   2.838  0.0460  0.9631  0.0806
 1099TIP3    H1 3303   2.019   5.609   2.755 -1.4393  0.5814 -0.4241
 1099TIP3    H2 3304   1.921   5.708   2.814 -0.6199  0.6387  0.8739
 1100TIP3   OH2 3305   0.219   4.792   3.088 -0.8339  0.3358  0.1867
 1100TIP3    H1 3306   0.169   4.869   3.063 -0.7803  1.0168  2.0380
 1100TIP3    H2 3307   0.190   4.772   3.177  1.4524  0.1835  0.9716
 1101TIP3   OH2 3308   1.518   3.619   4.006 -0.3292  0.0387 -0.0275
 1101TIP3    H1 3309   1.594   3.612   3.948 -0.5917  0.4764 -0.4356
 1101TIP3    H2 3310   1.460   3.549   3.977  0.1819 -0.6945  0.6957
 1102TIP3   OH2 3311   4.059   4.027   3.604 -0.3552 -0.1215 -0.3227
 1102TIP3    H1 3312   4.130   3.984   3.556  0.0537  0.4905 -0.2716
 1102TIP3    H2 3313   3.999   4.057   3.536 -0.5213 -0.5468 -0.3709
 1103TIP3   OH2 3314   6.096   2.772   4.347  0.2234 -0.6511 -0.3490
 1103TIP3    H1 3315   6.005   2.796   4.326  0.6748  1.4638 -0.0970
 1103TIP3    H2 3316   6.088   2.693   4.400 -1.7102  1.0364  2.0961
 1104TIP3   OH2 3317   0.646   4.412   3.344 -0.6156 -0.6598 -0.2736
 1104TIP3    H1 3318   0.661   4.465   3.266  0.8814 -1.6760 -0.7205
 1104TIP3    H2 3319   0.700   4.334   3.331 -0.0616 -0.7082  1.9095
 1105TIP3   OH2 3320   6.042   1.350   4.159 -0.5158 -0.5414 -0.5758
 1105TIP3    H1 3321   6.122   1.314   4.122  0.7656  0.2212  1.2834
 1105TIP3    H2 3322   6.064   1.441   4.178 -2.2020 -0.0081 -1.0228
 1106TIP3   OH2 3323   1.074   3.854   0.382  0.6880 -0.6098 -0.7647
 1106TIP3    H1 3324   1.020   3.866   0.461 -0.2031 -1.5230 -1.2016
 1106TIP3    H2 3325   1.164   3.866   0.413  0.3235 -0.4282  0.2853
 1107TIP3   OH2 3326   5.065   4.526   2.730  0.4497 -0.1999  0.2108
 1107TIP3    H1 3327   5.016   4.457   2.774  0.4369 -1.9571 -2.3384
 1107TIP3    H2 3328   5.155   4.516   2.764  0.0795 -0.2006  1.2406
 1108TIP3   OH2 3329   5.032   3.916   3.898  0.0032 -0.3338  1.0329
 1108TIP3    H1 3330   5.034   3.964   3.981  1.9625 -1.5652  1.7545
 1108TIP3    H2 3331   5.096   3.960   3.843 -2.1126  1.2206 -0.3605
 1109TIP3   OH2 3332   1.412   1.875   3.537 -0.0807  0.8300  0.0078
 1109TIP3    H1 3333   1.415   1.836   3.449 -0.4948 -0.1867  0.4272
 1109TIP3    H2 3334   1.496   1.851   3.576 -0.2688  0.4859  0.2077
 1110TIP3   OH2 3335   2.475   4.424   1.601  0.5980  0.1858  0.4128
 1110TIP3    H1 3336   2.538   4.356   1.579  0.3977 -0.1822  0.9493
 1110TIP3    H2 3337   2.512   4.504   1.565  0.3495 -0.3665 -1.1310
 1111TIP3   OH2 3338   0.010   3.132   4.342  0.9286  0.0712  0.1272
 1111TIP3    H1 3339   0.038   3.105   4.254 -0.7014  1.3630 -0.8485
 1111TIP3    H2 3340   0.077   3.195   4.370  2.0186 -1.1258  0.2790
 1112TIP3   OH2 3341   2.084   1.422   1.402 -0.1265 -0.0678  0.5040
 1112TIP3    H1 3342   2.090   1.353   1.335 -2.4529  0.7027 -0.5919
 1112TIP3    H2 3343   1.992   1.448   1.402  0.5155  2.5072  1.4275
 1113TIP3   OH2 3344   3.120   0.651   4.998 -0.8097 -0.1476 -0.1513
 1113TIP3    H1 3345   3.075   0.579   5.042  0.9313 -1.8856 -1.0871
 1113TIP3    H2 3346   3.166   0.611   4.925 -1.3106  2.2344 -1.9078
 1114TIP3   OH2 3347   3.961   2.484   0.498  0.5774 -0.1654  0.0053
 1114TIP3    H1 3348   3.976   2.546   0.569 -1.2336  2.1940 -1.5399
 1114TIP3    H2 3349   4.011   2.520   0.424  0.0989 -0.9688 -0.7264
 1115TIP3   OH2 3350   2.979   2.216   4.664  0.3949 -0.0225  0.2544
 1115TIP3    H1 3351   3.066   2.185   4.640 -0.5271 -1.8260 -0.9623
 1115TIP3    H2 3352   2.933   2.138   4.693 -1.1001  0.7550  0.0558
 1116TIP3   OH2 3353   6.256   3.548   0.121 -0.2923 -0.0896 -0.1789
 1116TIP3    H1 3354   6.237   3.456   0.137 -0.3227 -0.3571 -1.6559
 1116TIP3    H2 3355   6.183   3.595   0.161  0.1969 -0.6216  1.4232
 1117TIP3   OH2 3356   3.650   5.959   4.038 -0.6384  0.5077  0.4721
 1117TIP3    H1 3357   3.680   5.990   3.952 -0.7596  0.6503  0.4798
 1117TIP3    H2 3358   3.554   5.955   4.029 -0.5346 -2.0207 -0.2620
 1118TIP3   OH2 3359   1.308   5.987   3.797  0.1403 -0.1366  0.0823
 1118TIP3    H1 3360   1.289   5.900   3.832  1.2579  0.2338  1.7030
 1118TIP3    H2 3361   1.324   6.042   3.874 -0.4885  1.5117 -0.9046
 1119TIP3   OH2 3362   0.759   2.686   1.047  0.2541 -0.2811  0.0341
 1119TIP3    H1 3363   0.735   2.661   0.957 -0.0320 -0.8597  0.2619
 1119TIP3    H2 3364   0.840   2.735   1.038  0.2595 -0.3904 -0.5394
 1120TIP3   OH2 3365   6.326   1.547   4.494 -0.7913  0.0180 -0.3251
 1120TIP3    H1 3366   6.249   1.578   4.543 -2.0635 -1.8504 -1.0219
 1120TIP3    H2 3367   6.386   1.515   4.561 -1.6096 -0.5809  0.1415
 1121TIP3   OH2 3368   5.656   2.143   4.609 -0.5114  0.4345 -0.6850
 1121TIP3    H1 3369   5.577   2.139   4.556  0.5303 -1.0041 -2.2253
 1121TIP3    H2 3370   5.690   2.054   4.609  0.4799  0.7655  0.9695
 1122TIP3   OH2 3371   0.978   0.911   2.586 -0.2881  0.4567 -0.1824
 1122TIP3    H1 3372   0.892   0.942   2.615 -0.2302  0.0048  0.5009
 1122TIP3    H2 3373   1.031   0.912   2.666  0.0628 -0.1931 -0.4034
 1123TIP3   OH2 3374   4.787   2.888   1.312 -0.5060  0.1024 -0.6600
 1123TIP3    H1 3375   4.868   2.856   1.272 -0.2026  0.9279 -0.7285
 1123TIP3    H2 3376   4.754   2.814   1.363  0.2658 -0.2574 -0.6722
 1124TIP3   OH2 3377   5.849   1.287   0.075 -0.7239 -0.0795 -0.1530
 1124TIP3    H1 3378   5.800   1.356   0.120 -1.1566  0.5331 -1.5234
 1124TIP3    H2 3379   5.824   1.206   0.120  0.5415  0.7100  2.1462
 1125TIP3   OH2 3380   1.020   5.808   0.507  0.1350  0.0947  0.2231
 1125TIP3    H1 3381   1.023   5.797   0.602  0.2726  1.4922  0.4047
 1125TIP3    H2 3382   1.087   5.874   0.488  0.3984 -0.4625 -0.9053
 1126TIP3   OH2 3383   4.598   1.896   0.822  0.3408  0.0238 -0.0805
 1126TIP3    H1 3384   4.549   1.901   0.905  0.0889 -0.0173 -0.2256
 1126TIP3    H2 3385   4.550   1.954   0.763  0.4838  0.0027 -0.2166
 1127TIP3   OH2 3386   1.252   0.585   4.534 -0.2164  0.4796 -0.2047
 1127TIP3    H1 3387   1.195   0.508   4.531  0.1558  0.2141 -3.0879
 1127TIP3    H2 3388   1.340   0.550   4.541 -0.1907  0.8214  1.8160
 1128TIP3   OH2 3389   1.416   2.090   3.382  0.4050  0.0099  0.4859
 1128TIP3    H1 3390   1.434   2.028   3.453 -1.4188  0.3182  1.2775
 1128TIP3    H2 3391   1.366   2.039   3.318 -1.8969  0.7828  1.5532
 1129TIP3   OH2 3392   6.010   0.651   2.377 -0.2562 -0.6035 -0.4535
 1129TIP3    H1 3393   5.995   0.608   2.461 -0.0177  0.7810  0.3416
 1129TIP3    H2 3394   5.927   0.642   2.330 -1.3717  0.9677  1.0772
 1130TIP3   OH2 3395   0.969   3.753   2.316 -0.0653 -0.5297 -0.0968
 1130TIP3    H1 3396   0.986   3.663   2.344  0.1310 -1.1095 -1.9558
 1130TIP3    H2 3397   1.015   3.761   2.232 -1.2848  0.8289 -0.6790
 1131TIP3   OH2 3398   3.062   4.164   2.325  0.1097 -0.5589 -0.5948
 1131TIP3    H1 3399   3.118   4.136   2.397 -1.1451 -1.1260  0.2125
 1131TIP3    H2 3400   3.043   4.083   2.276 -0.3966 -0.4762 -0.5470
 1132TIP3   OH2 3401   4.208   0.544   1.806 -0.3288  0.2566 -0.6335
 1132TIP3    H1 3402   4.123   0.500   1.806 -0.5764  0.7323 -0.3878
 1132TIP3    H2 3403   4.189   0.633   1.776  0.1760  0.1898 -1.1658
 1133TIP3   OH2 3404   0.419   5.137   1.332  0.5192  0.5729  0.8603
 1133TIP3    H1 3405   0.470   5.127   1.413  0.4851 -0.9063  0.7230
 1133TIP3    H2 3406   0.331   5.161   1.362  0.6842  0.7320  1.2218
 1134TIP3   OH2 3407   3.703   1.915   0.062  0.4772 -0.4103 -0.1258
 1134TIP3    H1 3408   3.685   1.981  -0.005  2.3517 -0.8695 -1.1675
 1134TIP3    H2 3409   3.748   1.845   0.015  1.2497 -1.0570  1.4907
 1135TIP3   OH2 3410   2.844   2.181   3.213 -0.0210  0.1603 -0.0963
 1135TIP3    H1 3411   2.878   2.188   3.124 -0.2840 -0.3672 -0.2483
 1135TIP3    H2 3412   2.767   2.124   3.205  0.8709 -1.2464  0.6857
 1136TIP3   OH2 3413   2.576   0.687   4.102  0.2098  0.4573 -0.0835
 1136TIP3    H1 3414   2.543   0.772   4.133 -0.4584  0.4428 -0.7163
 1136TIP3    H2 3415   2.626   0.653   4.175 -0.6255  0.8075  0.6734
 1137TIP3   OH2 3416   1.740   0.424   3.219 -0.1237  0.3179 -0.5934
 1137TIP3    H1 3417   1.741   0.473   3.136  0.4762 -0.2438 -0.9223
 1137TIP3    H2 3418   1.810   0.463   3.270  0.8272 -0.6409 -1.1288
 1138TIP3   OH2 3419   1.798   1.988   1.747 -0.1657 -0.2430 -0.0734
 1138TIP3    H1 3420   1.848   1.907   1.737 -0.9961 -0.6939 -0.7365
 1138TIP3    H2 3421   1.707   1.958   1.756 -0.3155  0.5380  1.3555
 1139TIP3   OH2 3422   5.140   3.322   3.014  0.5250 -0.2361  0.4411
 1139TIP3    H1 3423   5.234   3.309   3.027  0.4792 -1.8884 -0.6473
 1139TIP3    H2 3424   5.123   3.410   3.050  2.5229  0.2177  0.3932
 1140TIP3   OH2 3425   2.365   4.567   0.355 -0.4136 -0.4740  0.2745
 1140TIP3    H1 3426   2.413   4.618   0.421 -2.6529  0.7808  1.0663
 1140TIP3    H2 3427   2.336   4.633   0.292  0.0368 -1.4017 -0.9249
 1141TIP3   OH2 3428   5.703   3.610   3.520  0.1840 -0.4022  0.6070
 1141TIP3    H1 3429   5.624   3.556   3.515 -0.1455  0.1984 -1.3049
 1141TIP3    H2 3430   5.675   3.687   3.570 -0.4128 -0.2699  0.0860
 1142TIP3   OH2 3431   4.723   4.034   0.895 -0.6279  0.5207 -0.0450
 1142TIP3    H1 3432   4.802   3.979   0.894  0.1717  1.6231 -0.5741
 1142TIP3    H2 3433   4.746   4.106   0.955 -0.4288  1.9208 -1.7143
 1143TIP3   OH2 3434   3.583   1.391   2.740 -0.2229  0.3611  0.5634
 1143TIP3    H1 3435   3.665   1.412   2.785  0.7734 -0.1161 -0.9486
 1143TIP3    H2 3436   3.600   1.412   2.649 -1.8210  0.2929  0.2304
 1144TIP3   OH2 3437   4.811   5.593   3.067 -0.1583  0.7220 -0.2802
 1144TIP3    H1 3438   4.815   5.686   3.045  0.9954  0.7535 -0.0084
 1144TIP3    H2 3439   4.865   5.584   3.146  0.9041 -0.3810 -1.0824
 1145TIP3   OH2 3440   0.189   3.459   4.129 -0.0288 -0.3020  0.3075
 1145TIP3    H1 3441   0.111   3.405   4.116  1.0419 -1.3860 -2.4781
 1145TIP3    H2 3442   0.155   3.547   4.141 -1.7708 -0.3723 -2.8878
 1146TIP3   OH2 3443   4.152   0.672   0.248  0.4573 -0.4055 -0.3772
 1146TIP3    H1 3444   4.090   0.661   0.320 -0.4676  1.6127 -0.8007
 1146TIP3    H2 3445   4.238   0.669   0.289  0.0119 -1.3514  0.5006
 1147TIP3   OH2 3446   5.222   1.026   0.761 -0.1931  0.8690 -0.4769
 1147TIP3    H1 3447   5.241   1.089   0.691  1.9664  2.5640  1.4806
 1147TIP3    H2 3448   5.277   0.951   0.741 -0.4424  0.8636 -1.1777
 1148TIP3   OH2 3449   5.640   4.270   3.690  0.2926 -0.0778 -0.4502
 1148TIP3    H1 3450   5.571   4.316   3.737  1.8673  1.1083  0.8270
 1148TIP3    H2 3451   5.642   4.310   3.603 -0.5485 -0.0948 -0.4872
 1149TIP3   OH2 3452   1.592   3.819   3.490 -0.0747 -0.2105  0.3353
 1149TIP3    H1 3453   1.607   3.789   3.580 -1.9133 -0.8970  0.4604
 1149TIP3    H2 3454   1.564   3.740   3.444 -1.6954  0.6386 -0.1810
 1150TIP3   OH2 3455   6.281   3.152   1.510  0.0023  0.1108  0.5216
 1150TIP3    H1 3456   6.228   3.230   1.501  0.6589  0.3098 -2.6554
 1150TIP3    H2 3457   6.229   3.082   1.470  0.8319 -0.3290  0.1799
 1151TIP3   OH2 3458   3.366   2.838   4.211 -0.2276 -0.2873 -0.2177
 1151TIP3    H1 3459   3.451   2.821   4.170  0.0726  1.9576 -0.6684
 1151TIP3    H2 3460   3.335   2.919   4.169 -1.5951  0.1027  1.4349
 1152TIP3   OH2 3461   4.711   2.787   1.755 -0.1035 -0.1165 -0.1386
 1152TIP3    H1 3462   4.757   2.703   1.757 -0.6582 -0.4056  0.8318
 1152TIP3    H2 3463   4.662   2.790   1.836 -0.4425  0.9631 -0.3652
 1153TIP3   OH2 3464   5.156   0.083   1.790 -0.4948 -0.2590 -0.3818
 1153TIP3    H1 3465   5.113   0.168   1.789 -1.2018 -0.6146 -0.2495
 1153TIP3    H2 3466   5.147   0.051   1.700  0.3255  0.0686 -0.5980
 1154TIP3   OH2 3467   0.253   5.291   3.496 -0.0364  0.4690  0.5062
 1154TIP3    H1 3468   0.240   5.289   3.402 -0.6107 -0.1406  0.5902
 1154TIP3    H2 3469   0.315   5.220   3.513 -1.0206 -0.3626  0.7315
 1155TIP3   OH2 3470   3.293   0.688   3.306  0.2019 -0.2665 -0.5650
 1155TIP3    H1 3471   3.269   0.597   3.288  0.1137 -0.0372 -1.6671
 1155TIP3    H2 3472   3.231   0.739   3.254  0.1565  0.4369  0.1622
 1156TIP3   OH2 3473   2.661   4.010   4.378  0.4119  0.2502  0.0106
 1156TIP3    H1 3474   2.660   4.105   4.387  0.4755  0.1842  0.8100
 1156TIP3    H2 3475   2.694   3.978   4.462 -1.8284 -0.5579  0.6723
 1157TIP3   OH2 3476   4.809   0.420   1.663  0.1997  0.4632  0.5118
 1157TIP3    H1 3477   4.766   0.474   1.729 -0.0456  1.0511 -0.1210
 1157TIP3    H2 3478   4.742   0.404   1.597  0.9070  1.3598 -0.4678
 1158TIP3   OH2 3479   3.527   0.924   2.173  0.2784 -0.4974 -0.1028
 1158TIP3    H1 3480   3.433   0.940   2.177  0.5828  1.3200  1.7947
 1158TIP3    H2 3481   3.558   0.978   2.101 -0.1681 -1.6143 -1.1692
 1159TIP3   OH2 3482   0.833   4.774   4.223 -0.0292 -0.2274  0.3777
 1159TIP3    H1 3483   0.765   4.739   4.281 -1.9227 -0.2249 -1.7056
 1159TIP3    H2 3484   0.871   4.696   4.182  0.2241 -0.1508  0.4672
 1160TIP3   OH2 3485   3.402   3.353   5.045  0.6751  0.1797 -0.0341
 1160TIP3    H1 3486   3.495   3.343   5.028  0.7578  1.4791 -0.3917
 1160TIP3    H2 3487   3.397   3.378   5.138  0.6371 -0.2912  0.0983
 1161TIP3   OH2 3488   4.171   1.772   3.479 -0.2436  0.1929  0.1795
 1161TIP3    H1 3489   4.247   1.717   3.459 -0.0907  0.6123 -0.4050
 1161TIP3    H2 3490   4.192   1.857   3.442 -0.1913  0.8643  1.6713
 1162TIP3   OH2 3491   4.664   4.217   4.585  0.6045  0.1614 -0.3016
 1162TIP3    H1 3492   4.579   4.200   4.626  1.3308  2.0605  2.2938
 1162TIP3    H2 3493   4.722   4.151   4.624  1.4057  2.2669  2.4812
 1163TIP3   OH2 3494   2.935   5.150   0.919  0.5371  0.3643  0.0136
 1163TIP3    H1 3495   2.854   5.156   0.868  0.0501  3.1935  0.9663
 1163TIP3    H2 3496   2.934   5.060   0.953 -1.7747  0.0521 -0.6659
 1164TIP3   OH2 3497   3.857   4.061   0.230  0.2848  0.9366 -0.0098
 1164TIP3    H1 3498   3.879   4.050   0.323  1.7228  0.3411 -0.3853
 1164TIP3    H2 3499   3.768   4.096   0.230  0.4313  1.3810  1.5992
 1165TIP3   OH2 3500   5.468   0.780   3.905  0.3797  0.0330  0.0804
 1165TIP3    H1 3501   5.424   0.709   3.858 -1.6026 -0.2733  2.2116
 1165TIP3    H2 3502   5.424   0.860   3.875  0.5678  0.0595 -0.1275
 1166TIP3   OH2 3503   1.392   1.898   1.377  0.2557 -0.3603  0.7092
 1166TIP3    H1 3504   1.406   1.929   1.288  0.2954  0.1814  0.9007
 1166TIP3    H2 3505   1.323   1.832   1.369  0.8836 -0.9759  0.1577
 1167TIP3   OH2 3506   5.736   3.952   4.674  0.7871 -0.1506 -0.4590
 1167TIP3    H1 3507   5.741   4.033   4.724  0.3939 -0.5765  0.2931
 1167TIP3    H2 3508   5.769   3.885   4.733 -2.7559 -1.2201  0.5482
 1168TIP3   OH2 3509   2.288   0.477   3.476  0.6600 -0.1743  0.2868
 1168TIP3    H1 3510   2.285   0.534   3.399  0.9726 -0.7924 -0.1872
 1168TIP3    H2 3511   2.344   0.523   3.538  1.4233 -0.2522 -0.3341
 1169TIP3   OH2 3512   1.059   3.007   1.139  0.0832 -0.6870  0.3406
 1169TIP3    H1 3513   1.117   3.048   1.204 -1.9966 -0.4133  2.1258
 1169TIP3    H2 3514   1.013   3.080   1.099 -1.5163 -1.0473  1.4434
 1170TIP3   OH2 3515   5.738   0.779   3.882 -0.1307  0.2184  0.6976
 1170TIP3    H1 3516   5.763   0.716   3.815 -1.2020  0.4702  0.0477
 1170TIP3    H2 3517   5.643   0.778   3.883 -0.1522  1.0077  1.4699
 1171TIP3   OH2 3518   1.017   4.240   4.086  0.0785  0.1162  0.0730
 1171TIP3    H1 3519   1.075   4.256   4.160 -0.9958  1.3528  0.6821
 1171TIP3    H2 3520   1.064   4.276   4.010  0.7853 -0.3500  0.2774
 1172TIP3   OH2 3521   4.548   4.478   3.410  0.0387 -0.9585  0.3074
 1172TIP3    H1 3522   4.584   4.390   3.418  1.8794 -0.6253 -2.8423
 1172TIP3    H2 3523   4.598   4.530   3.474 -0.1439 -1.8960  1.2448
 1173TIP3   OH2 3524   0.203   0.620   2.055 -0.2958 -0.0135 -0.1332
 1173TIP3    H1 3525   0.145   0.685   2.093 -0.6945 -0.3316 -0.1944
 1173TIP3    H2 3526   0.285   0.630   2.103  0.1353  1.5337 -1.1180
 1174TIP3   OH2 3527   2.105   4.141   4.628 -0.3328  0.1371  0.5285
 1174TIP3    H1 3528   2.078   4.175   4.714  0.2297  2.2735 -0.0611
 1174TIP3    H2 3529   2.186   4.188   4.609  0.3518 -1.4009 -0.5546
 1175TIP3   OH2 3530   5.006   5.468   3.351 -0.3249  0.4154 -0.2234
 1175TIP3    H1 3531   5.003   5.564   3.354 -1.1727  0.4556 -1.5253
 1175TIP3    H2 3532   5.042   5.442   3.436 -2.3895  1.7917  1.1746
 1176TIP3   OH2 3533   4.687   2.773   3.048 -0.4104 -0.2303 -0.6606
 1176TIP3    H1 3534   4.759   2.731   3.095 -0.2182 -0.9942 -1.5849
 1176TIP3    H2 3535   4.716   2.863   3.034  1.5950 -1.1304 -3.2582
 1177TIP3   OH2 3536   4.483   3.045   3.647 -0.1831 -0.2367 -0.5545
 1177TIP3    H1 3537   4.508   3.007   3.731 -1.3828  0.9122  0.3777
 1177TIP3    H2 3538   4.556   3.025   3.588  1.7145  0.8075  1.3156
 1178TIP3   OH2 3539   0.947   4.130   0.243  1.1635  0.3025  0.4298
 1178TIP3    H1 3540   0.909   4.110   0.329 -1.3435  0.0147 -0.6634
 1178TIP3    H2 3541   0.873   4.131   0.184  2.5335  2.5621 -1.4260
 1179TIP3   OH2 3542   5.030   5.579   0.644 -0.6014  0.1292 -0.0879
 1179TIP3    H1 3543   4.976   5.658   0.652 -0.3681  0.3691 -0.7494
 1179TIP3    H2 3544   4.968   5.509   0.627 -0.7179  0.3940 -0.7982
 1180TIP3   OH2 3545   4.001   1.117   1.605  0.2345 -0.4774 -0.6819
 1180TIP3    H1 3546   3.994   1.029   1.567 -0.7032 -1.0463  0.7100
 1180TIP3    H2 3547   4.026   1.101   1.696 -2.9623  0.4490  0.4851
 1181TIP3   OH2 3548   2.933   1.442   4.008 -0.4049 -0.2254 -0.0324
 1181TIP3    H1 3549   2.956   1.398   4.090  0.2594  1.6870  0.8747
 1181TIP3    H2 3550   2.980   1.394   3.940 -1.3008 -2.1161  0.6122
 1182TIP3   OH2 3551   3.735   5.075   0.675  0.3385 -0.6424 -0.8135
 1182TIP3    H1 3552   3.798   5.014   0.714 -0.2741 -0.1367  1.0916
 1182TIP3    H2 3553   3.747   5.156   0.724 -1.6478 -0.4744 -0.5083
 1183TIP3   OH2 3554   2.592   5.810   2.077  0.4154 -0.0139  0.5129
 1183TIP3    H1 3555   2.576   5.901   2.053 -1.7627  0.0395  1.9369
 1183TIP3    H2 3556   2.674   5.812   2.125  0.9685  0.9992 -0.4176
 1184TIP3   OH2 3557   3.841   0.551   1.412 -0.8143  0.0740  0.1642
 1184TIP3    H1 3558   3.809   0.489   1.347 -2.9801  0.5790  0.6594
 1184TIP3    H2 3559   3.846   0.635   1.365  0.2294 -0.0733 -0.0095
 1185TIP3   OH2 3560   5.715   1.433   3.733  0.2379 -0.1713 -0.0851
 1185TIP3    H1 3561   5.747   1.366   3.672  0.2089 -0.1031 -0.1746
 1185TIP3    H2 3562   5.759   1.413   3.815  2.3677  1.3465 -0.7806
 1186TIP3   OH2 3563   0.935   0.383   2.918 -0.5280 -0.0656  0.1783
 1186TIP3    H1 3564   0.897   0.416   3.000  2.4285  2.0538  0.8543
 1186TIP3    H2 3565   0.983   0.458   2.882 -0.2993 -1.4472 -2.6169
 1187TIP3   OH2 3566   1.674   5.356   1.994  0.1690 -0.1289  0.0684
 1187TIP3    H1 3567   1.713   5.444   1.993  2.5437 -1.1083 -0.5096
 1187TIP3    H2 3568   1.663   5.334   1.902 -2.1318  0.1965  0.2044
 1188TIP3   OH2 3569   1.629   5.851   1.938  0.0848  0.1936  0.1215
 1188TIP3    H1 3570   1.553   5.864   1.882 -0.8302 -0.2568  1.1997
 1188TIP3    H2 3571   1.611   5.904   2.016 -0.6698 -2.2983  1.7798
 1189TIP3   OH2 3572   4.988   2.999   2.892 -0.3701  0.4274 -0.1301
 1189TIP3    H1 3573   4.902   2.963   2.871  0.2877 -0.4451 -1.4279
 1189TIP3    H2 3574   5.041   2.982   2.814  0.8043  1.5443  0.3879
 1190TIP3   OH2 3575   0.433   3.839   5.091 -0.8532  0.3511 -0.2340
 1190TIP3    H1 3576   0.432   3.837   4.996 -0.6043  1.0025 -0.2532
 1190TIP3    H2 3577   0.485   3.763   5.116  0.9749  1.3948 -0.6816
 1191TIP3   OH2 3578   6.245   4.232   1.752  0.1800  0.0411  0.2427
 1191TIP3    H1 3579   6.275   4.283   1.677 -3.0023  0.7487 -0.7208
 1191TIP3    H2 3580   6.228   4.297   1.820 -0.2876 -0.1771  0.3385
 1192TIP3   OH2 3581   6.020   3.967   1.199  0.3698 -0.3585 -0.6248
 1192TIP3    H1 3582   5.954   3.914   1.244  0.4897  0.4922  0.6102
 1192TIP3    H2 3583   6.064   4.015   1.270  1.8268 -0.3689 -1.4983
 1193TIP3   OH2 3584   4.446   1.583   5.036 -0.1478 -0.0964 -0.3747
 1193TIP3    H1 3585   4.470   1.668   5.072  0.7261  1.1330 -3.4726
 1193TIP3    H2 3586   4.353   1.590   5.016 -0.1331  0.0433 -0.3942
 1194TIP3   OH2 3587   3.058   3.801   1.169 -0.2092 -0.2541  0.3409
 1194TIP3    H1 3588   3.056   3.895   1.182 -0.4703 -0.3791  1.3022
 1194TIP3    H2 3589   2.976   3.769   1.209  0.5993 -1.0384  1.4483
 1195TIP3   OH2 3590   2.799   4.229   2.232 -0.0047  0.0092 -0.3464
 1195TIP3    H1 3591   2.759   4.181   2.304  0.2508  0.5900  0.1932
 1195TIP3    H2 3592   2.893   4.230   2.252  0.6147 -2.8943 -2.5046
 1196TIP3   OH2 3593   4.529   4.638   4.469  0.0662 -0.0978  0.3511
 1196TIP3    H1 3594   4.470   4.568   4.442 -0.5745 -0.1012  1.6856
 1196TIP3    H2 3595   4.592   4.595   4.527 -0.2106  0.3913  1.0237
 1197TIP3   OH2 3596   5.158   2.105   2.822 -0.1229 -0.1458 -0.0453
 1197TIP3    H1 3597   5.167   2.011   2.807  1.0351  0.0769 -0.9145
 1197TIP3    H2 3598   5.117   2.111   2.908  0.3072 -1.4512  0.2864
 1198TIP3   OH2 3599   6.020   3.288   4.199 -0.2352 -0.7066 -0.2464
 1198TIP3    H1 3600   6.096   3.278   4.257  0.0871 -1.2971 -0.7519
 1198TIP3    H2 3601   5.983   3.373   4.222  1.3733  0.2316 -0.9102
 1199TIP3   OH2 3602   5.157   1.147   4.427 -0.1319 -0.0855  0.3653
 1199TIP3    H1 3603   5.073   1.152   4.473 -0.8332 -0.5453 -0.7958
 1199TIP3    H2 3604   5.185   1.056   4.439 -0.7960 -0.4838 -0.8475
 1200TIP3   OH2 3605   5.754   3.234   0.117 -0.0330 -0.1896 -0.3799
 1200TIP3    H1 3606   5.769   3.141   0.098 -1.3079 -1.3191  3.3334
 1200TIP3    H2 3607   5.660   3.246   0.106 -0.2031  0.0681  1.1742
 1201TIP3   OH2 3608   4.742   3.659   2.303 -0.3700 -0.1967 -0.0210
 1201TIP3    H1 3609   4.754   3.586   2.364  1.9851 -0.8638 -1.2046
 1201TIP3    H2 3610   4.760   3.622   2.217 -0.1840  1.5471 -0.7635
 1202TIP3   OH2 3611   1.830   2.960   2.197  0.1192 -0.0996  0.2374
 1202TIP3    H1 3612   1.807   3.038   2.248  0.4051 -0.1833  0.4965
 1202TIP3    H2 3613   1.873   2.994   2.118  1.0725 -0.0198  0.7744
 1203TIP3   OH2 3614   2.016   3.806   1.590  0.3958  0.3325  1.2146
 1203TIP3    H1 3615   1.952   3.738   1.612 -1.1409  1.9792  2.1339
 1203TIP3    H2 3616   1.969   3.863   1.528  1.4508  0.8388  0.8600
 1204TIP3   OH2 3617   0.484   2.881   0.389 -0.5798 -0.6803  0.6420
 1204TIP3    H1 3618   0.564   2.831   0.372 -0.1030  0.1167  0.4292
 1204TIP3    H2 3619   0.427   2.863   0.314 -0.2307 -0.5553  0.3424
 1205TIP3   OH2 3620   4.420   4.017   1.140  0.3063 -0.1037 -0.4555
 1205TIP3    H1 3621   4.346   3.994   1.084  0.0107  0.8417 -0.4641
 1205TIP3    H2 3622   4.456   3.932   1.167  0.8756 -0.6163 -2.5959
 1206TIP3   OH2 3623   2.836   0.379   1.963  0.4913 -0.0808  0.0415
 1206TIP3    H1 3624   2.917   0.413   2.002  1.0019  0.9099 -1.8120
 1206TIP3    H2 3625   2.768   0.402   2.026  1.4232  0.5186  0.8623
 1207TIP3   OH2 3626  -0.012   2.254   0.537  0.1516  0.2480 -0.3494
 1207TIP3    H1 3627  -0.050   2.177   0.493 -0.9711  0.7276 -0.2416
 1207TIP3    H2 3628   0.062   2.219   0.586 -1.2776 -1.0605  0.9761
 1208TIP3   OH2 3629   6.254   5.720   0.231  0.4374 -0.1826  0.6028
 1208TIP3    H1 3630   6.315   5.728   0.304  0.4595  1.5975  0.4140
 1208TIP3    H2 3631   6.264   5.801   0.181  0.0789 -1.1471 -1.1231
 1209TIP3   OH2 3632   5.992   2.888   0.107  0.7432 -0.0547  0.4760
 1209TIP3    H1 3633   6.028   2.975   0.124  0.0173  0.0719  1.4184
 1209TIP3    H2 3634   6.039   2.830   0.167  1.3206 -0.3477 -0.2444
 1210TIP3   OH2 3635   6.117   2.678   0.264  0.3204 -0.0914 -0.1841
 1210TIP3    H1 3636   6.201   2.712   0.296 -0.2171  0.2658  0.9236
 1210TIP3    H2 3637   6.098   2.604   0.322  0.1084 -0.4729 -0.7403
 1211TIP3   OH2 3638   4.272   5.772   4.558  0.3160 -0.5623 -0.2406
 1211TIP3    H1 3639   4.181   5.793   4.539 -0.4660 -4.1264 -1.3230
 1211TIP3    H2 3640   4.270   5.731   4.645  0.4416 -2.4713 -1.0772
 1212TIP3   OH2 3641   5.596   2.910   0.508 -0.6290  0.3214 -0.5013
 1212TIP3    H1 3642   5.636   2.855   0.441  0.2653  1.0465 -0.5854
 1212TIP3    H2 3643   5.666   2.970   0.534 -0.4865 -0.8014  2.0653
 1213TIP3   OH2 3644   0.236   1.670   3.818 -0.4395 -0.4114 -0.4429
 1213TIP3    H1 3645   0.171   1.640   3.882  1.2213 -1.0875  1.0246
 1213TIP3    H2 3646   0.276   1.747   3.859  1.0914 -1.2348 -0.3233
 1214TIP3   OH2 3647   2.646   2.546   0.940  0.0219  0.5129 -0.0427
 1214TIP3    H1 3648   2.655   2.484   1.013  0.7103  0.9053  0.2157
 1214TIP3    H2 3649   2.588   2.614   0.974  0.7831  0.9829  0.3482
 1215TIP3   OH2 3650   0.233   5.113   1.789  0.3267 -0.3679  0.2315
 1215TIP3    H1 3651   0.141   5.101   1.811  0.7583  0.5254  2.7511
 1215TIP3    H2 3652   0.248   5.207   1.797  1.7279 -0.6339  1.0017
 1216TIP3   OH2 3653   4.356   2.489   1.978 -0.1875 -0.4505  0.3042
 1216TIP3    H1 3654   4.417   2.420   1.955  2.8843  1.5341  1.8369
 1216TIP3    H2 3655   4.319   2.462   2.062  0.1449 -0.7249  0.3621
 1217TIP3   OH2 3656   0.400   1.490   1.299 -0.0723  0.6210 -0.1583
 1217TIP3    H1 3657   0.430   1.541   1.224  3.3067  0.5073  0.9639
 1217TIP3    H2 3658   0.377   1.405   1.262 -0.4935  1.2069 -1.3049
 1218TIP3   OH2 3659   0.119   4.422   4.759 -0.2352  0.0455  0.0438
 1218TIP3    H1 3660   0.189   4.381   4.811 -1.2603 -0.9160  0.7184
 1218TIP3    H2 3661   0.038   4.394   4.802 -1.0533  0.9088 -0.8852
 1219TIP3   OH2 3662   5.474   4.933   5.090  0.1435  0.2430 -0.2498
 1219TIP3    H1 3663   5.383   4.965   5.089  0.1131  0.4283  2.3117
 1219TIP3    H2 3664   5.519   4.986   5.025 -1.5127  0.3035 -1.4128
 1220TIP3   OH2 3665   4.492   0.047   1.459  0.5145 -0.6548 -0.9661
 1220TIP3    H1 3666   4.498  -0.032   1.512  0.4906 -0.0845 -0.0966
 1220TIP3    H2 3667   4.482   0.118   1.522 -1.4805 -0.1478 -1.7891
 1221TIP3   OH2 3668   3.414   0.172   4.317 -0.2341  0.0540  0.3318
 1221TIP3    H1 3669   3.498   0.195   4.357 -0.9070 -0.7211  2.3105
 1221TIP3    H2 3670   3.349   0.217   4.371 -1.1378  0.1809 -0.8269
 1222TIP3   OH2 3671   2.439   1.582   1.860 -0.4266  0.0136  0.2797
 1222TIP3    H1 3672   2.518   1.617   1.902  0.9426 -0.4946 -1.6942
 1222TIP3    H2 3673   2.472   1.541   1.780 -2.8729  1.1063 -1.3996
 1223TIP3   OH2 3674   3.486   2.702   0.046  0.3476 -0.5367  0.0389
 1223TIP3    H1 3675   3.533   2.785   0.036 -1.5335  0.8329  1.7450
 1223TIP3    H2 3676   3.466   2.675  -0.044  3.6157 -0.8202 -0.7130
 1224TIP3   OH2 3677   2.006   4.646   2.701  0.2681 -0.4830 -0.0084
 1224TIP3    H1 3678   1.965   4.610   2.623 -0.2420 -0.0066  0.0352
 1224TIP3    H2 3679   2.010   4.573   2.762 -1.8571 -0.2226  0.5242
 1225TIP3   OH2 3680   0.400   5.896   0.475  0.4258  0.1940 -0.2182
 1225TIP3    H1 3681   0.375   5.810   0.442  1.4137 -0.1402 -0.1198
 1225TIP3    H2 3682   0.412   5.950   0.397  0.1191  0.1525 -0.2926
 1226TIP3   OH2 3683   1.636   3.334   3.028 -0.2159 -0.7301  0.2188
 1226TIP3    H1 3684   1.647   3.239   3.039 -0.1229 -0.8807 -1.0269
 1226TIP3    H2 3685   1.666   3.351   2.939  1.1149  0.7111  0.9194
 1227TIP3   OH2 3686   6.273   2.683   5.201 -0.2442  0.2784  0.0338
 1227TIP3    H1 3687   6.177   2.681   5.192 -0.0860 -0.7060 -1.9819
 1227TIP3    H2 3688   6.306   2.675   5.111  1.7375  0.0208  0.7345
 1228TIP3   OH2 3689   5.333   3.192   0.884  0.6741 -0.3634  0.1798
 1228TIP3    H1 3690   5.321   3.163   0.793 -0.5155 -3.0519  1.1045
 1228TIP3    H2 3691   5.398   3.132   0.920  0.6488  0.2664  1.3012
 1229TIP3   OH2 3692   0.333   0.119   0.464  0.6858 -0.1293 -0.2787
 1229TIP3    H1 3693   0.417   0.086   0.496  1.0785 -0.7978 -1.9158
 1229TIP3    H2 3694   0.320   0.201   0.512  2.2005 -0.0740  0.1017
 1230TIP3   OH2 3695   1.932   1.648   0.127  0.1212 -0.2503 -0.6162
 1230TIP3    H1 3696   1.868   1.710   0.090  0.2559  0.5508  0.4492
 1230TIP3    H2 3697   1.985   1.701   0.186  1.0064 -1.1631 -0.5699
 1231TIP3   OH2 3698   5.749   3.134   2.780  0.3932 -0.3622 -0.1861
 1231TIP3    H1 3699   5.744   3.184   2.861 -1.6038  0.1414 -0.5615
 1231TIP3    H2 3700   5.712   3.049   2.802 -0.4428 -0.1242 -0.6026
 1232TIP3   OH2 3701   3.027   3.388   1.947 -0.1608  0.2302 -0.2576
 1232TIP3    H1 3702   3.112   3.371   1.907 -1.0055 -0.4432 -1.8923
 1232TIP3    H2 3703   2.973   3.312   1.922 -1.8657  1.6807 -1.2117
 1233TIP3   OH2 3704   0.643   3.962   4.678 -0.0776 -0.1309  0.5313
 1233TIP3    H1 3705   0.697   4.001   4.746  2.4173  0.6698 -1.7179
 1233TIP3    H2 3706   0.692   3.977   4.597 -0.7835 -4.6110 -1.0141
 1234TIP3   OH2 3707   1.758   2.618   4.296  0.1641  0.3624  0.3198
 1234TIP3    H1 3708   1.831   2.583   4.346  0.1862  1.8718  1.4013
 1234TIP3    H2 3709   1.680   2.586   4.342  0.1528 -0.2267 -0.1047
 1235TIP3   OH2 3710   0.920   2.753   2.516  0.4262  0.4665  0.3944
 1235TIP3    H1 3711   0.985   2.793   2.573  0.5190 -1.1851  1.5389
 1235TIP3    H2 3712   0.839   2.757   2.567  0.1991  0.2140  0.0553
 1236TIP3   OH2 3713   1.598   2.720   0.122 -0.4846 -0.1701  0.0258
 1236TIP3    H1 3714   1.582   2.695   0.213 -2.9752  1.2449  0.0606
 1236TIP3    H2 3715   1.511   2.721   0.082  0.3058  1.3396 -1.8064
 1237TIP3   OH2 3716   1.309   2.866   1.076  0.3567  0.2149  0.2370
 1237TIP3    H1 3717   1.301   2.812   1.155  3.4681  0.2702  0.6887
 1237TIP3    H2 3718   1.250   2.940   1.091  0.0270 -0.3614  1.9888
 1238TIP3   OH2 3719   1.265   3.730   0.148  0.1168  0.1992  0.2318
 1238TIP3    H1 3720   1.334   3.793   0.127  0.7526  0.3687  2.5475
 1238TIP3    H2 3721   1.298   3.646   0.115  0.9942  0.4526  0.4468
 1239TIP3   OH2 3722   4.598   0.356   4.286  0.3877  0.5310 -0.0513
 1239TIP3    H1 3723   4.525   0.306   4.323 -0.8626  1.2146 -1.4664
 1239TIP3    H2 3724   4.628   0.303   4.212  0.2856  0.9760 -0.4170
 1240TIP3   OH2 3725   4.593   1.635   3.007  0.0407  0.1849  0.5854
 1240TIP3    H1 3726   4.498   1.647   3.007 -0.1617 -1.2842  0.0797
 1240TIP3    H2 3727   4.608   1.554   3.055  1.0872  0.6112  1.0240
 1241TIP3   OH2 3728   0.508   2.928   5.023  0.0324 -0.3222  0.1432
 1241TIP3    H1 3729   0.543   2.851   5.069 -1.7190 -0.9807  0.4463
 1241TIP3    H2 3730   0.575   2.995   5.035  2.5497 -2.2779 -1.7522
 1242TIP3   OH2 3731   1.697   5.039   3.871  0.3363  0.0459 -1.0242
 1242TIP3    H1 3732   1.669   4.950   3.851 -0.6726 -0.3791  1.8367
 1242TIP3    H2 3733   1.629   5.074   3.928  1.4295  2.1623 -0.8924
 1243TIP3   OH2 3734   3.219   2.616   1.421 -0.3754  0.0997 -0.5661
 1243TIP3    H1 3735   3.185   2.567   1.346 -0.8754 -0.3461 -0.0598
 1243TIP3    H2 3736   3.242   2.702   1.385  2.1736 -1.0130 -1.8476
 1244TIP3   OH2 3737   5.649   3.662   0.375  0.3282  0.4183 -0.1421
 1244TIP3    H1 3738   5.684   3.738   0.328 -0.0891  0.0325 -1.0891
 1244TIP3    H2 3739   5.695   3.587   0.338  0.2878  0.1498  0.3483
 1245TIP3   OH2 3740   3.603   2.562   0.538 -1.2949 -0.4764  0.1338
 1245TIP3    H1 3741   3.609   2.471   0.565 -0.2993 -0.8573 -1.2668
 1245TIP3    H2 3742   3.527   2.596   0.585 -1.2831 -1.8258  1.2023
 1246TIP3   OH2 3743   1.793   1.362   3.991 -0.1524 -0.3652 -0.2105
 1246TIP3    H1 3744   1.784   1.422   3.917  0.4379 -1.9566 -1.6429
 1246TIP3    H2 3745   1.884   1.332   3.985 -0.6046 -1.8362  0.1104
 1247TIP3   OH2 3746   1.845   3.303   4.003  0.3760  0.1613  0.6225
 1247TIP3    H1 3747   1.750   3.299   4.016  0.2151  3.1382  1.1689
 1247TIP3    H2 3748   1.874   3.369   4.065  2.7104 -0.1412 -0.0713
 1248TIP3   OH2 3749   4.631   1.773   4.824  0.1890  0.0815 -0.5622
 1248TIP3    H1 3750   4.545   1.757   4.864  0.0325  0.2362 -0.8319
 1248TIP3    H2 3751   4.680   1.820   4.892  0.5067 -1.1196  0.0681
 1249TIP3   OH2 3752   2.815   0.837   2.384  0.4313  0.1506  0.0961
 1249TIP3    H1 3753   2.736   0.887   2.404  0.8453  0.1143  2.0573
 1249TIP3    H2 3754   2.886   0.891   2.416  1.0330 -0.7794  0.3762
 1250TIP3   OH2 3755   0.728   0.159   2.259 -0.6581  0.3964 -0.2500
 1250TIP3    H1 3756   0.758   0.238   2.305 -2.2525  1.8625 -1.5733
 1250TIP3    H2 3757   0.799   0.139   2.199 -0.8596  1.8166 -1.0125
 1251TIP3   OH2 3758   1.742   5.387   2.832 -0.6631  0.0528 -0.7151
 1251TIP3    H1 3759   1.825   5.403   2.788 -0.1450 -1.0259 -0.1594
 1251TIP3    H2 3760   1.689   5.464   2.811  0.1311  0.3176 -1.8654
 1252TIP3   OH2 3761   2.025   1.084   3.857 -0.1872  0.0706 -0.1572
 1252TIP3    H1 3762   2.056   1.159   3.807 -1.4386  1.0098  0.4141
 1252TIP3    H2 3763   2.080   1.011   3.829 -1.0502  0.4595 -3.1807
 1253TIP3   OH2 3764   3.979   5.358   1.930 -0.1843 -0.5341 -0.0726
 1253TIP3    H1 3765   3.922   5.294   1.974 -1.5457  0.1634 -0.7378
 1253TIP3    H2 3766   3.977   5.333   1.838  0.4413 -0.3846 -0.1296
 1254TIP3   OH2 3767   4.125   3.132   0.334 -0.1590 -0.1497  0.2540
 1254TIP3    H1 3768   4.036   3.099   0.342 -0.0839 -0.1900  1.0196
 1254TIP3    H2 3769   4.155   3.102   0.248 -0.6358 -0.7389  0.2934
 1255TIP3   OH2 3770   1.022   2.623   0.778  0.4972  0.0117 -1.0591
 1255TIP3    H1 3771   1.033   2.677   0.857  0.4608  0.6260 -1.4692
 1255TIP3    H2 3772   0.928   2.608   0.772  0.2196  1.9780 -2.2926
 1256TIP3   OH2 3773   2.195   5.823   1.903  0.2827 -0.1370 -0.5222
 1256TIP3    H1 3774   2.149   5.801   1.984  1.3627  1.1158  0.4913
 1256TIP3    H2 3775   2.279   5.777   1.910  0.2949 -0.1942 -1.0295
 1257TIP3   OH2 3776   0.465   3.425   4.392  0.0712 -0.0558  0.2931
 1257TIP3    H1 3777   0.484   3.411   4.484 -0.5998 -1.3817  0.2604
 1257TIP3    H2 3778   0.393   3.488   4.392  0.6326  0.5959  0.6287
 1258TIP3   OH2 3779   1.483   0.040   2.647  0.2179  0.1441  0.0125
 1258TIP3    H1 3780   1.459   0.047   2.555 -0.6284  0.1892  0.2282
 1258TIP3    H2 3781   1.534  -0.040   2.653  1.0970  0.6458 -0.6588
 1259TIP3   OH2 3782   1.070   0.672   1.970  0.3564  0.5033  0.2476
 1259TIP3    H1 3783   0.996   0.723   1.935  1.2596  0.9860 -1.0299
 1259TIP3    H2 3784   1.073   0.594   1.915  0.5048  0.2414  0.6230
 1260TIP3   OH2 3785   6.258   2.070   2.843 -0.2609 -0.3797  0.1628
 1260TIP3    H1 3786   6.201   2.022   2.903  0.9922 -1.4041  0.6013
 1260TIP3    H2 3787   6.322   2.005   2.814  2.1009  1.1717  1.5210
 1261TIP3   OH2 3788   5.082   5.139   3.398  0.1884 -0.0680 -0.1759
 1261TIP3    H1 3789   5.118   5.052   3.385 -0.9504 -0.6095  0.1631
 1261TIP3    H2 3790   5.091   5.182   3.313  1.5372 -0.2012 -0.1147
 1262TIP3   OH2 3791   4.135   3.469   5.174 -0.4213  0.2030 -0.5685
 1262TIP3    H1 3792   4.143   3.433   5.086 -0.7902 -0.4242 -0.3477
 1262TIP3    H2 3793   4.159   3.397   5.232  2.3895  1.3230 -0.1911
 1263TIP3   OH2 3794   5.428   5.030   0.059 -0.0724  0.1268 -0.2903
 1263TIP3    H1 3795   5.427   4.945   0.103  0.5005  0.0699 -0.3867
 1263TIP3    H2 3796   5.339   5.040   0.025 -0.5129  0.1601  0.8525
 1264TIP3   OH2 3797   1.059   1.154   3.776 -0.3193 -0.5753  0.4381
 1264TIP3    H1 3798   1.088   1.219   3.712  1.0692  0.2319  1.8155
 1264TIP3    H2 3799   0.988   1.196   3.824 -1.7233 -1.3758 -0.8543
 1265TIP3   OH2 3800   4.303   5.808   0.992 -0.1681 -0.0014  0.1387
 1265TIP3    H1 3801   4.362   5.884   0.988  0.5746 -0.5879 -0.2528
 1265TIP3    H2 3802   4.216   5.847   0.997  0.2882  0.9308  2.7693
 1266TIP3   OH2 3803   0.024   5.401   4.132  0.0781  0.4386 -0.6126
 1266TIP3    H1 3804  -0.063   5.418   4.096  0.0596  1.3521 -0.1530
 1266TIP3    H2 3805   0.083   5.450   4.076  0.1950  0.6667 -0.2886
 1267TIP3   OH2 3806   1.841   5.904   1.044 -0.2021 -0.4254  0.3021
 1267TIP3    H1 3807   1.785   5.963   1.094  0.5952 -0.2822  1.0302
 1267TIP3    H2 3808   1.844   5.824   1.096  1.4846  0.0871  1.0477
 1268TIP3   OH2 3809   0.824   0.400   0.291  0.4697  0.5119  0.0204
 1268TIP3    H1 3810   0.814   0.471   0.354 -1.0769 -0.0502  0.4547
 1268TIP3    H2 3811   0.803   0.440   0.206 -0.3195  0.6008  0.2526
 1269TIP3   OH2 3812   3.648   2.983   0.868  0.1726  0.1519  0.0118
 1269TIP3    H1 3813   3.727   3.016   0.826 -0.4919  0.7850 -0.7640
 1269TIP3    H2 3814   3.580   2.990   0.801 -0.9569  1.3286  1.2154
 1270TIP3   OH2 3815   1.180   5.744   4.612  0.4652  0.8907  0.4994
 1270TIP3    H1 3816   1.239   5.785   4.548 -1.2707  0.2976 -1.6124
 1270TIP3    H2 3817   1.183   5.651   4.591 -0.8920  0.8048  0.5782
 1271TIP3   OH2 3818   1.273   4.183   0.526  0.3260  0.4163  0.4291
 1271TIP3    H1 3819   1.253   4.147   0.440  0.1061  1.1900  0.1429
 1271TIP3    H2 3820   1.213   4.138   0.586  2.0590 -1.8490  0.5859
 1272TIP3   OH2 3821   2.833   5.822   2.217  0.5555  0.3490 -0.4529
 1272TIP3    H1 3822   2.903   5.843   2.155  1.2709  1.1216  0.5951
 1272TIP3    H2 3823   2.848   5.731   2.241 -0.2412 -0.2402 -2.0473
 1273TIP3   OH2 3824   2.685   0.449   2.196 -1.0005  0.0107 -0.1009
 1273TIP3    H1 3825   2.611   0.507   2.211  0.1537  0.7049  3.8907
 1273TIP3    H2 3826   2.680   0.383   2.265  0.7505 -1.4551 -1.2410
 1274TIP3   OH2 3827   3.779   5.980   0.252 -0.0746 -1.1078  0.3680
 1274TIP3    H1 3828   3.806   5.991   0.160 -1.7605 -0.3207 -0.0794
 1274TIP3    H2 3829   3.711   5.913   0.248 -0.1167 -1.1048  1.0647
 1275TIP3   OH2 3830   0.707   2.977   3.399 -0.7976  0.3909  0.5688
 1275TIP3    H1 3831   0.764   3.032   3.452 -2.0071  0.5393  1.7687
 1275TIP3    H2 3832   0.745   2.980   3.311  1.0788  0.3975  1.3421
 1276TIP3   OH2 3833   1.103   1.319   4.695 -0.1918 -0.1117  0.2636
 1276TIP3    H1 3834   1.153   1.240   4.718 -2.3703 -1.7209 -0.1657
 1276TIP3    H2 3835   1.068   1.351   4.778 -0.2882 -0.3277  0.3073
 1277TIP3   OH2 3836   1.329   4.736   4.087  0.5117  0.8184 -0.6161
 1277TIP3    H1 3837   1.247   4.701   4.121  0.4093 -1.8576 -3.2870
 1277TIP3    H2 3838   1.308   4.826   4.062 -1.6237  0.2092 -1.2058
 1278TIP3   OH2 3839   0.802   0.234   1.093 -0.3785  0.5675  0.0342
 1278TIP3    H1 3840   0.804   0.326   1.067 -3.6440  0.4537 -1.0575
 1278TIP3    H2 3841   0.756   0.235   1.177 -1.8293 -0.1418 -0.7231
 1279TIP3   OH2 3842   5.761   0.539   0.041 -0.3052 -0.2165  0.6515
 1279TIP3    H1 3843   5.747   0.630   0.015  1.6223 -0.3507 -1.1039
 1279TIP3    H2 3844   5.799   0.545   0.129  0.3288  0.7120  0.3274
 1280TIP3   OH2 3845   5.288   1.898   1.525  0.1775  0.3619 -0.0495
 1280TIP3    H1 3846   5.258   1.823   1.473 -1.2480 -1.5871  3.2556
 1280TIP3    H2 3847   5.383   1.890   1.525  0.0644 -1.9509  0.6777
 1281TIP3   OH2 3848   3.323   5.400   0.841 -0.0565  0.2998  0.0189
 1281TIP3    H1 3849   3.242   5.387   0.891  0.3932 -1.2842  0.3893
 1281TIP3    H2 3850   3.358   5.483   0.874 -1.9519  1.4845 -0.7929
 1282TIP3   OH2 3851   5.917   4.414   4.606 -0.2010  0.1325 -0.2214
 1282TIP3    H1 3852   5.902   4.426   4.513 -0.1386  0.2805 -0.2124
 1282TIP3    H2 3853   5.905   4.501   4.644  1.7639  0.5117 -0.3578
 1283TIP3   OH2 3854   3.590   4.024   2.375 -0.5845 -0.0029  0.0488
 1283TIP3    H1 3855   3.504   4.000   2.341 -0.6216  0.5360 -0.2606
 1283TIP3    H2 3856   3.620   4.094   2.317 -0.1848  0.2066  0.4983
 1284TIP3   OH2 3857   2.894   2.529   3.601 -0.5850 -0.3753  0.0428
 1284TIP3    H1 3858   2.959   2.500   3.537 -0.0819  0.9350 -0.0700
 1284TIP3    H2 3859   2.902   2.624   3.601 -0.2896 -0.3555  2.3473
 1285TIP3   OH2 3860   1.078   5.178   1.080 -0.1183  0.0227 -0.2560
 1285TIP3    H1 3861   1.171   5.156   1.092 -0.8902 -2.2869  2.9599
 1285TIP3    H2 3862   1.064   5.254   1.136 -0.1349  0.4680 -0.8639
 1286TIP3   OH2 3863   2.385   1.084   3.456  0.2172  0.6299 -0.1746
 1286TIP3    H1 3864   2.446   1.073   3.528  1.0875  0.1157 -0.9756
 1286TIP3    H2 3865   2.379   1.179   3.444  2.0465  0.6667 -1.0588
 1287TIP3   OH2 3866   6.191   2.727   4.686 -0.3134  0.2830  0.2926
 1287TIP3    H1 3867   6.136   2.668   4.635  0.9992 -1.0655  0.3675
 1287TIP3    H2 3868   6.249   2.767   4.621 -0.3084  0.4710  0.4137
 1288TIP3   OH2 3869   5.857   1.172   4.659  0.0349  0.4400 -0.6435
 1288TIP3    H1 3870   5.846   1.237   4.729 -0.0986  0.2249 -0.4598
 1288TIP3    H2 3871   5.889   1.094   4.705 -0.7818  0.0593 -0.7113
 1289TIP3   OH2 3872   5.998   2.601   2.575 -0.2513  0.1945  0.1899
 1289TIP3    H1 3873   5.920   2.634   2.530  0.4805  0.7885 -0.6935
 1289TIP3    H2 3874   6.017   2.517   2.534  2.5518  2.3155 -3.4347
 1290TIP3   OH2 3875   0.667   5.358   5.073  0.0189  0.6637 -0.7691
 1290TIP3    H1 3876   0.744   5.410   5.050  0.3351  1.1916  1.2603
 1290TIP3    H2 3877   0.700   5.269   5.081  0.7577  1.0604  1.2651
 1291TIP3   OH2 3878   3.535   0.272   4.939  0.0120  0.4249  0.5217
 1291TIP3    H1 3879   3.623   0.308   4.924 -0.1356  0.4879 -0.2083
 1291TIP3    H2 3880   3.494   0.335   4.999  0.1701  0.8468  0.1967
 1292TIP3   OH2 3881   3.281   1.052   2.731 -0.4634  0.7881  0.3850
 1292TIP3    H1 3882   3.314   0.980   2.784 -0.1822  0.9607  0.4463
 1292TIP3    H2 3883   3.356   1.080   2.678 -0.7341  0.6280 -0.0956
 1293TIP3   OH2 3884   2.842   2.302   2.535  0.0786 -0.3051 -0.0876
 1293TIP3    H1 3885   2.767   2.361   2.533  0.3942  0.2194  1.6230
 1293TIP3    H2 3886   2.901   2.340   2.601  0.8816 -1.8212  0.1216
 1294TIP3   OH2 3887   4.091   2.509   0.240 -0.6990  0.5163  0.7611
 1294TIP3    H1 3888   4.100   2.545   0.152 -2.8296  3.4187  1.5691
 1294TIP3    H2 3889   4.178   2.475   0.262  0.7120  2.4975 -1.3154
 1295TIP3   OH2 3890   1.878   3.185   2.512 -0.0610  0.1683  0.5578
 1295TIP3    H1 3891   1.846   3.109   2.561 -0.6548  0.4275  0.5751
 1295TIP3    H2 3892   1.972   3.169   2.503 -0.3127 -0.9994 -0.2050
 1296TIP3   OH2 3893   0.066   0.554   1.155  0.1537  0.7455  0.3783
 1296TIP3    H1 3894   0.104   0.553   1.067  1.3102  1.6865  0.8418
 1296TIP3    H2 3895  -0.016   0.602   1.144 -0.3185 -0.1954 -0.3936
 1297TIP3   OH2 3896   4.438   2.641   2.565  0.1018 -0.2215 -0.0851
 1297TIP3    H1 3897   4.490   2.605   2.493  0.4839  0.6690 -0.2658
 1297TIP3    H2 3898   4.493   2.710   2.602 -0.9633  0.7696 -0.3083
 1298TIP3   OH2 3899   2.236   0.970   2.407 -0.1051 -0.2153 -0.3457
 1298TIP3    H1 3900   2.255   1.002   2.318  1.7982 -2.0268 -0.6562
 1298TIP3    H2 3901   2.250   1.046   2.463 -1.4201  0.9894 -1.5628
 1299TIP3   OH2 3902   5.515   0.376   2.615  0.5436 -0.3655  0.0959
 1299TIP3    H1 3903   5.543   0.368   2.524 -2.3304  0.6172 -0.9838
 1299TIP3    H2 3904   5.443   0.313   2.624  1.9693 -1.8355  2.3247
 1300TIP3   OH2 3905   5.800   0.155   0.768 -0.5271 -0.0781 -0.1995
 1300TIP3    H1 3906   5.782   0.246   0.792 -0.7307 -0.0278 -0.5307
 1300TIP3    H2 3907   5.833   0.160   0.678 -1.8104 -0.4370 -0.7176
 1301TIP3   OH2 3908   0.202   3.946   3.549 -0.4711  0.1818  0.1765
 1301TIP3    H1 3909   0.110   3.964   3.569 -0.9079 -2.3032  0.7999
 1301TIP3    H2 3910   0.249   3.968   3.628 -0.5657  1.0497  0.0043
 1302TIP3   OH2 3911   3.414   2.840   1.303  0.0598 -0.3252 -0.2242
 1302TIP3    H1 3912   3.482   2.906   1.315 -0.9942  1.1472 -1.7914
 1302TIP3    H2 3913   3.458   2.757   1.321  0.7973  0.8235  4.4379
 1303TIP3   OH2 3914   3.702   4.156   1.340 -0.1036  0.1056 -0.0666
 1303TIP3    H1 3915   3.612   4.127   1.355  0.7043 -1.4337  2.6560
 1303TIP3    H2 3916   3.728   4.113   1.258 -1.5122 -0.2762 -0.3342
 1304TIP3   OH2 3917   0.665   0.537   4.665  0.1033 -0.5585  0.0410
 1304TIP3    H1 3918   0.753   0.518   4.696  0.4923 -0.4140 -0.9351
 1304TIP3    H2 3919   0.659   0.495   4.579 -0.5381 -0.0086 -0.2045
 1305TIP3   OH2 3920   2.020   4.251   2.532  0.5544  0.0708 -0.1898
 1305TIP3    H1 3921   2.042   4.163   2.501  1.4189 -0.3056  1.3838
 1305TIP3    H2 3922   2.098   4.303   2.512  0.3351  0.3051 -0.4423
 1306TIP3   OH2 3923   3.796   5.170   2.062  0.1518 -0.7957 -0.3798
 1306TIP3    H1 3924   3.709   5.133   2.076 -0.1300 -0.7707 -1.9348
 1306TIP3    H2 3925   3.835   5.116   1.993  0.4435  0.6326 -1.3824
 1307TIP3   OH2 3926   6.330   1.909   4.161  0.5782 -0.0563  0.0303
 1307TIP3    H1 3927   6.380   1.991   4.167 -1.1230  1.0154  0.1131
 1307TIP3    H2 3928   6.261   1.918   4.227 -1.2227 -0.4156 -1.7138
 1308TIP3   OH2 3929   4.383   1.617   3.404  0.0832  0.2967  0.5700
 1308TIP3    H1 3930   4.407   1.526   3.422 -0.3635 -0.0499 -0.4681
 1308TIP3    H2 3931   4.398   1.627   3.310 -4.1882 -0.1448 -0.3534
 1309TIP3   OH2 3932   0.356   4.184   0.691  1.1320  0.5183 -0.7714
 1309TIP3    H1 3933   0.299   4.256   0.717  1.0068  0.8549 -1.9091
 1309TIP3    H2 3934   0.297   4.111   0.672  1.2846 -0.0536  0.8031
 1310TIP3   OH2 3935   0.065   1.680   4.033  0.2704 -0.5000 -0.1532
 1310TIP3    H1 3936   0.024   1.739   4.096  1.9662  0.8767 -0.2759
 1310TIP3    H2 3937   0.004   1.606   4.027 -1.2376  0.5676  1.0561
 1311TIP3   OH2 3938   0.022   2.426   0.961  0.2651 -0.5852  0.2415
 1311TIP3    H1 3939   0.101   2.417   0.907  1.2835 -0.8191  1.7093
 1311TIP3    H2 3940   0.041   2.374   1.039 -1.5925 -1.1086  0.3876
 1312TIP3   OH2 3941   5.672   1.060   3.898 -0.6172 -0.6466 -0.3659
 1312TIP3    H1 3942   5.688   0.965   3.898  0.8563 -0.4351  0.9329
 1312TIP3    H2 3943   5.752   1.098   3.933 -1.3182  1.0826 -0.5266
 1313TIP3   OH2 3944   0.521   4.016   0.844  0.1823 -0.3094  0.4929
 1313TIP3    H1 3945   0.518   4.100   0.798  2.4324 -0.6456 -0.3709
 1313TIP3    H2 3946   0.429   3.998   0.865 -1.0448  0.0252 -3.5951
 1314TIP3   OH2 3947   1.991   1.874   2.261  0.6587 -0.0089  0.8287
 1314TIP3    H1 3948   2.032   1.820   2.194 -1.4594 -0.3989 -0.2309
 1314TIP3    H2 3949   1.923   1.819   2.299  0.2246  1.0161  1.6062
 1315TIP3   OH2 3950   3.529   3.838   1.629 -0.0872  0.7598 -0.0248
 1315TIP3    H1 3951   3.570   3.780   1.565 -1.8220 -0.1957 -0.3260
 1315TIP3    H2 3952   3.461   3.884   1.580 -0.8887  0.6235  0.9418
 1316TIP3   OH2 3953   5.506   2.850   0.753 -0.6380  0.0717  0.3028
 1316TIP3    H1 3954   5.516   2.755   0.760  0.1003 -0.0319 -1.5972
 1316TIP3    H2 3955   5.525   2.870   0.662 -3.7000  1.7048 -0.1363
 1317TIP3   OH2 3956   4.022   3.345   2.470  0.0476 -0.3078 -0.1022
 1317TIP3    H1 3957   4.067   3.270   2.430 -0.2408  0.5695 -2.1794
 1317TIP3    H2 3958   3.979   3.307   2.547 -0.5639 -2.4311 -1.3896
 1318TIP3   OH2 3959   3.572   3.297   1.727  0.4465 -0.4571 -0.4532
 1318TIP3    H1 3960   3.593   3.372   1.783  1.0119 -0.2952 -0.8727
 1318TIP3    H2 3961   3.498   3.255   1.770  0.3844  0.1097  0.0050
 1319TIP3   OH2 3962   2.622   4.799   0.774 -0.7703  0.2585 -0.3603
 1319TIP3    H1 3963   2.711   4.771   0.754 -0.9209 -1.6082  1.3237
 1319TIP3    H2 3964   2.567   4.725   0.747 -2.0103  1.7998 -2.4172
 1320TIP3   OH2 3965   6.258   3.808   1.660 -0.1342 -0.2079 -0.3759
 1320TIP3    H1 3966   6.294   3.719   1.654  1.5767  0.5062 -1.6882
 1320TIP3    H2 3967   6.329   3.864   1.628 -0.8395  1.7342  1.2913
 1321TIP3   OH2 3968   2.482   4.039   2.222  0.1364  0.2678 -0.3142
 1321TIP3    H1 3969   2.541   4.005   2.289  0.6526  0.6397 -0.5699
 1321TIP3    H2 3970   2.457   4.126   2.254 -4.0001 -1.5239  2.1257
 1322TIP3   OH2 3971   0.696   0.596   3.343  0.2052  0.0693  0.3096
 1322TIP3    H1 3972   0.642   0.517   3.344  0.4576 -0.1267 -0.6828
 1322TIP3    H2 3973   0.633   0.668   3.340 -0.0114 -0.1272  0.1456
 1323TIP3   OH2 3974   0.509   3.246   3.935  0.4891 -0.2629 -0.4928
 1323TIP3    H1 3975   0.559   3.212   4.010 -0.9132 -0.3916  0.4306
 1323TIP3    H2 3976   0.569   3.237   3.861  2.7333  1.8135  0.9048
 1324TIP3   OH2 3977   3.491   2.988   5.129  0.9331  0.4425 -0.6352
 1324TIP3    H1 3978   3.498   2.986   5.034  1.7534 -0.3681 -0.5746
 1324TIP3    H2 3979   3.423   2.923   5.150  1.3415  0.0035 -0.6378
 1325TIP3   OH2 3980   4.631   2.524   2.871 -0.0323  0.2507 -0.3434
 1325TIP3    H1 3981   4.689   2.593   2.904  1.2293 -1.2386  0.7185
 1325TIP3    H2 3982   4.678   2.487   2.797 -0.1824 -0.1919 -0.2193
 1326TIP3   OH2 3983   3.655   1.957   2.103 -0.6403  0.1042 -0.0107
 1326TIP3    H1 3984   3.627   1.966   2.012  2.5984 -2.4459 -1.4358
 1326TIP3    H2 3985   3.724   2.022   2.114  0.1330 -0.7222  0.0723
 1327TIP3   OH2 3986   2.062   4.741   0.366 -0.1743  0.5278 -0.2357
 1327TIP3    H1 3987   2.109   4.814   0.325  0.2547  0.1310 -0.4505
 1327TIP3    H2 3988   2.026   4.779   0.446 -2.1978  1.7188 -1.5931
 1328TIP3   OH2 3989   4.346   2.732   0.132 -0.0418  0.4695  0.0051
 1328TIP3    H1 3990   4.430   2.759   0.095  0.0465  0.6160  0.3080
 1328TIP3    H2 3991   4.363   2.726   0.226 -0.0094 -0.7860 -0.0605
 1329TIP3   OH2 3992   5.044   5.806   3.041  0.5594  0.5187 -0.4843
 1329TIP3    H1 3993   4.989   5.875   3.004 -0.9536 -0.2282  0.3034
 1329TIP3    H2 3994   5.086   5.766   2.965 -0.2075  0.9224 -1.1383
 1330TIP3   OH2 3995   2.568   2.870   4.866  0.5221  0.0380 -0.0383
 1330TIP3    H1 3996   2.512   2.871   4.944  0.4522 -0.6630 -0.0754
 1330TIP3    H2 3997   2.570   2.779   4.839 -0.0935  0.3930 -1.3242
 1331TIP3   OH2 3998   3.773   0.762   2.655 -0.3545 -0.7053  0.4165
 1331TIP3    H1 3999   3.729   0.817   2.719 -1.7369 -0.5119 -0.6409
 1331TIP3    H2 4000   3.768   0.812   2.573  3.9846  0.4358  0.6323
 1332TIP3   OH2 4001   6.310   0.301   0.227  0.7331  0.1559 -0.3864
 1332TIP3    H1 4002   6.303   0.311   0.322 -0.8552  1.9360 -0.6552
 1332TIP3    H2 4003   6.403   0.317   0.209  1.2923 -1.2447  0.9269
 1333TIP3   OH2 4004   0.456   0.503   4.012  0.5125  0.0379 -0.9038
 1333TIP3    H1 4005   0.498   0.469   3.933 -0.9979 -1.1607 -1.2380
 1333TIP3    H2 4006   0.391   0.566   3.980 -0.1231 -0.4704 -0.6390
 1334TIP3   OH2 4007   3.562   4.053   0.260 -0.1488  0.2714  0.0959
 1334TIP3    H1 4008   3.595   3.964   0.257 -1.0427 -0.0919  0.4868
 1334TIP3    H2 4009   3.482   4.051   0.207 -1.8673  0.0398  2.5005
 1335TIP3   OH2 4010   3.922   2.351   4.911 -0.2464  0.2758  0.1983
 1335TIP3    H1 4011   3.907   2.426   4.854 -0.1799  0.9890  1.0985
 1335TIP3    H2 4012   4.017   2.347   4.921 -0.3055  0.6984  0.9661
 1336TIP3   OH2 4013   1.952   5.413   3.791 -0.1757 -0.2933 -0.0179
 1336TIP3    H1 4014   1.962   5.502   3.825 -1.2893  0.1075 -0.6743
 1336TIP3    H2 4015   2.003   5.413   3.710 -1.4200  0.2772 -0.8541
 1337TIP3   OH2 4016   2.119   1.890   2.701  0.0773 -0.2436 -0.1874
 1337TIP3    H1 4017   2.197   1.901   2.754  1.6150 -2.5547 -1.7312
 1337TIP3    H2 4018   2.131   1.950   2.628  0.2920 -0.3871 -0.2727
 1338TIP3   OH2 4019   0.641   5.246   3.602  0.2022  0.5120  0.2951
 1338TIP3    H1 4020   0.564   5.197   3.572 -0.7789  1.8338  0.5552
 1338TIP3    H2 4021   0.705   5.236   3.532  0.3975 -1.8678  0.7202
 1339TIP3   OH2 4022   4.309   1.383   2.516 -0.5837  0.0527 -0.4654
 1339TIP3    H1 4023   4.319   1.437   2.594 -2.0741  1.8966 -1.4640
 1339TIP3    H2 4024   4.376   1.415   2.455 -0.9397  0.2549 -0.7613
 1340TIP3   OH2 4025   5.818   3.170   0.955  0.2075 -0.3134  0.5263
 1340TIP3    H1 4026   5.876   3.097   0.976 -0.5253 -1.9241 -2.4505
 1340TIP3    H2 4027   5.730   3.133   0.960 -0.1892  0.3765 -0.8543
 1341TIP3   OH2 4028   0.377   5.227   0.200 -0.5085  0.2321 -0.3920
 1341TIP3    H1 4029   0.368   5.165   0.272  0.2749  0.5322 -0.0281
 1341TIP3    H2 4030   0.451   5.194   0.149 -1.9539 -0.8086 -1.9198
 1342TIP3   OH2 4031   0.941   1.143   1.979 -0.5305  0.0227  0.4230
 1342TIP3    H1 4032   0.889   1.065   2.000  1.0321 -0.9234  1.0396
 1342TIP3    H2 4033   0.895   1.215   2.023 -1.6505 -0.6483  0.4013
 1343TIP3   OH2 4034   1.746   2.289   5.141 -0.0464 -0.1916 -0.2272
 1343TIP3    H1 4035   1.819   2.250   5.092  0.3142  2.5210 -2.0358
 1343TIP3    H2 4036   1.713   2.217   5.194  2.7243 -2.0302 -0.7489
 1344TIP3   OH2 4037   6.147   2.615   2.926  0.5277 -0.3070  0.1400
 1344TIP3    H1 4038   6.096   2.558   2.984  0.5939 -0.6652 -0.1491
 1344TIP3    H2 4039   6.205   2.555   2.878  1.4332  0.1180  0.6711
 1345TIP3   OH2 4040   1.780   3.604   3.848 -0.0223 -0.1476  0.1812
 1345TIP3    H1 4041   1.847   3.636   3.908  0.1217 -2.4948  1.3900
 1345TIP3    H2 4042   1.812   3.519   3.818 -2.1095 -1.0484  0.2782
 1346TIP3   OH2 4043   1.319   1.456   0.378 -0.4324 -0.3391  0.1488
 1346TIP3    H1 4044   1.323   1.375   0.428  1.5381  0.2082  0.9672
 1346TIP3    H2 4045   1.287   1.521   0.441  2.3002  0.4058  0.9034
 1347TIP3   OH2 4046   1.757   0.532   2.962 -0.0795 -0.1551 -0.3993
 1347TIP3    H1 4047   1.675   0.488   2.939 -1.0488 -0.0923  2.4848
 1347TIP3    H2 4048   1.764   0.605   2.901 -2.5693  0.2645 -0.2558
 1348TIP3   OH2 4049   4.282   1.471   1.128  0.4972 -0.3744 -0.3512
 1348TIP3    H1 4050   4.297   1.377   1.136  0.6448 -0.3561 -0.4111
 1348TIP3    H2 4051   4.337   1.510   1.197 -1.6010 -0.4993  1.5126
 1349TIP3   OH2 4052   5.848   4.224   3.863 -0.0029 -0.1487  0.2003
 1349TIP3    H1 4053   5.758   4.230   3.830 -0.3688  0.8759  1.3005
 1349TIP3    H2 4054   5.902   4.257   3.791 -0.8660  3.0569  0.8818
 1350TIP3   OH2 4055   1.943   3.921   0.104 -0.5947  0.4745  0.0778
 1350TIP3    H1 4056   1.918   3.835   0.071  0.3878 -0.1191  0.8158
 1350TIP3    H2 4057   1.906   3.983   0.041 -2.5929 -0.4001  0.3135
 1351TIP3   OH2 4058   5.641   2.856   1.573  0.2252  0.0802 -0.0047
 1351TIP3    H1 4059   5.615   2.934   1.525 -0.8106 -0.0675  0.2958
 1351TIP3    H2 4060   5.562   2.829   1.620  0.9468 -0.3422  1.0056
 1352TIP3   OH2 4061   3.364   4.299   2.395 -0.8603  0.4301  0.0468
 1352TIP3    H1 4062   3.374   4.235   2.325  1.4858 -1.5096  1.9447
 1352TIP3    H2 4063   3.294   4.264   2.450 -3.3805  2.4427 -1.6415
 1353TIP3   OH2 4064   0.045   3.671   3.125  0.6718  0.0621 -0.1416
 1353TIP3    H1 4065  -0.008   3.681   3.046 -0.3403 -1.7711  0.2663
 1353TIP3    H2 4066   0.038   3.756   3.169 -0.1967  0.5280 -1.1382
 1354TIP3   OH2 4067   1.092   3.198   3.820  0.1101  0.0237 -0.3333
 1354TIP3    H1 4068   1.147   3.156   3.886 -2.8256  0.2820  2.5420
 1354TIP3    H2 4069   1.141   3.276   3.793  2.2641 -1.1383  0.0100
 1355TIP3   OH2 4070   4.127   5.662   1.402  0.2449 -0.4750 -0.3016
 1355TIP3    H1 4071   4.176   5.625   1.328  1.8928  0.0797  0.4639
 1355TIP3    H2 4072   4.055   5.600   1.416  0.9523 -1.5601 -1.2184
 1356TIP3   OH2 4073   4.661   0.481   1.187 -0.5490  0.4006 -0.3183
 1356TIP3    H1 4074   4.657   0.463   1.093  0.7880  1.3736 -0.5916
 1356TIP3    H2 4075   4.648   0.575   1.194 -0.2272  0.3973  0.4335
 1357TIP3   OH2 4076   2.791   3.567   3.019  0.1141  0.1221 -0.1700
 1357TIP3    H1 4077   2.714   3.620   2.998 -1.0767 -0.4805  2.2653
 1357TIP3    H2 4078   2.759   3.477   3.016  0.4196 -0.0939  1.7703
 1358TIP3   OH2 4079   0.019   1.421   1.146 -0.2851  0.1876  0.0369
 1358TIP3    H1 4080  -0.055   1.476   1.121  0.0934  0.3892 -0.6693
 1358TIP3    H2 4081   0.078   1.424   1.070 -1.1832 -2.8009 -0.9098
 1359TIP3   OH2 4082   2.388   1.686   4.105  0.9356 -0.7014 -0.1391
 1359TIP3    H1 4083   2.392   1.780   4.087 -0.0832 -0.7136 -0.5104
 1359TIP3    H2 4084   2.477   1.655   4.088  1.2132  0.1379 -0.3023
 1360TIP3   OH2 4085   2.581   4.978   2.679  0.0240 -0.6277 -0.1110
 1360TIP3    H1 4086   2.661   4.940   2.643  0.0902 -0.0495 -0.5864
 1360TIP3    H2 4087   2.610   5.061   2.717 -0.3420 -0.4345 -0.2542
 1361TIP3   OH2 4088   1.445   3.340   0.911  0.0073 -0.6071  0.1490
 1361TIP3    H1 4089   1.352   3.329   0.891  0.5147 -0.5251 -2.7289
 1361TIP3    H2 4090   1.475   3.252   0.936 -0.7596 -0.7002  0.7628
 1362TIP3   OH2 4091   3.861   1.749   1.804  0.2274  0.2112  0.1137
 1362TIP3    H1 4092   3.869   1.815   1.735  0.0240  0.5400  0.4064
 1362TIP3    H2 4093   3.935   1.765   1.862  0.8203 -0.5205 -0.4007
 1363TIP3   OH2 4094   4.252   2.746   1.643  0.3887  0.1124 -0.6542
 1363TIP3    H1 4095   4.185   2.815   1.648  0.5845  0.2867 -0.4650
 1363TIP3    H2 4096   4.334   2.793   1.627  0.7188  0.0204  0.6878
 1364TIP3   OH2 4097   3.383   0.969   4.674  0.0122  0.1147 -0.1710
 1364TIP3    H1 4098   3.390   1.031   4.746 -2.0226 -0.3989  0.5177
 1364TIP3    H2 4099   3.416   1.017   4.598  1.7753  0.8200  0.9715
 1365TIP3   OH2 4100   4.139   4.246   3.864 -0.4473  0.3639  0.1953
 1365TIP3    H1 4101   4.068   4.276   3.920 -0.5369 -1.6096  1.2669
 1365TIP3    H2 4102   4.219   4.264   3.915 -0.3918  0.1940  0.1706
 1366TIP3   OH2 4103   5.046   3.341   2.774  0.1550 -0.0646 -0.0241
 1366TIP3    H1 4104   5.046   3.256   2.731 -0.0420 -0.5918  0.9750
 1366TIP3    H2 4105   5.076   3.322   2.863 -0.2342  0.8564  0.3149
 1367TIP3   OH2 4106   4.858   4.807   0.322 -0.9857 -0.7117 -0.6487
 1367TIP3    H1 4107   4.934   4.822   0.266  1.2342 -0.7070  2.1544
 1367TIP3    H2 4108   4.833   4.716   0.304  1.9888 -1.9382  0.8204
 1368TIP3   OH2 4109   4.303   1.164   1.229  0.2748  0.7058  0.0526
 1368TIP3    H1 4110   4.379   1.139   1.176  0.5763 -0.0553  0.8184
 1368TIP3    H2 4111   4.271   1.082   1.265  0.1997  1.2237  1.2149
 1369TIP3   OH2 4112   1.247   1.680   1.019 -0.0752  0.9764  0.0969
 1369TIP3    H1 4113   1.328   1.704   0.974  0.9495 -1.0077  0.7327
 1369TIP3    H2 4114   1.190   1.648   0.949 -0.3294  2.3469 -0.3504
 1370TIP3   OH2 4115   0.279   0.119   2.009  0.7589 -0.3052 -0.2260
 1370TIP3    H1 4116   0.260   0.054   1.942  0.1476 -1.1218  0.7193
 1370TIP3    H2 4117   0.246   0.201   1.972 -1.5224 -1.0927 -0.0716
 1371TIP3   OH2 4118   5.058   1.171   1.662 -0.4721  0.6809 -0.6845
 1371TIP3    H1 4119   4.983   1.208   1.708  0.0628 -0.3402  1.1514
 1371TIP3    H2 4120   5.034   1.079   1.648  0.7194  0.0949  0.7598
 1372TIP3   OH2 4121   0.828   5.367   2.249 -0.5039  0.2650  0.6940
 1372TIP3    H1 4122   0.809   5.450   2.292  0.4013 -1.2261  4.3580
 1372TIP3    H2 4123   0.784   5.301   2.303 -1.0249 -1.7357 -1.9401
 1373TIP3   OH2 4124   3.873   3.014   3.452 -0.1290  0.1413 -0.5742
 1373TIP3    H1 4125   3.888   2.975   3.365  0.3223  0.8526 -0.8231
 1373TIP3    H2 4126   3.903   2.947   3.514 -1.1280 -0.6683 -0.9372
 1374TIP3   OH2 4127   6.017   5.205   2.203 -0.0248 -0.2239  0.0479
 1374TIP3    H1 4128   5.955   5.268   2.239 -0.9454 -1.5049  0.8028
 1374TIP3    H2 4129   6.103   5.244   2.218 -0.6035  2.2423 -2.2723
 1375TIP3   OH2 4130   4.993   3.922   1.999  0.0220  1.2944  0.4353
 1375TIP3    H1 4131   4.934   3.907   1.925  0.0531  2.4851  0.1390
 1375TIP3    H2 4132   5.079   3.934   1.960 -0.1105  2.8298  0.5510
 1376TIP3   OH2 4133   5.314   3.025   1.150 -0.3209  0.1855  0.2464
 1376TIP3    H1 4134   5.235   3.029   1.205  0.1842  1.3319  0.9196
 1376TIP3    H2 4135   5.373   3.089   1.189  0.5478  0.0884 -0.8821
 1377TIP3   OH2 4136   1.532   3.496   2.266 -0.4679 -0.2547  0.1354
 1377TIP3    H1 4137   1.458   3.557   2.269 -0.0003  0.3664 -0.4590
 1377TIP3    H2 4138   1.498   3.420   2.220 -0.7786 -0.0221 -0.0269
 1378TIP3   OH2 4139   4.529   4.720   0.149 -0.1831  0.0068  0.7742
 1378TIP3    H1 4140   4.469   4.694   0.218  1.1677  0.5835  2.2385
 1378TIP3    H2 4141   4.568   4.801   0.181 -0.5936  1.1167 -1.3719
 1379TIP3   OH2 4142   3.578   3.332   0.888  0.1819  0.0356  0.3994
 1379TIP3    H1 4143   3.583   3.402   0.824 -0.0327  0.1727  0.5344
 1379TIP3    H2 4144   3.661   3.284   0.877 -0.2293 -0.4728 -0.5849
 1380TIP3   OH2 4145   6.002   2.368   3.997  0.6005 -0.1880  0.3951
 1380TIP3    H1 4146   6.060   2.338   3.927  1.9564 -0.0039  1.3804
 1380TIP3    H2 4147   6.038   2.453   4.023 -0.8037  0.4606  0.3107
 1381TIP3   OH2 4148   2.100   1.664   0.741 -0.3989 -0.2206  0.2557
 1381TIP3    H1 4149   2.031   1.658   0.807 -1.5406 -0.0712 -0.8771
 1381TIP3    H2 4150   2.144   1.747   0.761  0.9415 -1.3697  2.3440
 1382TIP3   OH2 4151   2.312   0.347   2.168 -0.7030  0.2918 -0.0249
 1382TIP3    H1 4152   2.314   0.430   2.121 -2.0407  0.0016 -0.6602
 1382TIP3    H2 4153   2.268   0.367   2.251  0.6533  0.5754  0.6514
 1383TIP3   OH2 4154   0.505   5.756   2.000 -0.3535  0.4460  0.0550
 1383TIP3    H1 4155   0.555   5.822   1.953  0.2175 -0.3115 -0.4265
 1383TIP3    H2 4156   0.419   5.796   2.013 -0.2020  1.0595 -0.7357
 1384TIP3   OH2 4157   3.970   5.751   2.441 -0.3453  0.2046 -0.0706
 1384TIP3    H1 4158   4.030   5.821   2.468  0.3016 -0.2601 -0.2881
 1384TIP3    H2 4159   3.933   5.783   2.358 -0.9251  0.7968  0.4058
 1385TIP3   OH2 4160   3.914   5.616   3.893  0.0431 -0.3626 -0.4221
 1385TIP3    H1 4161   3.870   5.654   3.969 -0.0202 -1.6077  0.1881
 1385TIP3    H2 4162   3.847   5.563   3.851 -0.9704  2.8383 -3.3534
 1386TIP3   OH2 4163   5.142   1.325   2.246 -0.2475 -0.2924  0.9619
 1386TIP3    H1 4164   5.161   1.269   2.171  2.0850  1.0523  0.4361
 1386TIP3    H2 4165   5.084   1.393   2.212  0.8577  0.3518  0.3190
 1387TIP3   OH2 4166   5.810   1.407   3.994 -0.1285  0.4185  0.0414
 1387TIP3    H1 4167   5.883   1.470   3.995 -0.5593  0.9237  0.6674
 1387TIP3    H2 4168   5.851   1.323   4.014  0.2286  0.7752  0.8804
 1388TIP3   OH2 4169   6.152   3.164   2.792  0.6910 -0.4957 -0.6660
 1388TIP3    H1 4170   6.157   3.123   2.705 -1.2425 -1.1543 -0.5105
 1388TIP3    H2 4171   6.097   3.104   2.843  2.4787 -0.5742  1.2979
 1389TIP3   OH2 4172   4.022   4.372   0.573  0.1470  0.2312  0.1299
 1389TIP3    H1 4173   3.929   4.351   0.567  0.0789  0.2779  0.9073
 1389TIP3    H2 4174   4.028   4.435   0.645  0.7985  0.1138  0.1845
 1390TIP3   OH2 4175   3.668   1.333   4.299  0.0435 -0.6099  0.6267
 1390TIP3    H1 4176   3.718   1.398   4.347 -0.9091  1.1992 -0.6773
 1390TIP3    H2 4177   3.581   1.335   4.339 -0.8866  1.2140 -1.2305
 1391TIP3   OH2 4178   0.178   1.617   0.900 -0.2147 -0.4744 -0.2915
 1391TIP3    H1 4179   0.180   1.521   0.905 -0.7479 -0.4895 -0.3366
 1391TIP3    H2 4180   0.098   1.637   0.851 -0.3074  0.0073  0.0490
 1392TIP3   OH2 4181   3.283   4.838   3.204 -0.1479  0.1572 -0.0743
 1392TIP3    H1 4182   3.320   4.870   3.121  2.6084  0.9596  1.3495
 1392TIP3    H2 4183   3.319   4.750   3.214 -0.4670  0.0646  0.2564
 1393TIP3   OH2 4184   5.045   2.624   3.749  0.4426  0.8345 -0.0102
 1393TIP3    H1 4185   4.949   2.633   3.747  0.2135 -0.9411 -2.6305
 1393TIP3    H2 4186   5.074   2.693   3.808 -2.4468  1.4474  0.8779
 1394TIP3   OH2 4187   1.696   4.873   4.900  0.0351  0.5172  0.2187
 1394TIP3    H1 4188   1.750   4.905   4.971  2.2501 -1.5744 -0.3829
 1394TIP3    H2 4189   1.717   4.929   4.826 -1.0665  1.6851  0.7550
 1395TIP3   OH2 4190   5.238   2.987   3.350  0.1578  0.3423 -0.1170
 1395TIP3    H1 4191   5.193   2.945   3.277 -0.5066 -0.3641  0.6812
 1395TIP3    H2 4192   5.185   3.065   3.368 -0.2064  0.0254  0.1987
 1396TIP3   OH2 4193   1.292   0.403   0.140  0.5531  0.0495 -0.3099
 1396TIP3    H1 4194   1.212   0.434   0.183 -0.1966 -1.8127 -0.2742
 1396TIP3    H2 4195   1.347   0.370   0.211  0.0839 -1.3432 -0.5516
 1397TIP3   OH2 4196   4.921   0.524   5.163 -0.1116 -0.3057 -0.6432
 1397TIP3    H1 4197   4.944   0.614   5.141 -1.8003  0.0786 -0.9910
 1397TIP3    H2 4198   4.881   0.489   5.083 -1.5518 -0.5988  0.1580
 1398TIP3   OH2 4199   0.924   5.955   1.368 -0.0073  0.4613 -0.1107
 1398TIP3    H1 4200   0.831   5.978   1.360 -0.4398 -0.4906  1.5696
 1398TIP3    H2 4201   0.957   5.956   1.278 -1.9225 -0.2394 -0.8907
 1399TIP3   OH2 4202   5.138   5.438   1.593  0.2529  0.8171  0.0813
 1399TIP3    H1 4203   5.076   5.405   1.659 -0.0129 -0.4497 -0.7680
 1399TIP3    H2 4204   5.215   5.463   1.644  0.3509 -0.8583  0.8473
 1400TIP3   OH2 4205   6.011   1.379   3.110 -0.3170 -0.1016 -0.1762
 1400TIP3    H1 4206   6.071   1.327   3.163  0.3425  0.9627  0.1457
 1400TIP3    H2 4207   5.964   1.433   3.173 -1.2723 -0.5564 -0.4711
 1401TIP3   OH2 4208   3.930   1.825   4.489  0.1707  0.0046 -0.4563
 1401TIP3    H1 4209   3.960   1.915   4.505 -0.4947  0.6164 -2.4716
 1401TIP3    H2 4210   3.837   1.827   4.509  0.1921 -0.3038 -0.3206
 1402TIP3   OH2 4211   1.332   5.018   5.136 -0.0781  1.2689 -0.0572
 1402TIP3    H1 4212   1.363   4.994   5.048  2.3504  0.7210  0.8568
 1402TIP3    H2 4213   1.345   5.113   5.141  0.1020  1.2507 -0.1726
 1403TIP3   OH2 4214   3.983   3.664   0.270  0.2810  0.1445  0.9151
 1403TIP3    H1 4215   3.994   3.580   0.226  0.1901  0.4595  0.2861
 1403TIP3    H2 4216   3.981   3.642   0.363 -0.4414 -0.6338  0.7268
 1404TIP3   OH2 4217   4.520   4.253   0.173 -0.7869 -0.2827 -0.1171
 1404TIP3    H1 4218   4.431   4.240   0.206 -0.1396  0.7861  2.2581
 1404TIP3    H2 4219   4.552   4.165   0.153 -2.1960 -0.7071 -0.6145
 1405TIP3   OH2 4220   2.727   1.665   3.240  0.4757 -0.1130 -0.2809
 1405TIP3    H1 4221   2.653   1.723   3.256  0.6061  0.0770 -0.3696
 1405TIP3    H2 4222   2.729   1.606   3.316  0.8274  0.5047  0.1932
 1406TIP3   OH2 4223   4.621   0.575   0.623 -0.3766 -0.1018 -0.0875
 1406TIP3    H1 4224   4.558   0.541   0.559  0.0741 -0.1120 -0.5330
 1406TIP3    H2 4225   4.666   0.646   0.578 -2.8730  2.7817  1.5526
 1407TIP3   OH2 4226   0.549   4.709   0.375  0.4476 -0.0730 -0.6913
 1407TIP3    H1 4227   0.463   4.673   0.394  0.6270 -0.8453 -1.3007
 1407TIP3    H2 4228   0.591   4.717   0.461  0.4364 -1.4259 -0.5485
 1408TIP3   OH2 4229   4.817   1.433   2.908 -0.1209  0.6263  0.2565
 1408TIP3    H1 4230   4.796   1.525   2.893  1.2454  0.8000 -0.8346
 1408TIP3    H2 4231   4.732   1.388   2.908 -0.8037  1.8756  0.8251
 1409TIP3   OH2 4232   2.551   3.647   1.026 -0.1461 -0.4523  0.1234
 1409TIP3    H1 4233   2.637   3.689   1.020 -0.3021  0.3465  2.5410
 1409TIP3    H2 4234   2.489   3.720   1.017 -0.4898 -0.5801  1.3644
 1410TIP3   OH2 4235   0.429   4.087  -0.012 -0.4209 -0.4490  0.0372
 1410TIP3    H1 4236   0.424   4.080   0.083 -0.2401 -1.8375 -0.0360
 1410TIP3    H2 4237   0.410   4.179  -0.031 -2.5754 -0.5787  1.2858
 1411TIP3   OH2 4238   3.151   0.464   3.255 -0.1368  0.3120 -0.1100
 1411TIP3    H1 4239   3.148   0.414   3.336  2.6292 -0.5483 -0.4297
 1411TIP3    H2 4240   3.173   0.399   3.188 -0.4061  1.3334 -1.2217
 1412TIP3   OH2 4241   5.859   0.645   3.675 -0.0714 -0.2996  0.1599
 1412TIP3    H1 4242   5.875   0.551   3.673 -0.2736 -0.3371  0.2701
 1412TIP3    H2 4243   5.938   0.682   3.715 -1.1633 -0.6971  2.9114
 1413TIP3   OH2 4244   0.163   5.960   2.900 -0.0769  0.3796 -0.6808
 1413TIP3    H1 4245   0.177   5.887   2.839 -0.9389 -1.6271  1.3947
 1413TIP3    H2 4246   0.230   5.949   2.967 -2.2561 -0.6035  1.4690
 1414TIP3   OH2 4247   3.898   3.046   2.370  0.1051  0.0449  0.3024
 1414TIP3    H1 4248   3.924   3.118   2.313  0.0357  1.3418  1.8310
 1414TIP3    H2 4249   3.972   3.034   2.429 -0.0073 -0.9643  0.2608
 1415TIP3   OH2 4250   2.426   4.948   2.205 -0.1546 -0.1898  0.2825
 1415TIP3    H1 4251   2.464   4.940   2.118 -1.8805 -2.8037 -0.3395
 1415TIP3    H2 4252   2.497   4.925   2.265  0.6950  0.4014 -0.4630
 1416TIP3   OH2 4253   2.787   1.286   2.834  0.5972 -0.0014 -0.2789
 1416TIP3    H1 4254   2.808   1.358   2.894  1.6156  1.0124 -1.7679
 1416TIP3    H2 4255   2.864   1.229   2.838 -0.2468 -1.1075  0.9678
 1417TIP3   OH2 4256   5.341   2.215   2.557  0.2614 -0.4944 -0.1579
 1417TIP3    H1 4257   5.419   2.181   2.600  0.5081  0.7160  0.3786
 1417TIP3    H2 4258   5.352   2.310   2.557 -1.0178 -0.3238 -0.4404
 1418TIP3   OH2 4259   3.809   2.469   3.262 -0.4140  0.2135 -0.3359
 1418TIP3    H1 4260   3.877   2.439   3.322 -0.6091 -0.3399 -0.3900
 1418TIP3    H2 4261   3.780   2.553   3.298  0.1143  0.3277 -0.1708
 1419TIP3   OH2 4262   2.676   5.979   2.641  0.4214 -0.0657  0.0203
 1419TIP3    H1 4263   2.606   5.939   2.693 -0.2953  1.9546  0.7122
 1419TIP3    H2 4264   2.657   5.953   2.551 -2.2614  1.7242 -0.0487
 1420TIP3   OH2 4265   5.379   2.400   3.814 -0.0524 -0.0695 -0.0812
 1420TIP3    H1 4266   5.382   2.496   3.808 -1.3006  0.0464  0.5815
 1420TIP3    H2 4267   5.451   2.370   3.760  1.3342  1.2868  0.9348
 1421TIP3   OH2 4268   3.355   4.052   0.089 -0.0129 -0.3473 -0.1283
 1421TIP3    H1 4269   3.269   4.077   0.057  0.4274  1.4803 -0.0093
 1421TIP3    H2 4270   3.392   3.998   0.020  0.5592  2.7461 -2.4604
 1422TIP3   OH2 4271   3.279   5.273   5.035 -0.4960 -1.2880 -0.2718
 1422TIP3    H1 4272   3.279   5.331   4.959  1.1530  0.0127  0.6318
 1422TIP3    H2 4273   3.201   5.299   5.085 -0.2214 -0.3715 -0.2873
 1423TIP3   OH2 4274   3.683   3.772   4.123 -0.6100  0.8274 -0.2193
 1423TIP3    H1 4275   3.707   3.864   4.115 -0.5292  0.7926 -0.3805
 1423TIP3    H2 4276   3.671   3.758   4.217 -0.1254  0.8764 -0.1484
 1424TIP3   OH2 4277   3.376   0.169   1.469 -0.1746  0.2478  0.2069
 1424TIP3    H1 4278   3.392   0.084   1.428 -2.7142  0.1928 -0.8066
 1424TIP3    H2 4279   3.305   0.153   1.531 -0.9935  1.6988 -0.3243
 1425TIP3   OH2 4280   0.927   5.641   4.854  0.2468  0.0084  0.3548
 1425TIP3    H1 4281   0.848   5.628   4.907  0.2395  0.6598  0.5079
 1425TIP3    H2 4282   0.899   5.696   4.781  0.5388  0.1873  0.3738
 1426TIP3   OH2 4283   0.853   4.211   2.433 -0.1590  0.3097 -0.3099
 1426TIP3    H1 4284   0.924   4.149   2.449  0.2890  0.8947  0.0322
 1426TIP3    H2 4285   0.889   4.296   2.459 -0.4231  0.8716 -1.7049
 1427TIP3   OH2 4286   1.482   0.415   4.478  0.1843  0.3565  0.2627
 1427TIP3    H1 4287   1.526   0.338   4.514 -0.7517 -0.2045  0.2288
 1427TIP3    H2 4288   1.492   0.406   4.383 -0.1650  0.1278  0.2465
 1428TIP3   OH2 4289   3.145   0.880   0.531 -0.0349  0.2796 -0.1651
 1428TIP3    H1 4290   3.172   0.883   0.439  1.1368 -0.4214  0.1366
 1428TIP3    H2 4291   3.100   0.796   0.541  1.0571 -0.2875  0.1943
 1429TIP3   OH2 4292   3.339   4.576   3.932  0.4549  0.5853  0.6469
 1429TIP3    H1 4293   3.344   4.484   3.958 -0.4180  0.0691 -0.8741
 1429TIP3    H2 4294   3.430   4.603   3.920  0.6830 -0.4221 -0.0095
 1430TIP3   OH2 4295   5.817   3.641  -0.010  0.1025  0.0754 -0.2846
 1430TIP3    H1 4296   5.773   3.726  -0.011 -1.6281 -0.7919 -0.8013
 1430TIP3    H2 4297   5.873   3.644   0.067 -0.6295  1.3366  0.2217
 1431TIP3   OH2 4298   0.210   3.585   4.441  0.8901 -0.2879 -0.1480
 1431TIP3    H1 4299   0.159   3.639   4.381  1.4766  0.8879  0.3673
 1431TIP3    H2 4300   0.213   3.637   4.522 -0.3492 -2.0594  1.1056
 1432TIP3   OH2 4301   5.766   5.903   1.389  0.5104 -0.2537  0.3033
 1432TIP3    H1 4302   5.759   5.992   1.424  0.0017 -0.1382 -0.0898
 1432TIP3    H2 4303   5.845   5.906   1.334  1.4910 -0.5131  1.6258
 1433TIP3   OH2 4304   0.503   1.507   4.586  0.1716 -0.2628  0.6129
 1433TIP3    H1 4305   0.473   1.529   4.497  0.4738  1.8383  0.9936
 1433TIP3    H2 4306   0.591   1.472   4.574  0.8458  1.5138  0.1884
 1434TIP3   OH2 4307   3.914   0.687   3.808  0.4510  0.1640  0.2978
 1434TIP3    H1 4308   3.952   0.696   3.720  0.2758 -0.7243  0.1224
 1434TIP3    H2 4309   3.903   0.592   3.820  1.0072  0.2289  1.5092
 1435TIP3   OH2 4310   3.694   2.669   3.405  0.2287 -0.6598  0.0860
 1435TIP3    H1 4311   3.627   2.715   3.356  0.8945  1.1828  0.8315
 1435TIP3    H2 4312   3.660   2.665   3.495  0.9571 -0.0048  0.3990
 1436TIP3   OH2 4313   3.390   1.499   4.538  0.0996  0.2922  0.5367
 1436TIP3    H1 4314   3.310   1.454   4.566  0.5740  0.2649  1.9115
 1436TIP3    H2 4315   3.416   1.551   4.614  2.4604 -1.1988  0.8426
 1437TIP3   OH2 4316   1.157   1.858   2.348 -0.1504  0.0521  0.0342
 1437TIP3    H1 4317   1.198   1.944   2.350 -0.7324  0.3418 -0.0996
 1437TIP3    H2 4318   1.221   1.799   2.387  0.8354  0.3001 -1.1569
 1438TIP3   OH2 4319   3.208   1.563   4.033  0.2875 -0.6490 -0.0360
 1438TIP3    H1 4320   3.117   1.543   4.054  0.3178 -1.5264 -0.7006
 1438TIP3    H2 4321   3.259   1.516   4.099  0.2677 -0.3777  0.1729
 1439TIP3   OH2 4322   2.077   5.189   0.121  0.6431 -0.2254 -0.1560
 1439TIP3    H1 4323   2.070   5.285   0.123  2.4494 -0.0685  0.6617
 1439TIP3    H2 4324   2.039   5.161   0.205  0.8498 -0.1554 -0.0378
 1440TIP3   OH2 4325   1.852   2.810   1.228  0.1887 -0.3789 -0.1817
 1440TIP3    H1 4326   1.812   2.864   1.159 -2.0402  1.6859  2.4816
 1440TIP3    H2 4327   1.780   2.758   1.263  1.3287 -1.6216  0.3905
 1441TIP3   OH2 4328   1.598   3.526   2.581  0.3288 -0.5116 -0.0715
 1441TIP3    H1 4329   1.597   3.449   2.639 -0.1039  0.0474  0.6766
 1441TIP3    H2 4330   1.544   3.499   2.507 -0.3261 -0.7217  0.4703
 1442TIP3   OH2 4331   2.709   3.549   0.704  0.4381  0.1065  0.1448
 1442TIP3    H1 4332   2.625   3.592   0.688  0.9859  0.7207 -1.3084
 1442TIP3    H2 4333   2.765   3.618   0.740  0.1265 -0.5010  1.8932
 1443TIP3   OH2 4334   5.612   2.201   1.475  0.2148 -0.4602  0.2944
 1443TIP3    H1 4335   5.526   2.174   1.443 -0.2819  0.7675  0.5661
 1443TIP3    H2 4336   5.672   2.181   1.403 -0.8702  2.2242 -1.4720
 1444TIP3   OH2 4337   5.454   4.388   0.966 -0.5709 -0.2118 -0.7016
 1444TIP3    H1 4338   5.425   4.479   0.961 -2.4207 -0.6714  0.6695
 1444TIP3    H2 4339   5.529   4.384   0.907  1.0326  2.7584  0.8937
 1445TIP3   OH2 4340   1.033   3.995   2.441 -0.9374  0.2599 -0.1501
 1445TIP3    H1 4341   1.002   3.909   2.411  0.2636 -0.5176  0.7461
 1445TIP3    H2 4342   1.045   3.984   2.535 -0.3188  1.2771 -0.0966
 1446TIP3   OH2 4343   5.585   3.485   4.497  0.1773  0.0467  0.0733
 1446TIP3    H1 4344   5.623   3.434   4.425 -1.1326 -1.7404  0.5767
 1446TIP3    H2 4345   5.660   3.504   4.555  1.3350  1.9116 -1.8903
 1447TIP3   OH2 4346   2.535   2.923   1.841 -0.2724 -0.1065  0.2714
 1447TIP3    H1 4347   2.445   2.909   1.811 -0.4494  1.3221  0.0749
 1447TIP3    H2 4348   2.527   2.962   1.927  0.2113 -1.5849  1.0264
 1448TIP3   OH2 4349   1.311   0.885   1.399 -0.1085  0.5107  0.2010
 1448TIP3    H1 4350   1.271   0.942   1.333 -3.0257 -0.2937  1.1124
 1448TIP3    H2 4351   1.405   0.899   1.390 -0.5747  2.9172 -1.8363
 1449TIP3   OH2 4352   5.611   3.853   1.738  0.2629  0.7077 -0.7597
 1449TIP3    H1 4353   5.661   3.931   1.716  0.3784  1.1839  1.0366
 1449TIP3    H2 4354   5.638   3.832   1.827 -0.2047 -1.0538 -0.9927
 1450TIP3   OH2 4355   2.354   5.214   0.558 -0.2921 -0.0701  0.3085
 1450TIP3    H1 4356   2.430   5.202   0.502  0.4447  2.5387  0.6359
 1450TIP3    H2 4357   2.299   5.277   0.511 -1.3566 -0.4922  0.9422
 1451TIP3   OH2 4358   5.623   0.277   0.042 -0.2281 -0.0381  0.1578
 1451TIP3    H1 4359   5.648   0.369   0.052 -0.4731  0.0230  0.2278
 1451TIP3    H2 4360   5.613   0.265  -0.052 -1.3181  0.3184  0.2113
 1452TIP3   OH2 4361   2.258   5.689   5.031  0.5022  0.4294 -0.5499
 1452TIP3    H1 4362   2.250   5.732   4.946  0.8321 -1.0292 -1.3561
 1452TIP3    H2 4363   2.245   5.596   5.012  2.1591 -0.1068  0.7259
 1453TIP3   OH2 4364   4.944   2.225   3.747 -0.1072  0.1443  0.0884
 1453TIP3    H1 4365   4.961   2.305   3.796 -1.8769  1.9461 -2.0201
 1453TIP3    H2 4366   5.024   2.210   3.696 -0.0031  0.9529  0.0101
 1454TIP3   OH2 4367   0.683   5.146   2.396  0.0600  0.0691  0.2465
 1454TIP3    H1 4368   0.724   5.091   2.464  0.2390  1.1334  1.0360
 1454TIP3    H2 4369   0.611   5.189   2.441 -0.8369 -0.4282 -0.6841
 1455TIP3   OH2 4370   2.595   4.600   4.417  0.3855  0.6640  0.0475
 1455TIP3    H1 4371   2.630   4.649   4.342  0.1526 -1.6299 -1.6716
 1455TIP3    H2 4372   2.673   4.573   4.467  0.7440  0.1319 -0.7734
 1456TIP3   OH2 4373   2.052   0.780   2.371  0.3163 -0.5188  0.2498
 1456TIP3    H1 4374   2.112   0.852   2.392  0.1649 -0.5062  0.6558
 1456TIP3    H2 4375   2.066   0.717   2.441 -0.3238 -0.4013  0.4861
 1457TIP3   OH2 4376   2.925   0.440   4.541 -0.1081 -0.0162 -0.4885
 1457TIP3    H1 4377   2.900   0.397   4.623  1.6579 -0.3448 -0.0809
 1457TIP3    H2 4378   3.019   0.455   4.549 -0.0445  0.7051 -2.1219
 1458TIP3   OH2 4379   0.975   4.474   4.924  0.4654  0.5739  0.1699
 1458TIP3    H1 4380   1.046   4.449   4.983  0.3581  1.1156  0.5395
 1458TIP3    H2 4381   0.960   4.566   4.943 -1.4199  0.0892  1.2522
 1459TIP3   OH2 4382   6.285   3.527   2.671  0.5675 -0.2978  0.1381
 1459TIP3    H1 4383   6.338   3.493   2.599  0.4321  1.2411 -0.7489
 1459TIP3    H2 4384   6.332   3.502   2.750  1.5783 -0.6383 -0.5559
 1460TIP3   OH2 4385   3.359   4.846   4.080 -0.0289 -0.7424 -0.0856
 1460TIP3    H1 4386   3.383   4.858   4.172 -1.7230 -1.2215  0.4659
 1460TIP3    H2 4387   3.325   4.757   4.075  1.6189 -1.3507 -1.5840
 1461TIP3   OH2 4388   5.445   3.523   3.612  0.0174  0.5871  0.2045
 1461TIP3    H1 4389   5.360   3.538   3.569  0.6297  1.6221 -0.6896
 1461TIP3    H2 4390   5.436   3.564   3.698 -0.4119  0.6109  0.1504
 1462TIP3   OH2 4391   5.328   4.775   0.108  0.0146 -0.0062 -0.3483
 1462TIP3    H1 4392   5.299   4.691   0.144 -0.2959  0.0580 -0.4493
 1462TIP3    H2 4393   5.346   4.757   0.016  0.1506 -0.0112 -0.3203
 1463TIP3   OH2 4394   1.084   5.419   3.022  0.5759 -0.4439 -0.0371
 1463TIP3    H1 4395   1.175   5.445   3.034  0.7635 -1.4570  0.9358
 1463TIP3    H2 4396   1.033   5.496   3.048  1.1256  0.8620 -2.5132
 1464TIP3   OH2 4397   3.298   0.436   4.050 -0.3751 -0.0402 -0.0500
 1464TIP3    H1 4398   3.305   0.439   4.146  0.3519 -0.1257 -0.0957
 1464TIP3    H2 4399   3.204   0.441   4.033 -0.5930 -1.2154  0.7048
 1465TIP3   OH2 4400   2.576   2.407   3.595  0.0002  0.0024 -0.2304
 1465TIP3    H1 4401   2.579   2.367   3.508 -0.8410  1.8854 -1.2018
 1465TIP3    H2 4402   2.484   2.400   3.621  0.2857 -0.7406  0.6273
 1466TIP3   OH2 4403   5.692   5.021   3.423 -0.4553  0.1392  0.2332
 1466TIP3    H1 4404   5.640   5.002   3.501 -1.2975  1.1622 -0.0516
 1466TIP3    H2 4405   5.633   5.001   3.350  0.5797 -1.5442 -0.1902
 1467TIP3   OH2 4406   2.331   1.945   1.658 -0.7411  0.2712 -0.0908
 1467TIP3    H1 4407   2.300   1.868   1.706  0.7714  0.3685  1.1108
 1467TIP3    H2 4408   2.341   1.915   1.568 -0.0227 -0.9865  0.3901
 1468TIP3   OH2 4409   5.422   3.109   2.732 -0.5334  0.3238  0.1142
 1468TIP3    H1 4410   5.475   3.161   2.671 -1.2413  0.0052 -0.7903
 1468TIP3    H2 4411   5.435   3.151   2.817  1.8115 -0.2296  0.0901
 1469TIP3   OH2 4412   6.134   3.347   0.735  0.1592 -0.3552 -0.4095
 1469TIP3    H1 4413   6.062   3.373   0.793  0.7382  0.8009 -0.1632
 1469TIP3    H2 4414   6.096   3.281   0.677 -0.4716 -1.4566  1.1957
 1470TIP3   OH2 4415   6.091   3.681   4.538  0.1792  0.4275 -0.5123
 1470TIP3    H1 4416   6.064   3.600   4.495  2.2404 -0.0000 -1.1079
 1470TIP3    H2 4417   6.117   3.654   4.626 -2.3994  1.0422  0.5365
 1471TIP3   OH2 4418   6.283   5.543   0.600 -0.3672 -0.6912  0.1826
 1471TIP3    H1 4419   6.230   5.563   0.677 -1.4341 -1.0458 -0.4315
 1471TIP3    H2 4420   6.230   5.480   0.551  0.8820 -1.4921 -0.1888
 1472TIP3   OH2 4421   0.832   5.637   3.933 -0.4915 -0.3379 -0.1104
 1472TIP3    H1 4422   0.794   5.646   3.846  0.3443 -2.8053 -0.8172
 1472TIP3    H2 4423   0.777   5.573   3.978 -0.2816  0.0908  0.8000
 1473TIP3   OH2 4424   5.082   4.213   4.634  0.4579 -0.1468  0.0895
 1473TIP3    H1 4425   5.148   4.169   4.581  0.5083  0.5671 -0.4478
 1473TIP3    H2 4426   5.007   4.153   4.632  0.4247 -0.0971 -0.8769
 1474TIP3   OH2 4427   2.367   5.161   2.344 -0.0606  0.2011 -0.1037
 1474TIP3    H1 4428   2.429   5.227   2.312  0.9591 -1.2163 -1.1682
 1474TIP3    H2 4429   2.392   5.081   2.299 -0.5265 -1.2142  2.0293
 1475TIP3   OH2 4430   5.764   4.789   1.897  0.4615  0.6962  0.2550
 1475TIP3    H1 4431   5.679   4.809   1.937  0.0890 -0.1190 -0.1139
 1475TIP3    H2 4432   5.802   4.875   1.879  1.0861  1.1656  3.2148
 1476TIP3   OH2 4433   4.217   5.018   1.279 -0.4251  0.3418 -0.0876
 1476TIP3    H1 4434   4.264   4.958   1.222  2.7006  1.1218  1.4365
 1476TIP3    H2 4435   4.172   4.962   1.342  0.4537 -0.4495 -0.1490
 1477TIP3   OH2 4436   6.208   4.996   0.371 -0.1811 -0.4537  0.0292
 1477TIP3    H1 4437   6.121   5.001   0.410  0.0388  0.3227  0.4487
 1477TIP3    H2 4438   6.206   5.060   0.300  0.0775 -0.3574  0.1076
 1478TIP3   OH2 4439   0.284   0.679   3.912 -0.4190  0.3076 -0.3359
 1478TIP3    H1 4440   0.225   0.642   3.977  1.4164 -0.1503  1.1303
 1478TIP3    H2 4441   0.261   0.772   3.909 -1.4456  0.0720 -0.0798
 1479TIP3   OH2 4442   1.561   4.186   2.935 -0.1795  0.0176 -0.1159
 1479TIP3    H1 4443   1.595   4.248   2.999 -1.5492  0.8779 -0.1719
 1479TIP3    H2 4444   1.533   4.241   2.861 -1.3190 -0.6677 -0.2187
 1480TIP3   OH2 4445   3.381   2.763   0.955  0.1240 -0.2811 -0.0724
 1480TIP3    H1 4446   3.318   2.690   0.949  1.2111 -1.1991 -0.7157
 1480TIP3    H2 4447   3.331   2.835   0.994 -0.4169 -2.0391  2.8103
 1481TIP3   OH2 4448   6.089   3.737   1.974 -0.7098 -0.0931  0.0082
 1481TIP3    H1 4449   6.055   3.674   1.910 -0.9761  0.1600 -0.0997
 1481TIP3    H2 4450   6.112   3.814   1.922 -0.0853 -0.2102  0.0955
 1482TIP3   OH2 4451   5.526   1.201   0.435 -0.3958  0.3985 -0.2157
 1482TIP3    H1 4452   5.495   1.134   0.374 -0.3684 -0.0449  0.2532
 1482TIP3    H2 4453   5.513   1.163   0.521 -0.8405  1.2032  0.0771
 1483TIP3   OH2 4454   2.258   4.753   2.065 -0.2257 -0.9437  0.3322
 1483TIP3    H1 4455   2.297   4.834   2.098 -2.5015  0.3828 -0.0078
 1483TIP3    H2 4456   2.281   4.751   1.972 -2.1294  0.6519 -0.2346
 1484TIP3   OH2 4457   5.335   3.377   4.192  0.6470 -0.8088 -0.2384
 1484TIP3    H1 4458   5.408   3.319   4.173  1.1753 -0.4145  0.5301
 1484TIP3    H2 4459   5.282   3.377   4.112  0.4856 -2.5442 -0.1601
 1485TIP3   OH2 4460   0.270   0.348   4.139  0.3682  0.3242  0.3791
 1485TIP3    H1 4461   0.352   0.379   4.099  0.0605  0.2241 -0.3468
 1485TIP3    H2 4462   0.219   0.428   4.152 -0.0159  0.2458 -0.5579
 1486TIP3   OH2 4463   2.834   0.803   0.975  0.4640  0.0873 -0.1590
 1486TIP3    H1 4464   2.919   0.764   0.993  1.1180  0.8165 -1.4834
 1486TIP3    H2 4465   2.844   0.895   0.999 -0.5239 -0.1562  1.3218
 1487TIP3   OH2 4466   6.028   1.108   1.852 -0.2692 -0.2981  0.5910
 1487TIP3    H1 4467   6.040   1.165   1.927  1.9518  2.1022 -1.3830
 1487TIP3    H2 4468   6.108   1.120   1.800 -1.8109 -1.5614 -2.3008
 1488TIP3   OH2 4469   1.412   1.776   4.529 -0.0635 -0.2761 -0.3401
 1488TIP3    H1 4470   1.412   1.685   4.499  0.5675  0.1723 -1.7640
 1488TIP3    H2 4471   1.327   1.785   4.573  0.4634 -1.9397  1.1666
 1489TIP3   OH2 4472   4.411   0.252   1.684 -0.0609  0.2657  0.5032
 1489TIP3    H1 4473   4.321   0.222   1.670  0.6073 -1.0084 -1.6764
 1489TIP3    H2 4474   4.410   0.344   1.659 -0.4135 -0.2285 -1.4570
 1490TIP3   OH2 4475   2.790   0.066   1.308  0.1101  0.4676 -0.8396
 1490TIP3    H1 4476   2.701   0.102   1.307 -0.0811  0.0790  0.5029
 1490TIP3    H2 4477   2.836   0.113   1.238 -0.8223  1.4962 -0.7858
 1491TIP3   OH2 4478   5.759   2.255   0.464 -0.7106 -0.7069 -0.6374
 1491TIP3    H1 4479   5.680   2.247   0.518  0.7379  0.0562  1.7316
 1491TIP3    H2 4480   5.827   2.213   0.516  0.8378  0.3502 -1.7393
 1492TIP3   OH2 4481   4.653   5.120   2.123 -0.1742 -0.7353 -0.3609
 1492TIP3    H1 4482   4.604   5.188   2.076 -0.9021  0.3676  1.8429
 1492TIP3    H2 4483   4.638   5.040   2.072 -0.1838  0.5134 -2.4471
 1493TIP3   OH2 4484   1.439   4.392   4.752 -0.7575  0.0401 -0.6766
 1493TIP3    H1 4485   1.469   4.436   4.832 -2.8694 -0.0823  0.2722
 1493TIP3    H2 4486   1.512   4.336   4.726  0.1777  0.4703  0.8884
 1494TIP3   OH2 4487   1.477   2.016   3.845 -0.1835  0.1855  0.3256
 1494TIP3    H1 4488   1.518   1.972   3.919 -0.7644 -1.3535 -0.2251
 1494TIP3    H2 4489   1.399   2.058   3.883 -0.5139 -0.6451  0.5926
 1495TIP3   OH2 4490   0.154   2.280   4.418 -0.5901 -0.7257  0.4202
 1495TIP3    H1 4491   0.106   2.304   4.498  1.0914  0.3986  1.1515
 1495TIP3    H2 4492   0.183   2.364   4.381  0.6118 -1.3421 -0.1012
 1496TIP3   OH2 4493   5.275   3.311   1.586  0.2629 -0.3855 -0.1739
 1496TIP3    H1 4494   5.204   3.287   1.646  0.1590  0.7347  0.1714
 1496TIP3    H2 4495   5.241   3.291   1.499  0.4048 -2.0044  0.1189
 1497TIP3   OH2 4496   2.551   5.339   1.370 -0.0270  0.2104 -0.3683
 1497TIP3    H1 4497   2.636   5.310   1.337  0.2203  1.0015 -0.4438
 1497TIP3    H2 4498   2.538   5.290   1.451 -0.7402 -1.9381 -1.6938
 1498TIP3   OH2 4499   0.062   2.802   0.768  0.1743 -0.2698  0.5152
 1498TIP3    H1 4500   0.018   2.886   0.757  0.8897  0.0202 -0.2117
 1498TIP3    H2 4501   0.155   2.821   0.755  0.3701 -1.1313  0.5619
 1499TIP3   OH2 4502   5.764   2.484   4.258  0.2699 -0.0994 -0.9551
 1499TIP3    H1 4503   5.761   2.528   4.343 -0.4371 -0.5392 -0.7431
 1499TIP3    H2 4504   5.700   2.531   4.205  0.3905 -0.1071 -1.1058
 1500TIP3   OH2 4505   3.806   0.594   4.264  0.2466  0.2177  0.4628
 1500TIP3    H1 4506   3.787   0.558   4.178  2.0977  0.7481 -0.1993
 1500TIP3    H2 4507   3.745   0.548   4.323 -2.4383  1.1987 -1.3261
 1501TIP3   OH2 4508   2.730   4.572   1.524 -0.6860 -0.1037  0.7338
 1501TIP3    H1 4509   2.755   4.524   1.604 -1.8084  0.1640  1.2643
 1501TIP3    H2 4510   2.763   4.518   1.453  2.3727  0.7462  1.3526
 1502TIP3   OH2 4511   0.592   1.674   4.265 -0.0236  0.0361  0.5650
 1502TIP3    H1 4512   0.506   1.711   4.286  0.4496  1.5775 -0.1543
 1502TIP3    H2 4513   0.572   1.584   4.237 -1.3398  0.1984  0.8868
 1503TIP3   OH2 4514   4.451   1.694   0.333  0.4736  0.1353  0.1734
 1503TIP3    H1 4515   4.485   1.609   0.307 -0.6853  0.0627 -1.1879
 1503TIP3    H2 4516   4.377   1.673   0.391  2.4620  0.2900  2.9635
 1504TIP3   OH2 4517   0.236   4.236   2.014  0.4444  0.4402  0.2471
 1504TIP3    H1 4518   0.300   4.206   2.079  0.2642 -1.7038 -0.4809
 1504TIP3    H2 4519   0.226   4.162   1.954 -0.5797  1.7766 -1.3296
 1505TIP3   OH2 4520   2.662   2.584   4.740 -0.0429  0.1903 -0.3978
 1505TIP3    H1 4521   2.706   2.530   4.674 -3.6407 -0.3007 -2.6924
 1505TIP3    H2 4522   2.627   2.521   4.803  0.5417  0.3779  0.1228
 1506TIP3   OH2 4523   6.201   1.434   1.922 -0.3422 -0.2840 -0.1038
 1506TIP3    H1 4524   6.281   1.460   1.968  0.2999 -0.9464 -0.8068
 1506TIP3    H2 4525   6.223   1.444   1.829 -1.6020  1.0121 -0.2940
 1507TIP3   OH2 4526   3.399   5.810   2.472  0.2867  0.0948 -0.4142
 1507TIP3    H1 4527   3.419   5.753   2.398 -1.6386 -0.6469 -0.4193
 1507TIP3    H2 4528   3.452   5.775   2.544  2.4559  1.0491 -1.4772
 1508TIP3   OH2 4529   2.045   5.038   1.252 -0.1462 -0.2837  0.0536
 1508TIP3    H1 4530   2.090   5.087   1.321 -0.8704  1.3014 -0.5329
 1508TIP3    H2 4531   2.108   5.036   1.180 -0.2947  0.2576 -0.0982
 1509TIP3   OH2 4532   1.391   2.893   0.676  0.1019  0.2866  0.0365
 1509TIP3    H1 4533   1.308   2.920   0.714  0.0507 -0.4861  0.4976
 1509TIP3    H2 4534   1.424   2.972   0.632 -0.7560  0.6629  0.0421
 1510TIP3   OH2 4535   0.485   2.444   3.681  0.2992 -0.0239  1.0410
 1510TIP3    H1 4536   0.475   2.517   3.742 -0.8134  0.6493  0.0987
 1510TIP3    H2 4537   0.491   2.485   3.595 -1.2629 -1.0319  0.3976
 1511TIP3   OH2 4538   3.480   4.078   2.611 -0.0743  0.0182 -0.8176
 1511TIP3    H1 4539   3.494   3.999   2.664  1.1207 -0.6244 -2.0399
 1511TIP3    H2 4540   3.516   4.057   2.525 -0.2794  1.6885 -1.3595
 1512TIP3   OH2 4541   1.986   5.434   2.129 -0.1675 -0.4169  0.0494
 1512TIP3    H1 4542   1.912   5.429   2.069 -0.3037  0.2893  0.1545
 1512TIP3    H2 4543   2.023   5.346   2.129  0.0139 -0.3489 -1.2835
 1513TIP3   OH2 4544   5.710   5.925   3.504  0.3196  0.0505 -0.1481
 1513TIP3    H1 4545   5.671   5.935   3.418  0.4533 -0.2239 -0.2417
 1513TIP3    H2 4546   5.753   6.009   3.521  0.4067  0.0602 -0.4078
 1514TIP3   OH2 4547   6.031   4.197   4.392 -0.4773 -0.0717  0.4560
 1514TIP3    H1 4548   5.974   4.121   4.403  1.4133 -1.5602  0.3837
 1514TIP3    H2 4549   6.013   4.228   4.304  0.5617 -2.0772 -0.5318
 1515TIP3   OH2 4550   1.118   2.242   0.469  0.0679  0.0716  0.4555
 1515TIP3    H1 4551   1.052   2.275   0.531  0.2768 -2.2261  2.0335
 1515TIP3    H2 4552   1.144   2.157   0.505  1.0865 -0.8465 -2.2048
 1516TIP3   OH2 4553   1.986   1.075   4.160  0.1739  0.1612  0.4566
 1516TIP3    H1 4554   1.900   1.034   4.172  0.9974 -1.4798  0.9896
 1516TIP3    H2 4555   1.982   1.115   4.073  0.1478 -3.2702 -1.2799
 1517TIP3   OH2 4556   3.391   2.053   4.841 -0.4898 -0.3443  0.2903
 1517TIP3    H1 4557   3.335   1.976   4.832 -2.0289  0.7639 -0.1356
 1517TIP3    H2 4558   3.362   2.112   4.771  1.3134  0.2400 -0.0066
 1518TIP3   OH2 4559   3.336   3.754   0.730 -0.3116 -0.5113  0.2656
 1518TIP3    H1 4560   3.260   3.699   0.711 -0.6258 -0.0394  0.1348
 1518TIP3    H2 4561   3.314   3.796   0.814 -0.9973  0.9785 -0.6075
 1519TIP3   OH2 4562   1.024   3.372   4.074  0.0118  0.2082  0.1812
 1519TIP3    H1 4563   0.961   3.444   4.082  0.9201  0.9089  1.6266
 1519TIP3    H2 4564   1.087   3.403   4.008 -0.8000 -0.2416 -0.8300
 1520TIP3   OH2 4565   3.838   3.944   1.631 -0.2307 -0.1136 -0.6570
 1520TIP3    H1 4566   3.853   3.928   1.538 -0.1886 -0.8510 -0.5346
 1520TIP3    H2 4567   3.765   4.005   1.635 -1.4293 -1.4635 -1.1540
 1521TIP3   OH2 4568   1.984   3.869   0.590 -0.2464 -0.1965  0.1192
 1521TIP3    H1 4569   1.983   3.924   0.512  1.5867  1.0636  0.9309
 1521TIP3    H2 4570   1.907   3.897   0.640 -0.6150 -0.0043 -0.5464
 1522TIP3   OH2 4571   4.536   3.326   4.135 -0.2321 -0.2637 -0.3094
 1522TIP3    H1 4572   4.528   3.291   4.046  2.7459 -2.2930  0.0866
 1522TIP3    H2 4573   4.610   3.387   4.131 -2.2082  2.3804  0.1592
 1523TIP3   OH2 4574   2.482   0.250   3.708 -0.1434 -0.0187 -0.2076
 1523TIP3    H1 4575   2.570   0.261   3.744 -0.0934 -2.4888  0.6110
 1523TIP3    H2 4576   2.492   0.267   3.615  0.7557  1.7029  0.1697
 1524TIP3   OH2 4577   4.864   0.696   1.665  0.1941  0.4590 -0.1030
 1524TIP3    H1 4578   4.941   0.747   1.690 -0.5720  1.1284  1.0018
 1524TIP3    H2 4579   4.845   0.642   1.742 -0.1004 -0.1272 -0.5761
 1525TIP3   OH2 4580   5.394   2.994   1.443  0.4203 -0.4121 -0.0076
 1525TIP3    H1 4581   5.327   3.049   1.403  2.1900  3.4361  1.8056
 1525TIP3    H2 4582   5.460   2.983   1.375  0.2650  0.2108 -0.2690
 1526TIP3   OH2 4583   4.734   1.230   0.380  0.5803 -0.0557 -0.2198
 1526TIP3    H1 4584   4.747   1.291   0.452 -1.6047  0.6223 -0.3184
 1526TIP3    H2 4585   4.685   1.157   0.418 -0.7290  0.3753 -0.9913
 1527TIP3   OH2 4586   6.073   2.795   0.527 -0.1553  0.0508 -1.0228
 1527TIP3    H1 4587   6.158   2.758   0.502  0.0477 -0.1938 -0.0175
 1527TIP3    H2 4588   6.065   2.776   0.621 -0.5403  1.5689 -0.7120
 1528TIP3   OH2 4589   3.174   0.702   2.736 -0.4253 -0.3363 -1.1399
 1528TIP3    H1 4590   3.162   0.622   2.788  0.6600  1.3714  2.0735
 1528TIP3    H2 4591   3.089   0.744   2.737 -0.2398  0.0640  0.0920
 1529TIP3   OH2 4592   3.194   2.657   3.721  0.1070  0.3172  0.1459
 1529TIP3    H1 4593   3.127   2.629   3.783  0.1685 -0.3498 -0.0772
 1529TIP3    H2 4594   3.269   2.680   3.775 -0.3563  1.2425  0.4060
 1530TIP3   OH2 4595   2.536   0.449   1.942 -0.0029  0.6459  0.6506
 1530TIP3    H1 4596   2.482   0.466   1.865 -0.1510  2.2870  1.0748
 1530TIP3    H2 4597   2.563   0.536   1.972 -0.5917  0.1266  2.8987
 1531TIP3   OH2 4598   5.844   5.794   0.958  0.0844  0.0064  0.0923
 1531TIP3    H1 4599   5.815   5.885   0.949  0.1041  0.2276  1.9680
 1531TIP3    H2 4600   5.814   5.752   0.877 -0.3041  1.5621 -0.6237
 1532TIP3   OH2 4601   1.138   3.284   1.526 -0.6094 -1.0408  0.0430
 1532TIP3    H1 4602   1.086   3.205   1.541 -0.5995 -1.1647 -0.5576
 1532TIP3    H2 4603   1.229   3.254   1.533 -0.6079 -0.9140  0.6363
 1533TIP3   OH2 4604   2.211   0.809   1.573 -0.0274  0.1092 -0.2575
 1533TIP3    H1 4605   2.123   0.843   1.556 -0.9916 -0.7992  2.3411
 1533TIP3    H2 4606   2.269   0.883   1.554 -1.6546  1.7775  0.8977
 1534TIP3   OH2 4607   0.955   5.287   4.596  0.3164  0.4513  0.4277
 1534TIP3    H1 4608   0.971   5.197   4.621 -1.1155  0.3016  0.9284
 1534TIP3    H2 4609   0.872   5.284   4.548  0.3366  1.4736  0.3005
 1535TIP3   OH2 4610   5.441   3.173   1.875  0.5548 -0.8097 -0.1377
 1535TIP3    H1 4611   5.350   3.165   1.904 -0.4670  0.9186 -2.5029
 1535TIP3    H2 4612   5.478   3.240   1.932 -0.0750 -0.5739  0.0109
 1536TIP3   OH2 4613   3.941   1.819   2.176  0.2943 -0.3770  0.0171
 1536TIP3    H1 4614   3.893   1.793   2.255  0.3234 -0.1760  0.1023
 1536TIP3    H2 4615   4.028   1.780   2.188  0.2074 -0.5964 -0.0565
 1537TIP3   OH2 4616   4.435   0.094   3.213 -0.2274 -0.4501  0.1579
 1537TIP3    H1 4617   4.487   0.043   3.151  0.8759  0.0977  0.6032
 1537TIP3    H2 4618   4.475   0.181   3.211 -2.4795  0.6242 -1.0701
 1538TIP3   OH2 4619   6.143   3.138   0.171  0.6402 -0.0400  0.2439
 1538TIP3    H1 4620   6.166   3.214   0.223 -3.0575  3.2233 -2.2194
 1538TIP3    H2 4621   6.172   3.160   0.082  0.3036 -1.9680 -0.4008
 1539TIP3   OH2 4622   2.909   4.264   0.526 -0.2925  0.0210 -0.0126
 1539TIP3    H1 4623   2.983   4.299   0.477  0.9234 -2.0653  0.2187
 1539TIP3    H2 4624   2.921   4.169   0.523 -2.1324 -0.3142  1.3492
 1540TIP3   OH2 4625   2.802   3.291   4.312 -0.0002 -0.3200  0.4233
 1540TIP3    H1 4626   2.707   3.293   4.305 -0.0853 -0.0131  1.4451
 1540TIP3    H2 4627   2.833   3.295   4.222 -0.9473  0.4303  0.1117
 1541TIP3   OH2 4628   1.431   2.605   4.153  0.6687 -0.1716  0.0537
 1541TIP3    H1 4629   1.455   2.564   4.237  0.6384  0.0669  0.1788
 1541TIP3    H2 4630   1.514   2.634   4.116  0.6859 -0.3091 -0.0171
 1542TIP3   OH2 4631   2.751   5.836   0.942 -0.2763 -0.2312  0.0054
 1542TIP3    H1 4632   2.788   5.923   0.960 -0.7651 -0.0269  0.0556
 1542TIP3    H2 4633   2.656   5.851   0.941 -0.3306 -0.5693 -1.0102
 1543TIP3   OH2 4634   5.465   1.588   3.832 -0.4945 -0.3400  0.3240
 1543TIP3    H1 4635   5.552   1.560   3.805 -0.4351  1.5040 -1.6000
 1543TIP3    H2 4636   5.464   1.573   3.927  1.0599 -2.5148  0.0693
 1544TIP3   OH2 4637   1.601   4.602   2.310 -0.2470  0.7657  0.5321
 1544TIP3    H1 4638   1.560   4.669   2.256 -1.1265 -1.2343 -1.4418
 1544TIP3    H2 4639   1.556   4.608   2.395 -1.2746  1.7214 -0.0635
 1545TIP3   OH2 4640   5.544   3.274   2.161 -0.3780 -0.4824  0.4345
 1545TIP3    H1 4641   5.558   3.347   2.101  0.4005 -0.1798  0.9593
 1545TIP3    H2 4642   5.564   3.310   2.248  0.1533 -1.3446  0.6892
 1546TIP3   OH2 4643   0.299   3.618   3.733 -0.1264  0.2876 -0.7762
 1546TIP3    H1 4644   0.253   3.668   3.800 -0.4843 -0.3693 -0.5320
 1546TIP3    H2 4645   0.391   3.644   3.742 -0.1498  0.0844  0.0698
 1547TIP3   OH2 4646   5.492   2.985   3.147  0.5183 -0.7846  0.5975
 1547TIP3    H1 4647   5.527   3.074   3.144  0.3613 -0.7202  0.6923
 1547TIP3    H2 4648   5.397   2.996   3.147  0.4991 -0.9336  1.3678
 1548TIP3   OH2 4649   4.799   2.761   3.737 -0.3551 -0.0924 -0.3736
 1548TIP3    H1 4650   4.705   2.748   3.731 -0.8079  1.4800  1.9803
 1548TIP3    H2 4651   4.813   2.851   3.707  0.2962 -0.1084 -0.1481
 1549TIP3   OH2 4652   5.415   1.919   0.824 -0.2297  0.1358 -0.1352
 1549TIP3    H1 4653   5.503   1.957   0.825  0.4787 -1.4554  0.0372
 1549TIP3    H2 4654   5.388   1.924   0.732 -0.1129  0.9012 -0.1422
 1550TIP3   OH2 4655   0.830   3.386   3.309 -0.4374 -0.0657  0.2461
 1550TIP3    H1 4656   0.851   3.401   3.401  1.3717 -0.3318 -0.0856
 1550TIP3    H2 4657   0.813   3.474   3.274 -0.9881  0.0493  0.7922
 1551TIP3   OH2 4658   5.734   4.931   4.587 -0.0247 -0.0363 -0.0468
 1551TIP3    H1 4659   5.742   4.969   4.499 -1.2648 -1.7109 -0.9386
 1551TIP3    H2 4660   5.654   4.970   4.622 -0.1595 -0.2398 -0.1270
 1552TIP3   OH2 4661   5.371   1.283   1.327 -0.2943 -0.3926 -0.0297
 1552TIP3    H1 4662   5.435   1.347   1.358 -1.9101  0.3646  2.0625
 1552TIP3    H2 4663   5.313   1.333   1.270 -0.5506 -0.4210  0.2050
 1553TIP3   OH2 4664   0.836   4.407   0.129 -0.1128 -0.1629 -0.5504
 1553TIP3    H1 4665   0.809   4.316   0.140 -0.5850 -0.0497 -0.7249
 1553TIP3    H2 4666   0.781   4.456   0.191 -0.2224  0.0609 -0.8228
 1554TIP3   OH2 4667   6.023   2.845   4.914 -0.7147 -0.1305  0.3410
 1554TIP3    H1 4668   6.032   2.931   4.872 -0.6912 -0.6869 -0.8301
 1554TIP3    H2 4669   6.062   2.784   4.852  0.9246 -0.8051  1.9405
 1555TIP3   OH2 4670   4.726   2.630   1.383  0.1766 -0.5593 -0.1007
 1555TIP3    H1 4671   4.762   2.620   1.295  1.4171 -0.8016  0.4050
 1555TIP3    H2 4672   4.683   2.547   1.401  1.9434 -1.4318  0.3685
 1556TIP3   OH2 4673   1.874   4.069   1.826 -0.1234  0.1738  0.1076
 1556TIP3    H1 4674   1.781   4.047   1.830 -0.3566  0.7311 -1.5303
 1556TIP3    H2 4675   1.876   4.160   1.795  0.9742 -0.3999 -1.6411
 1557TIP3   OH2 4676   5.014   2.734   2.298 -0.4457  0.8510  0.0852
 1557TIP3    H1 4677   5.009   2.728   2.393 -0.2276  1.6556  0.1549
 1557TIP3    H2 4678   5.038   2.646   2.269 -1.5157  0.3467  0.6935
 1558TIP3   OH2 4679   0.999   0.422   1.490 -0.1869 -0.0610  0.4287
 1558TIP3    H1 4680   1.063   0.492   1.482 -0.4110  0.1163  0.1484
 1558TIP3    H2 4681   0.965   0.429   1.579  0.1433 -0.1212  0.5584
 1559TIP3   OH2 4682   1.345   0.263   4.009  0.6314  0.2007  0.0681
 1559TIP3    H1 4683   1.297   0.196   3.961  0.5618  1.2024 -1.3264
 1559TIP3    H2 4684   1.395   0.310   3.942 -0.6438  2.6479  0.6788
 1560TIP3   OH2 4685   3.781   3.647   3.300  0.4228  0.1952  0.0004
 1560TIP3    H1 4686   3.824   3.720   3.255 -1.7511  0.0428 -2.6050
 1560TIP3    H2 4687   3.841   3.574   3.292 -0.2515 -0.1099 -3.7979
 1561TIP3   OH2 4688   0.152   2.842   2.028  0.3073 -0.1418  0.0897
 1561TIP3    H1 4689   0.097   2.852   2.106  0.7903 -0.5913  0.4930
 1561TIP3    H2 4690   0.153   2.930   1.989 -0.9708 -0.1985 -0.1259
 1562TIP3   OH2 4691   4.021   1.966   0.677 -0.8814 -0.1482  0.1138
 1562TIP3    H1 4692   4.030   1.941   0.585 -1.5982 -1.0583  0.2772
 1562TIP3    H2 4693   4.013   2.061   0.676 -1.1232 -0.1739 -0.7849
 1563TIP3   OH2 4694   6.212   0.588   3.674 -0.6275 -0.1013 -0.0134
 1563TIP3    H1 4695   6.190   0.672   3.713  0.1040  0.7080 -1.2824
 1563TIP3    H2 4696   6.162   0.585   3.593 -0.4364 -0.7791 -0.1110
 1564TIP3   OH2 4697   1.871   2.534   3.071  0.6559  0.4468  0.1608
 1564TIP3    H1 4698   1.854   2.505   2.982 -1.3675 -1.8618  1.1607
 1564TIP3    H2 4699   1.940   2.475   3.102 -1.3108 -1.4881  1.2145
 1565TIP3   OH2 4700   2.992   2.641   3.927 -0.4168 -0.3023  0.3251
 1565TIP3    H1 4701   3.017   2.626   4.018 -1.1686  0.5711  0.6956
 1565TIP3    H2 4702   2.900   2.665   3.931  0.0860  2.0694 -0.3936
 1566TIP3   OH2 4703   0.243   0.801   2.905 -0.3928  0.0452  0.5288
 1566TIP3    H1 4704   0.221   0.891   2.929  2.8910  1.2914 -0.6005
 1566TIP3    H2 4705   0.310   0.775   2.968 -0.1108 -0.9847 -0.1646
 1567TIP3   OH2 4706   6.250   1.754   1.824 -0.5835  0.2819 -0.2588
 1567TIP3    H1 4707   6.251   1.743   1.729  0.0207  0.1478 -0.2419
 1567TIP3    H2 4708   6.277   1.844   1.839  2.4503 -0.5052 -0.1409
 1568TIP3   OH2 4709   4.890   4.064   2.935  0.1053 -0.0106 -0.2394
 1568TIP3    H1 4710   4.797   4.085   2.944  0.7234  2.7584  1.0421
 1568TIP3    H2 4711   4.917   4.110   2.855  0.4445 -0.6054 -0.4754
 1569TIP3   OH2 4712   2.086   1.567   0.470 -0.0682 -0.1674 -0.7636
 1569TIP3    H1 4713   2.046   1.482   0.490 -3.9189  1.2539 -1.5438
 1569TIP3    H2 4714   2.091   1.611   0.555  0.0199 -0.4398 -0.6266
 1570TIP3   OH2 4715   6.196   5.147   0.660  0.1141  0.2081 -0.0732
 1570TIP3    H1 4716   6.189   5.200   0.581  0.0379  0.8935  0.3841
 1570TIP3    H2 4717   6.264   5.189   0.712  0.9956 -0.9092 -0.2660
 1571TIP3   OH2 4718   2.788   5.650   0.214 -0.0782 -0.5402  0.6021
 1571TIP3    H1 4719   2.711   5.685   0.260  1.1457  0.4547  1.9987
 1571TIP3    H2 4720   2.792   5.558   0.241 -1.6780 -1.0758 -0.8030
 1572TIP3   OH2 4721   4.022   5.867   4.518 -0.1509 -0.5498 -0.1442
 1572TIP3    H1 4722   3.983   5.950   4.492 -0.3341 -0.6687 -0.2432
 1572TIP3    H2 4723   3.948   5.810   4.539 -0.0445  0.1619  2.6237
 1573TIP3   OH2 4724   2.511   3.152   3.309  0.3533  0.2005 -0.6346
 1573TIP3    H1 4725   2.570   3.104   3.252 -0.4189 -0.2536 -1.0716
 1573TIP3    H2 4726   2.487   3.230   3.258  0.7014  0.4716 -0.3894
 1574TIP3   OH2 4727   2.215   4.675   4.944  0.4188 -0.2908 -0.0557
 1574TIP3    H1 4728   2.194   4.723   4.864 -3.2605 -2.0594 -0.3491
 1574TIP3    H2 4729   2.151   4.705   5.008  0.1449 -2.3270  0.7100
 1575TIP3   OH2 4730   5.657   5.354   3.541 -0.3919 -0.4705 -0.0471
 1575TIP3    H1 4731   5.608   5.418   3.593 -1.4553  1.1350 -2.8309
 1575TIP3    H2 4732   5.625   5.269   3.573 -0.8647  0.3935  1.9598
 1576TIP3   OH2 4733   5.621   0.691   1.345  0.1155  0.2539  0.2648
 1576TIP3    H1 4734   5.667   0.676   1.428 -0.5160  0.6660  0.6998
 1576TIP3    H2 4735   5.587   0.780   1.352 -0.7078 -0.0237 -0.0518
 1577TIP3   OH2 4736   1.849   2.456   1.765  0.6251  0.2922 -0.3077
 1577TIP3    H1 4737   1.944   2.457   1.753  0.5978  1.2693 -0.4914
 1577TIP3    H2 4738   1.813   2.454   1.676  0.4686  2.5028 -0.3363
 1578TIP3   OH2 4739   2.087   1.185   4.475 -0.4611 -0.7653 -0.3404
 1578TIP3    H1 4740   2.025   1.233   4.530  1.0517 -1.0760  1.7303
 1578TIP3    H2 4741   2.034   1.153   4.402 -2.3594  0.4541  0.4303
 1579TIP3   OH2 4742   4.039   2.117   2.752  0.1586 -0.0855  0.4471
 1579TIP3    H1 4743   3.962   2.082   2.799 -1.4869  0.7391 -1.4780
 1579TIP3    H2 4744   4.027   2.212   2.755  0.6338  0.0168 -0.6310
 1580TIP3   OH2 4745   5.903   4.728   0.624  0.5250 -0.0357 -0.3208
 1580TIP3    H1 4746   5.931   4.806   0.577 -2.5932 -0.1764 -2.7467
 1580TIP3    H2 4747   5.832   4.758   0.681  2.0722 -0.4603  1.9418
 1581TIP3   OH2 4748   1.159   1.267   0.448  0.0091  0.2913  0.3551
 1581TIP3    H1 4749   1.159   1.243   0.540 -2.3371 -1.1218  0.0475
 1581TIP3    H2 4750   1.091   1.334   0.440  0.2603  0.4768 -0.3317
 1582TIP3   OH2 4751   3.133   2.381   2.032 -0.6045 -0.0451 -0.3715
 1582TIP3    H1 4752   3.052   2.364   2.079  0.0796 -0.5315  0.6751
 1582TIP3    H2 4753   3.118   2.465   1.988 -0.6887  1.4010  2.1721
 1583TIP3   OH2 4754   5.006   3.723   2.354 -0.3374 -0.1405  0.4339
 1583TIP3    H1 4755   5.050   3.658   2.299 -0.6630 -0.5136  0.6127
 1583TIP3    H2 4756   4.914   3.719   2.328 -0.1755  1.1080 -0.3982
 1584TIP3   OH2 4757   2.825   0.857   1.466  0.1224  0.0252  0.3416
 1584TIP3    H1 4758   2.782   0.848   1.551  1.1476  1.8640  1.1024
 1584TIP3    H2 4759   2.845   0.950   1.458  2.0058 -0.4244 -0.9348
 1585TIP3   OH2 4760   3.401   4.547   1.624 -0.1015  0.4416  0.0934
 1585TIP3    H1 4761   3.330   4.598   1.585 -1.9834 -2.2321 -0.2601
 1585TIP3    H2 4762   3.420   4.479   1.558  0.0130 -1.2528  1.7842
 1586TIP3   OH2 4763   3.915   2.167   1.878  0.4661  0.4016  0.0380
 1586TIP3    H1 4764   3.954   2.213   1.803  0.1843  0.9709  0.2320
 1586TIP3    H2 4765   3.914   2.075   1.851  1.2213  0.4754 -0.2782
 1587TIP3   OH2 4766   1.383   3.999   3.447  0.4589  0.3604 -0.5389
 1587TIP3    H1 4767   1.440   4.075   3.443  1.5992 -0.3035  1.6404
 1587TIP3    H2 4768   1.443   3.924   3.444 -0.4224 -0.3889  0.0347
 1588TIP3   OH2 4769   2.897   3.705   0.816 -0.4616  0.4932  0.3749
 1588TIP3    H1 4770   2.973   3.762   0.808 -1.0749  1.2849  0.0203
 1588TIP3    H2 4771   2.851   3.738   0.894 -1.9851  1.9664 -1.0492
 1589TIP3   OH2 4772   1.099   3.457   1.036 -0.1743  0.0715 -0.0199
 1589TIP3    H1 4773   1.073   3.543   1.002 -1.3749  1.4924  3.9290
 1589TIP3    H2 4774   1.018   3.408   1.045  0.3427 -0.9888 -0.9668
 1590TIP3   OH2 4775   2.475   5.926   4.745 -0.2740 -0.6600 -0.1364
 1590TIP3    H1 4776   2.506   5.842   4.714  3.4585  1.4929 -3.1452
 1590TIP3    H2 4777   2.438   5.968   4.667  1.2128  1.6941  0.3189
 1591TIP3   OH2 4778   3.823   4.948   0.414 -0.1301 -0.0811  0.3749
 1591TIP3    H1 4779   3.914   4.945   0.385 -0.2053  1.4147 -0.0669
 1591TIP3    H2 4780   3.821   5.017   0.481 -1.1719  0.7860 -0.5125
 1592TIP3   OH2 4781   1.830   4.179   3.220 -0.6072 -0.0853  0.0558
 1592TIP3    H1 4782   1.842   4.194   3.314 -0.1988 -1.0097  0.1608
 1592TIP3    H2 4783   1.763   4.112   3.215 -0.2471 -0.4234 -0.2948
 1593TIP3   OH2 4784   5.963   5.036   3.238 -0.6089 -0.6382 -0.2549
 1593TIP3    H1 4785   6.031   4.969   3.242  0.0226  0.0271  0.5341
 1593TIP3    H2 4786   5.988   5.092   3.165 -0.5589 -0.6514 -0.2474
 1594TIP3   OH2 4787   2.658   2.785   4.544 -0.1346  0.1146 -0.4769
 1594TIP3    H1 4788   2.622   2.864   4.585  2.2412  0.4676  1.1017
 1594TIP3    H2 4789   2.644   2.716   4.609  1.4807  0.1644 -0.0301
 1595TIP3   OH2 4790   2.613   0.691   4.967  0.1693 -0.1292  0.0612
 1595TIP3    H1 4791   2.541   0.753   4.962 -1.1149 -1.5468  0.1092
 1595TIP3    H2 4792   2.692   0.744   4.955 -0.7685  1.7007  1.4957
 1596TIP3   OH2 4793   2.036   2.663   3.662  0.5834  0.0521  0.3461
 1596TIP3    H1 4794   2.015   2.746   3.618 -1.7862 -0.2087  0.8670
 1596TIP3    H2 4795   2.026   2.597   3.594 -0.5991 -0.0947  0.6448
 1597TIP3   OH2 4796   1.648   0.182   3.626 -0.4606 -0.6105  0.0539
 1597TIP3    H1 4797   1.621   0.252   3.567  1.1701  0.2260  0.2504
 1597TIP3    H2 4798   1.701   0.123   3.572 -0.0136 -0.5181  0.3878
 1598TIP3   OH2 4799   2.237   3.865   2.063 -0.2764 -0.1132  0.3807
 1598TIP3    H1 4800   2.190   3.925   2.005  0.7122  0.7987  0.4890
 1598TIP3    H2 4801   2.198   3.880   2.150 -0.5996 -0.2507  0.2627
 1599TIP3   OH2 4802   3.274   5.603   3.533 -0.3498 -0.0094 -0.0417
 1599TIP3    H1 4803   3.339   5.660   3.493  2.0948 -1.8736  0.9691
 1599TIP3    H2 4804   3.234   5.556   3.460  1.7778 -1.0838 -0.5964
 1600TIP3   OH2 4805   6.123   4.958   2.298 -0.4111 -0.3169 -0.1413
 1600TIP3    H1 4806   6.128   4.980   2.391  0.0435  0.5824 -0.3729
 1600TIP3    H2 4807   6.070   5.027   2.259 -2.0325 -1.5827 -0.2931
 1601TIP3   OH2 4808   4.913   1.578   1.650 -0.4009  0.2692  0.0092
 1601TIP3    H1 4809   4.838   1.634   1.627 -0.1962  0.2213 -0.8202
 1601TIP3    H2 4810   4.946   1.614   1.732 -0.0233  1.6338 -0.7080
 1602TIP3   OH2 4811   2.072   3.384   1.896  0.1816  0.3471  0.9135
 1602TIP3    H1 4812   2.127   3.329   1.953  0.8236 -0.4875 -0.4598
 1602TIP3    H2 4813   2.053   3.328   1.820  0.1751  1.7496 -0.1431
 1603TIP3   OH2 4814   2.538   0.079   2.476  0.0746  0.2884  0.2937
 1603TIP3    H1 4815   2.456   0.128   2.482  0.2851  0.7345 -0.3467
 1603TIP3    H2 4816   2.515  -0.001   2.429  0.4394  1.5148 -2.1593
 1604TIP3   OH2 4817   1.358   2.235   0.041  0.3473  0.4954  0.2994
 1604TIP3    H1 4818   1.305   2.286  -0.020  2.1644  0.4317 -1.4309
 1604TIP3    H2 4819   1.300   2.166   0.072 -0.5970  0.4520 -1.4772
 1605TIP3   OH2 4820   3.619   2.760   0.309 -0.2681 -0.0493 -0.2413
 1605TIP3    H1 4821   3.679   2.691   0.280  1.7111  1.7149 -0.6561
 1605TIP3    H2 4822   3.601   2.739   0.400  1.2800 -0.4922 -0.0009
 1606TIP3   OH2 4823   5.738   4.144   2.773  0.1806 -0.5075  0.5940
 1606TIP3    H1 4824   5.756   4.138   2.867  0.4132  0.3209  0.6081
 1606TIP3    H2 4825   5.666   4.083   2.758  0.8553 -1.4586  1.1164
 1607TIP3   OH2 4826   1.777   0.422   4.321 -0.0599  0.4536 -0.1110
 1607TIP3    H1 4827   1.778   0.469   4.405 -1.7204 -0.4105  0.4283
 1607TIP3    H2 4828   1.870   0.408   4.301  0.3892  1.4297  1.1371
 1608TIP3   OH2 4829   1.135   3.697   2.072  0.0674 -0.0317 -0.0841
 1608TIP3    H1 4830   1.070   3.633   2.044 -0.3119  0.6539 -0.8263
 1608TIP3    H2 4831   1.185   3.717   1.992 -0.2790  1.1045 -0.0364
 1609TIP3   OH2 4832   5.021   2.248   2.624  0.7401 -0.1934 -0.3763
 1609TIP3    H1 4833   5.110   2.264   2.590  1.0962 -3.2888 -1.2047
 1609TIP3    H2 4834   5.033   2.181   2.691 -0.7775  1.0956  1.2844
 1610TIP3   OH2 4835   2.752   3.070   4.812  0.4032  0.3160 -0.3220
 1610TIP3    H1 4836   2.683   3.004   4.813 -0.7946  1.4813 -1.6001
 1610TIP3    H2 4837   2.721   3.138   4.873  1.8524 -0.4501  1.3690
 1611TIP3   OH2 4838   3.137   3.403   1.433 -0.1252  0.3554  0.3871
 1611TIP3    H1 4839   3.142   3.497   1.451  0.7743  0.6783 -1.3838
 1611TIP3    H2 4840   3.228   3.374   1.437 -0.3166 -0.2868  0.1492
 1612TIP3   OH2 4841   5.203   4.749   1.415  0.3893 -0.0749  0.2419
 1612TIP3    H1 4842   5.259   4.798   1.476 -0.7141 -0.3541  1.5464
 1612TIP3    H2 4843   5.260   4.726   1.342  2.4598 -1.9276  2.3190
 1613TIP3   OH2 4844   2.354   2.842   3.579  0.2072 -0.0709  0.2971
 1613TIP3    H1 4845   2.380   2.932   3.599 -3.6078  0.9791  1.3656
 1613TIP3    H2 4846   2.355   2.797   3.664 -0.1899 -0.3473  0.1603
 1614TIP3   OH2 4847   2.385   0.456   1.698  0.2521 -0.1798  0.0382
 1614TIP3    H1 4848   2.328   0.499   1.634  0.5551 -0.3275 -0.3370
 1614TIP3    H2 4849   2.446   0.404   1.645 -2.0378 -3.6365  0.4743
 1615TIP3   OH2 4850   4.962   4.329   4.018 -0.1042  0.1212 -0.4514
 1615TIP3    H1 4851   4.908   4.374   3.953  0.1672  1.2218  0.0694
 1615TIP3    H2 4852   4.917   4.345   4.101  0.9674  1.0034 -0.0154
 1616TIP3   OH2 4853   3.669   5.606   2.408 -0.0073 -0.7131 -0.6249
 1616TIP3    H1 4854   3.613   5.619   2.331  0.9127 -0.6262 -1.2963
 1616TIP3    H2 4855   3.737   5.545   2.378  1.3822  0.6813 -0.4261
 1617TIP3   OH2 4856   1.433   2.448   0.680  0.1717 -0.3420 -0.4694
 1617TIP3    H1 4857   1.495   2.380   0.656  1.4505  0.3753  0.7147
 1617TIP3    H2 4858   1.448   2.464   0.773  1.2636  2.8476 -1.0572
 1618TIP3   OH2 4859   4.117   1.715   1.473  0.1656  0.0666  0.0489
 1618TIP3    H1 4860   4.182   1.653   1.440 -0.4987 -0.2026 -0.7841
 1618TIP3    H2 4861   4.034   1.667   1.472 -0.6964  1.4335 -2.2714
 1619TIP3   OH2 4862   5.509   1.508   1.389  0.3229  0.3027  0.5032
 1619TIP3    H1 4863   5.558   1.494   1.308 -1.0829  0.7560 -0.4577
 1619TIP3    H2 4864   5.567   1.477   1.458  1.0473 -1.3177 -0.7770
 1620TIP3   OH2 4865   1.030   2.055   3.739  0.2032  0.1872  0.1577
 1620TIP3    H1 4866   0.954   2.077   3.684 -1.0936 -0.6307  1.5366
 1620TIP3    H2 4867   1.038   2.128   3.800  0.0021 -0.0953  0.5286
 1621TIP3   OH2 4868   2.238   4.782   1.282  0.4774 -0.5280  0.6752
 1621TIP3    H1 4869   2.267   4.747   1.198  1.7417  0.7704  0.5257
 1621TIP3    H2 4870   2.143   4.792   1.272  0.5909 -0.4946 -0.5791
 1622TIP3   OH2 4871   1.074   1.252   2.262  0.3340  0.1121  0.1400
 1622TIP3    H1 4872   1.032   1.290   2.184 -1.5379 -2.3411 -0.1656
 1622TIP3    H2 4873   1.020   1.283   2.335  0.3614  0.0746  0.1759
 1623TIP3   OH2 4874   3.921   3.862   0.794  0.3072 -0.1319  0.9119
 1623TIP3    H1 4875   3.888   3.912   0.868 -2.0010  1.0026 -0.7347
 1623TIP3    H2 4876   4.005   3.903   0.773  0.6328  0.0118  2.3944
 1624TIP3   OH2 4877   3.217   5.429   3.916 -0.3819 -0.1395  0.3346
 1624TIP3    H1 4878   3.178   5.438   4.003 -0.5009 -1.2096  0.4088
 1624TIP3    H2 4879   3.311   5.438   3.931 -0.4582  0.6318  0.4213
 1625TIP3   OH2 4880   5.506   5.908   0.792 -0.4110  0.0705 -0.0183
 1625TIP3    H1 4881   5.566   5.839   0.764 -1.6754 -0.1333 -2.4606
 1625TIP3    H2 4882   5.432   5.861   0.832 -0.7823  0.0521 -0.7121
 1626TIP3   OH2 4883   4.513   2.329   2.708 -1.3920 -0.1006 -0.2808
 1626TIP3    H1 4884   4.460   2.409   2.709  0.4378  1.1693 -1.2929
 1626TIP3    H2 4885   4.506   2.295   2.798 -0.7604  2.1920  0.6975
 1627TIP3   OH2 4886   2.074   5.932   0.253 -0.3734 -0.3943  0.1581
 1627TIP3    H1 4887   2.005   5.954   0.191 -0.1871 -1.6073 -0.5196
 1627TIP3    H2 4888   2.032   5.873   0.316 -1.4980  3.4260  3.3404
 1628TIP3   OH2 4889   5.084   2.524   2.146  0.0185 -0.2262 -0.0513
 1628TIP3    H1 4890   5.036   2.493   2.069  1.1699 -0.7579 -0.5893
 1628TIP3    H2 4891   5.094   2.447   2.201 -0.4856  0.0753  0.4670
 1629TIP3   OH2 4892   6.054   5.437   2.935 -0.0931  0.0437  0.6439
 1629TIP3    H1 4893   5.969   5.460   2.898 -0.4796 -0.2650  1.3132
 1629TIP3    H2 4894   6.051   5.472   3.025  1.1657  1.5865  0.1265
 1630TIP3   OH2 4895   3.991   0.413   2.904  0.1438  0.6444 -0.1367
 1630TIP3    H1 4896   3.920   0.467   2.868 -2.0109 -1.1793  1.0830
 1630TIP3    H2 4897   4.017   0.356   2.832  0.0797  1.0551 -0.4843
 1631TIP3   OH2 4898   2.882   1.501   0.018 -0.5060  0.3741  0.3227
 1631TIP3    H1 4899   2.832   1.435   0.065 -0.3493  0.1310  0.1558
 1631TIP3    H2 4900   2.945   1.534   0.082  0.3994 -0.6930  0.0195
 1632TIP3   OH2 4901   0.930   0.170   0.494 -0.7091 -0.3210 -0.8151
 1632TIP3    H1 4902   0.987   0.141   0.422 -1.5077 -1.9439 -0.8406
 1632TIP3    H2 4903   0.907   0.260   0.472 -1.1435 -0.8655 -2.7596
 1633TIP3   OH2 4904   3.093   5.894   1.231  0.0582  0.0884  0.1075
 1633TIP3    H1 4905   3.156   5.840   1.280  1.0852 -0.4614 -1.7212
 1633TIP3    H2 4906   3.015   5.839   1.225  0.8151 -0.9085 -1.0379
 1634TIP3   OH2 4907   0.844   5.709   1.761  0.0443  0.2443 -0.0500
 1634TIP3    H1 4908   0.900   5.759   1.702  1.2139 -0.5763  0.3122
 1634TIP3    H2 4909   0.767   5.688   1.710  0.1917  1.1584 -0.6667
 1635TIP3   OH2 4910   1.708   0.201   2.646  0.4768  0.1814 -0.3449
 1635TIP3    H1 4911   1.621   0.166   2.627  0.1053  1.4313 -1.0104
 1635TIP3    H2 4912   1.735   0.155   2.726 -2.0990  1.9186  1.6942
 1636TIP3   OH2 4913   4.568   5.782   0.505  0.0310 -0.0507 -0.2246
 1636TIP3    H1 4914   4.629   5.808   0.436  1.6306  0.3979  1.2842
 1636TIP3    H2 4915   4.602   5.824   0.584 -1.6332 -0.6959  0.8875
 1637TIP3   OH2 4916   3.257   3.651   2.210  0.5085  0.4319 -0.5387
 1637TIP3    H1 4917   3.236   3.561   2.235 -1.0919  0.8709 -0.1914
 1637TIP3    H2 4918   3.326   3.642   2.144  0.9216 -1.0004  0.0494
 1638TIP3   OH2 4919   0.491   2.230   0.194  0.3845  0.0454  0.0261
 1638TIP3    H1 4920   0.495   2.237   0.289  0.0791 -0.5499  0.0863
 1638TIP3    H2 4921   0.489   2.136   0.177 -0.5682  0.1507 -0.5182
 1639TIP3   OH2 4922   5.313   3.161   0.575 -0.2800 -0.1888 -0.6577
 1639TIP3    H1 4923   5.324   3.102   0.501 -1.4097  2.2115 -2.9242
 1639TIP3    H2 4924   5.374   3.233   0.557 -2.0154  1.4140 -0.3937
 1640TIP3   OH2 4925   5.005   1.545   2.159 -0.0521  0.5696  0.1160
 1640TIP3    H1 4926   4.962   1.464   2.131  2.3069 -0.4256 -0.8374
 1640TIP3    H2 4927   4.969   1.563   2.246 -2.7525  0.1499 -0.8247
 1641TIP3   OH2 4928   2.047   4.690   0.004 -0.1164  0.0033 -0.1820
 1641TIP3    H1 4929   1.975   4.631   0.026 -1.3307  0.4663 -2.6558
 1641TIP3    H2 4930   2.123   4.632  -0.003 -0.4419 -0.6542  1.3464
 1642TIP3   OH2 4931   5.384   4.939   0.556 -0.2310 -0.2811  0.5489
 1642TIP3    H1 4932   5.312   4.994   0.524  0.3852 -0.6556 -1.6913
 1642TIP3    H2 4933   5.450   5.000   0.585 -0.0363  0.1872 -0.7990
 1643TIP3   OH2 4934   1.227   3.786   1.809 -0.1488  0.2998  0.4941
 1643TIP3    H1 4935   1.318   3.805   1.830 -0.4993  0.0779  2.3677
 1643TIP3    H2 4936   1.225   3.691   1.794 -0.5730 -0.2972  3.6966
 1644TIP3   OH2 4937   3.777   2.643   0.755  0.0268 -0.4431  0.4654
 1644TIP3    H1 4938   3.717   2.632   0.681  1.2338  2.7059 -1.1268
 1644TIP3    H2 4939   3.719   2.664   0.829 -1.0414  3.9407 -1.3137
 1645TIP3   OH2 4940   2.046   4.485   0.252 -0.3430 -0.6180  0.1238
 1645TIP3    H1 4941   2.056   4.575   0.284  1.3444 -0.1234 -1.6200
 1645TIP3    H2 4942   1.951   4.473   0.243 -0.5630  1.5421 -1.0341
 1646TIP3   OH2 4943   3.694   4.588   2.508  0.7389  0.3303  0.0762
 1646TIP3    H1 4944   3.624   4.645   2.474  0.0628 -0.5754 -0.0867
 1646TIP3    H2 4945   3.648   4.511   2.540  1.7159 -0.4560 -0.3841
 1647TIP3   OH2 4946   0.443   2.418   1.349  0.0069 -0.4263  0.2771
 1647TIP3    H1 4947   0.522   2.419   1.403 -0.6774 -0.6467  1.3179
 1647TIP3    H2 4948   0.456   2.490   1.287 -1.1486  3.1259  3.7256
 1648TIP3   OH2 4949   2.291   0.596   4.103  0.3766  0.2615 -0.1069
 1648TIP3    H1 4950   2.379   0.582   4.068  0.9234  0.9308  0.9554
 1648TIP3    H2 4951   2.261   0.677   4.061 -0.4215 -0.8166 -1.7241
 1649TIP3   OH2 4952   1.867   4.525   1.421  0.4069 -0.0877 -0.0025
 1649TIP3    H1 4953   1.938   4.522   1.357  0.1523 -0.6300 -0.2654
 1649TIP3    H2 4954   1.878   4.609   1.464  1.1429 -0.1137 -0.1168
 1650TIP3   OH2 4955   0.069   4.110   5.108 -0.1324 -0.1046  0.6133
 1650TIP3    H1 4956   0.052   4.203   5.123 -0.0640 -0.2139  1.3898
 1650TIP3    H2 4957   0.138   4.088   5.171  0.7748 -0.3773 -0.4354
 1651TIP3   OH2 4958   5.707   4.303   4.373  0.5612 -0.4906  0.3877
 1651TIP3    H1 4959   5.728   4.351   4.292  1.6009 -2.4565 -0.5737
 1651TIP3    H2 4960   5.659   4.225   4.344 -2.5369  0.6012  2.0417
 1652TIP3   OH2 4961   5.911   4.923   1.270  0.3260 -0.4479  0.4208
 1652TIP3    H1 4962   5.917   4.828   1.280 -0.3049 -0.4398  0.9480
 1652TIP3    H2 4963   5.934   4.939   1.178 -2.7430 -1.4529 -0.6595
 1653TIP3   OH2 4964   0.850   2.891   3.145  0.3638  0.5467  0.3431
 1653TIP3    H1 4965   0.924   2.900   3.085 -0.8589  0.0772 -1.3157
 1653TIP3    H2 4966   0.829   2.797   3.144  1.2890  0.2331  2.7991
 1654TIP3   OH2 4967   1.214   5.426   3.323  0.3598 -0.3614  0.0751
 1654TIP3    H1 4968   1.238   5.479   3.248  0.2506 -0.7479 -0.2363
 1654TIP3    H2 4969   1.154   5.481   3.374  0.8474  0.0952  0.1574
 1655TIP3   OH2 4970   1.389   3.422   3.117  0.4133 -0.9217 -0.2933
 1655TIP3    H1 4971   1.346   3.342   3.147 -0.8814  0.3094  1.3048
 1655TIP3    H2 4972   1.479   3.394   3.097 -0.1705 -2.8817 -0.4298
 1656TIP3   OH2 4973   0.935   5.018   0.151 -0.2837  0.0682 -0.2399
 1656TIP3    H1 4974   0.848   5.014   0.190  0.5987  0.4810  1.8610
 1656TIP3    H2 4975   0.980   4.941   0.186  0.5670  0.4963 -0.3721
 1657TIP3   OH2 4976   4.832   1.466   0.552  0.1996 -0.2067 -0.1142
 1657TIP3    H1 4977   4.827   1.544   0.497 -1.7863 -0.8506 -0.9312
 1657TIP3    H2 4978   4.793   1.493   0.635  0.9423  0.0870  0.1436
 1658TIP3   OH2 4979   4.490   3.566   3.227  0.2740 -0.9767  0.2103
 1658TIP3    H1 4980   4.555   3.498   3.248 -0.1193 -2.0124 -1.6526
 1658TIP3    H2 4981   4.494   3.573   3.131 -1.1136  0.2127  0.2126
 1659TIP3   OH2 4982   2.307   0.901   0.659  0.3512 -0.1372 -0.4982
 1659TIP3    H1 4983   2.267   0.878   0.575  0.0504 -1.0993 -0.1099
 1659TIP3    H2 4984   2.301   0.820   0.710  0.9244  0.3173  0.2940
 1660TIP3   OH2 4985   2.877   0.859   0.303 -0.0703 -0.4879 -0.3399
 1660TIP3    H1 4986   2.912   0.866   0.215  0.4256 -0.0625 -0.1167
 1660TIP3    H2 4987   2.864   0.765   0.317  3.9217 -1.0512  0.6571
 1661TIP3   OH2 4988   2.726   5.658   4.181 -0.0647  0.4925 -0.1033
 1661TIP3    H1 4989   2.638   5.695   4.178 -0.2589  0.1467  0.9569
 1661TIP3    H2 4990   2.715   5.567   4.156 -0.4778 -0.2906  2.5654
 1662TIP3   OH2 4991   5.397   3.335   2.869  0.4732 -0.3968 -0.4098
 1662TIP3    H1 4992   5.464   3.390   2.829 -0.2261  0.2699 -0.6982
 1662TIP3    H2 4993   5.314   3.370   2.837 -0.0885 -0.2834  1.0467
 1663TIP3   OH2 4994   5.402   0.489   0.018  0.0412 -0.1001  0.0730
 1663TIP3    H1 4995   5.431   0.499   0.109 -1.4044 -0.3727  0.5859
 1663TIP3    H2 4996   5.307   0.485   0.023 -0.0470 -0.5865 -1.4244
 1664TIP3   OH2 4997   5.266   0.648   1.455  0.4197  0.2014  0.0056
 1664TIP3    H1 4998   5.174   0.627   1.439  0.2851  0.5338  0.3432
 1664TIP3    H2 4999   5.314   0.577   1.411 -0.0079 -0.2533  0.2521
 1665TIP3   OH2 5000   3.472   3.981   3.936 -0.1802 -0.2752 -0.4297
 1665TIP3    H1 5001   3.393   3.987   3.882  0.3720  1.2601 -1.1308
 1665TIP3    H2 5002   3.541   4.021   3.882  0.7511 -0.1812  0.7757
 1666TIP3   OH2 5003   5.344   2.815   0.115  0.2043 -0.7250 -0.0942
 1666TIP3    H1 5004   5.314   2.842   0.028  2.0342  3.0868  0.2429
 1666TIP3    H2 5005   5.407   2.745   0.098 -1.7295 -2.2178 -1.4931
 1667TIP3   OH2 5006   4.111   4.769   1.766 -0.2571  0.7273 -0.2591
 1667TIP3    H1 5007   4.142   4.764   1.676 -0.9050  0.5455 -0.4733
 1667TIP3    H2 5008   4.189   4.750   1.819  0.3131  1.6658 -0.7499
 1668TIP3   OH2 5009   1.670   4.378   3.094  0.5788  0.7381 -0.8355
 1668TIP3    H1 5010   1.719   4.328   3.159 -0.7356  1.6983  0.9853
 1668TIP3    H2 5011   1.726   4.453   3.074  0.8104  0.6599 -0.4888
 1669TIP3   OH2 5012   5.850   2.483   5.005 -0.1212 -0.3125 -0.4589
 1669TIP3    H1 5013   5.782   2.487   5.071 -0.8794  0.1790 -1.2404
 1669TIP3    H2 5014   5.817   2.423   4.938  0.7424 -1.0032 -0.2892
 1670TIP3   OH2 5015   5.790   4.250   0.089 -0.1574 -0.1138 -0.1509
 1670TIP3    H1 5016   5.794   4.172   0.033  2.1036 -0.2773  0.1189
 1670TIP3    H2 5017   5.719   4.232   0.151 -0.3183 -1.5376 -0.7050
 1671TIP3   OH2 5018   3.973   4.740   4.229 -0.0291  0.0741  0.8716
 1671TIP3    H1 5019   4.056   4.721   4.273  0.6674  0.8420 -0.0701
 1671TIP3    H2 5020   3.991   4.817   4.176  0.0334 -2.2688 -2.9111
 1672TIP3   OH2 5021   0.515   1.101   0.839 -0.3173  0.4568  0.0954
 1672TIP3    H1 5022   0.516   1.018   0.887  0.5424  0.8463  0.7797
 1672TIP3    H2 5023   0.431   1.101   0.794 -0.0388 -1.1131 -0.5088
 1673TIP3   OH2 5024   2.759   5.083   0.444  0.2137 -0.2364  0.3287
 1673TIP3    H1 5025   2.701   5.020   0.486 -0.0846 -0.3552 -0.2548
 1673TIP3    H2 5026   2.744   5.071   0.350  0.0993  0.7445  0.2075
 1674TIP3   OH2 5027   4.525   5.483   3.626 -0.5870 -0.3170 -0.0467
 1674TIP3    H1 5028   4.432   5.464   3.619 -1.1056  1.2137  1.6610
 1674TIP3    H2 5029   4.547   5.459   3.717 -0.2850  2.7692  0.8062
 1675TIP3   OH2 5030   3.518   4.407   1.395  0.2611 -0.3438 -0.3937
 1675TIP3    H1 5031   3.611   4.416   1.376  0.9765 -0.4801  2.6413
 1675TIP3    H2 5032   3.499   4.315   1.379  1.1310 -0.7443  0.7894
 1676TIP3   OH2 5033   2.207   5.792   4.771  0.1769 -0.4186 -0.0432
 1676TIP3    H1 5034   2.117   5.774   4.797  0.6453 -1.0619  1.2001
 1676TIP3    H2 5035   2.219   5.742   4.690 -0.2991 -1.0788  0.2877
 1677TIP3   OH2 5036   6.025   5.755   3.004 -0.0121  0.5776  0.7731
 1677TIP3    H1 5037   6.039   5.711   3.088  1.9617 -1.3508 -0.4652
 1677TIP3    H2 5038   5.940   5.798   3.013 -0.4290 -0.6249  3.2945
 1678TIP3   OH2 5039   1.628   2.190   3.680 -0.3196 -0.6516  0.5795
 1678TIP3    H1 5040   1.694   2.124   3.659 -0.5245 -0.9799  0.9769
 1678TIP3    H2 5041   1.558   2.142   3.723 -1.1688 -0.4365 -0.5095
 1679TIP3   OH2 5042   3.283   4.175   4.279 -0.0932  0.4578 -0.3144
 1679TIP3    H1 5043   3.357   4.187   4.339 -0.0901  1.2406 -0.4567
 1679TIP3    H2 5044   3.292   4.086   4.247 -0.1490 -0.0054  0.9189
 1680TIP3   OH2 5045   1.507   2.804   2.757  0.1803  0.4265 -0.1625
 1680TIP3    H1 5046   1.552   2.727   2.722 -1.1080  1.1373 -3.7349
 1680TIP3    H2 5047   1.414   2.787   2.741 -0.6913  0.6093  3.7025
 1681TIP3   OH2 5048   4.204   3.331   1.135  0.0722 -0.1892 -0.6872
 1681TIP3    H1 5049   4.275   3.392   1.114  0.3667  0.2266  1.3328
 1681TIP3    H2 5050   4.223   3.302   1.224 -2.5730  0.3277  0.1250
 1682TIP3   OH2 5051   1.881   0.962   2.235  0.2441 -0.8596  0.1926
 1682TIP3    H1 5052   1.944   0.934   2.301  0.2398 -0.0605  0.5417
 1682TIP3    H2 5053   1.801   0.981   2.284  0.6998  1.2827  0.2008
 1683TIP3   OH2 5054   2.596   5.906   2.374 -0.6732  0.2555 -0.1445
 1683TIP3    H1 5055   2.547   5.962   2.314  0.7017 -0.2880 -1.8534
 1683TIP3    H2 5056   2.685   5.904   2.339  0.0526 -0.5897  1.5858
 1684TIP3   OH2 5057   4.397   3.611   2.060 -0.1685  0.0404 -0.0573
 1684TIP3    H1 5058   4.479   3.587   2.103  0.4098  0.4261 -0.9230
 1684TIP3    H2 5059   4.424   3.666   1.987 -1.1199 -0.7647 -1.0282
 1685TIP3   OH2 5060   6.101   0.221   2.234  0.0800  0.0700  0.1257
 1685TIP3    H1 5061   6.081   0.236   2.327  0.7567  0.6115  0.1908
 1685TIP3    H2 5062   6.116   0.309   2.199  0.5101 -0.1871 -0.3387
 1686TIP3   OH2 5063   1.408   2.757   1.525 -0.1934  0.2425  0.1471
 1686TIP3    H1 5064   1.398   2.802   1.609 -1.2629  1.4206 -0.5833
 1686TIP3    H2 5065   1.323   2.765   1.483  0.8671  1.4818 -1.9316
 1687TIP3   OH2 5066   2.996   5.531  -0.009  0.3553  0.3490  0.5292
 1687TIP3    H1 5067   3.040   5.515   0.075 -0.2550  1.2064  1.0267
 1687TIP3    H2 5068   3.047   5.601  -0.050 -0.2950  1.0755  0.9346
 1688TIP3   OH2 5069   6.287   3.370   2.913  0.3063  0.2457  0.4929
 1688TIP3    H1 5070   6.378   3.342   2.904  0.3628  0.5436  0.1064
 1688TIP3    H2 5071   6.237   3.304   2.864  0.3838  0.4853  0.0886
 1689TIP3   OH2 5072   0.519   4.495   0.111 -0.0892  0.5787  0.2183
 1689TIP3    H1 5073   0.431   4.525   0.138  0.1069  0.6877  0.7516
 1689TIP3    H2 5074   0.553   4.567   0.058 -0.7122  0.1174 -0.8593
 1690TIP3   OH2 5075   3.356   1.300   1.682  0.4973  0.2532  0.3094
 1690TIP3    H1 5076   3.365   1.382   1.731 -0.2333  0.5386 -0.0169
 1690TIP3    H2 5077   3.446   1.270   1.668  0.8470  1.6463 -0.6446
 1691TIP3   OH2 5078   4.062   2.405   3.394 -0.3580 -0.3708 -0.0338
 1691TIP3    H1 5079   4.084   2.344   3.323  0.1889  0.6371 -0.7600
 1691TIP3    H2 5080   4.104   2.487   3.368  0.2748 -0.1020  1.7102
 1692TIP3   OH2 5081   1.203   4.097   1.899 -0.6439 -0.0761 -0.0324
 1692TIP3    H1 5082   1.160   4.181   1.915  1.5330  1.0082  0.4364
 1692TIP3    H2 5083   1.188   4.080   1.806 -0.4420  1.2220 -0.3140
 1693TIP3   OH2 5084   5.691   5.511   3.931 -0.3044 -0.0050  0.4373
 1693TIP3    H1 5085   5.627   5.502   3.861 -0.6854 -0.2669  0.8180
 1693TIP3    H2 5086   5.673   5.438   3.990 -0.1985  0.4027  0.9791
 1694TIP3   OH2 5087   5.405   3.039   2.206  0.2330  0.1739 -0.1829
 1694TIP3    H1 5088   5.404   3.133   2.187 -0.4187  0.5053  1.2980
 1694TIP3    H2 5089   5.494   3.023   2.238 -0.1543  0.7158  1.2904
 1695TIP3   OH2 5090   4.939   2.297   0.161  0.2098  0.1887  0.3932
 1695TIP3    H1 5091   4.943   2.204   0.139  1.2002  0.9579 -3.3812
 1695TIP3    H2 5092   4.864   2.330   0.112  0.4480  1.5498  0.8950
 1696TIP3   OH2 5093   2.463   1.802   3.071  0.1331  0.2470  0.2830
 1696TIP3    H1 5094   2.462   1.730   3.007 -0.4704 -1.2386  1.8884
 1696TIP3    H2 5095   2.412   1.769   3.145 -0.5639  2.5388  0.9077
 1697TIP3   OH2 5096   2.757   3.206   5.055  0.1386  0.0575  0.4124
 1697TIP3    H1 5097   2.682   3.265   5.046 -0.3930 -0.6949 -0.1932
 1697TIP3    H2 5098   2.787   3.219   5.145 -0.8562  0.2071  0.7395
 1698TIP3   OH2 5099   0.540   3.147   2.811  0.1772 -0.1734  0.6924
 1698TIP3    H1 5100   0.483   3.166   2.886 -0.5972  0.3875 -0.0240
 1698TIP3    H2 5101   0.494   3.184   2.736  1.4065  0.1355  0.0676
 1699TIP3   OH2 5102   0.045   4.124   0.902 -0.3309 -0.1646  0.1516
 1699TIP3    H1 5103   0.017   4.041   0.864  1.8678 -1.1439  0.5755
 1699TIP3    H2 5104   0.005   4.190   0.844 -1.6745 -1.4817 -0.5062
 1700TIP3   OH2 5105   5.297   5.411   3.882  0.4141 -0.9010  0.5075
 1700TIP3    H1 5106   5.267   5.416   3.973 -0.0755  0.7293  0.2982
 1700TIP3    H2 5107   5.216   5.417   3.830  0.8285  0.3326 -0.0382
 1701TIP3   OH2 5108   5.982   0.921   2.546 -0.6391  0.6488 -0.2103
 1701TIP3    H1 5109   5.990   0.882   2.458 -0.8045 -0.1472  0.1208
 1701TIP3    H2 5110   5.895   0.896   2.576  0.3203 -1.2765  1.1924
 1702TIP3   OH2 5111   1.528   2.770   3.237 -0.0346 -0.3161 -0.0813
 1702TIP3    H1 5112   1.550   2.851   3.282 -1.0710 -0.0800  0.0115
 1702TIP3    H2 5113   1.491   2.714   3.306  0.3030 -0.7214 -0.2246
 1703TIP3   OH2 5114   0.817   2.220   1.654 -0.5312 -0.3913  0.1320
 1703TIP3    H1 5115   0.853   2.133   1.637 -0.5392 -0.3614 -0.0328
 1703TIP3    H2 5116   0.888   2.267   1.697 -0.1667 -0.1396 -0.7327
 1704TIP3   OH2 5117   1.988   0.763   0.827  0.1996 -1.0602 -0.3311
 1704TIP3    H1 5118   1.990   0.676   0.866  0.1463 -1.3271 -0.9067
 1704TIP3    H2 5119   2.080   0.786   0.814  0.2943 -0.2810  1.4086
 1705TIP3   OH2 5120   4.141   5.708   3.185  0.2027  0.6602  0.5175
 1705TIP3    H1 5121   4.140   5.782   3.245 -0.7012  0.2890  0.9811
 1705TIP3    H2 5122   4.181   5.742   3.105  2.3262  0.9292  1.6028
 1706TIP3   OH2 5123   5.051   3.196   5.170 -0.0506  0.2019  0.3539
 1706TIP3    H1 5124   5.097   3.132   5.224  0.5241 -0.3110 -0.7207
 1706TIP3    H2 5125   5.014   3.145   5.098  0.7914  1.1146 -0.7604
 1707TIP3   OH2 5126   6.007   4.287   0.500  0.0393  0.3645  0.0305
 1707TIP3    H1 5127   6.089   4.328   0.475  1.0707 -1.0661  0.9504
 1707TIP3    H2 5128   5.994   4.218   0.435  0.0938 -0.0653  0.4724
 1708TIP3   OH2 5129   0.883   3.052   4.704 -0.1161 -0.4189  0.3533
 1708TIP3    H1 5130   0.820   3.023   4.770 -0.9698 -0.7686 -0.5977
 1708TIP3    H2 5131   0.830   3.093   4.636  0.5076 -2.0722 -1.1990
 1709TIP3   OH2 5132   2.489   3.500   3.445 -0.6015  0.2578 -0.0691
 1709TIP3    H1 5133   2.413   3.448   3.418  0.7673 -1.6397 -0.4905
 1709TIP3    H2 5134   2.491   3.491   3.541  0.1717 -1.3758 -0.2003
 1710TIP3   OH2 5135   3.846   1.692   1.057  0.4998  0.2548 -0.1591
 1710TIP3    H1 5136   3.907   1.675   1.128  1.4969 -0.5243 -1.1735
 1710TIP3    H2 5137   3.814   1.606   1.031 -0.7674  0.6204  0.1067
 1711TIP3   OH2 5138   0.988   5.599   0.340  0.2930  0.0700  0.0272
 1711TIP3    H1 5139   0.997   5.678   0.393  2.8213  0.9446 -1.5651
 1711TIP3    H2 5140   1.069   5.593   0.290 -1.5938 -1.0478 -3.2695
 1712TIP3   OH2 5141   2.503   5.334   0.226  0.5750  0.6580 -0.2589
 1712TIP3    H1 5142   2.416   5.369   0.242  0.9432  1.0410  0.9770
 1712TIP3    H2 5143   2.553   5.355   0.305  1.6139 -0.1121 -0.6842
 1713TIP3   OH2 5144   1.242   1.094   2.403 -0.0162  0.3263  0.2410
 1713TIP3    H1 5145   1.199   1.142   2.332  0.4846 -0.1447 -0.3998
 1713TIP3    H2 5146   1.252   1.158   2.473 -0.3096  0.8672 -0.2046
 1714TIP3   OH2 5147   5.268   0.171   1.266  0.2942 -0.5321  0.1597
 1714TIP3    H1 5148   5.334   0.182   1.335 -1.1707  0.8094  1.4156
 1714TIP3    H2 5149   5.252   0.076   1.263 -0.8822 -0.4958  2.9463
 1715TIP3   OH2 5150   4.116   1.412   5.050 -0.1355  0.4134  0.4165
 1715TIP3    H1 5151   4.027   1.432   5.077 -1.0144 -0.8193 -1.3584
 1715TIP3    H2 5152   4.131   1.467   4.973 -0.4853 -1.4350 -1.0415
 1716TIP3   OH2 5153   2.329   3.203   2.697  0.1014  0.2016 -0.1267
 1716TIP3    H1 5154   2.251   3.207   2.752 -1.2747  0.1220 -1.9785
 1716TIP3    H2 5155   2.354   3.294   2.684  1.0359  0.1951  1.3686
 1717TIP3   OH2 5156   1.131   2.954   0.759 -0.1833 -0.3061 -0.2049
 1717TIP3    H1 5157   1.109   2.900   0.835 -0.9555 -0.2135 -0.3548
 1717TIP3    H2 5158   1.062   2.935   0.695  1.2013 -1.4258 -1.4353
 1718TIP3   OH2 5159   3.596   0.640   2.096  0.7643  0.7208 -0.1857
 1718TIP3    H1 5160   3.522   0.699   2.102 -0.1343 -0.1788 -1.7683
 1718TIP3    H2 5161   3.559   0.553   2.108  1.5231  0.2422 -1.1216
 1719TIP3   OH2 5162   4.275   5.388   3.547  0.2240 -0.0746  0.2433
 1719TIP3    H1 5163   4.228   5.445   3.487  1.9163  2.1709  0.9361
 1719TIP3    H2 5164   4.216   5.313   3.560 -1.6572  1.0160 -1.4536
 1720TIP3   OH2 5165   2.070   0.523   4.889 -0.6673 -0.1756 -0.6193
 1720TIP3    H1 5166   2.076   0.617   4.903 -0.7148 -0.5260  2.3894
 1720TIP3    H2 5167   2.154   0.489   4.919 -1.6558 -1.2785  1.1011
 1721TIP3   OH2 5168   4.331   4.460   3.587 -0.6785 -0.0940 -0.1038
 1721TIP3    H1 5169   4.309   4.552   3.571  2.2337  0.7353 -0.0247
 1721TIP3    H2 5170   4.394   4.439   3.518 -1.9595 -2.3907 -0.6821
 1722TIP3   OH2 5171   0.092   1.917   5.031 -0.4237 -0.0159 -0.2575
 1722TIP3    H1 5172   0.012   1.888   5.074 -0.2358 -0.0360  0.0786
 1722TIP3    H2 5173   0.076   1.903   4.937 -0.3019 -1.2804 -0.1006
 1723TIP3   OH2 5174   6.103   4.232   4.659 -0.3940 -0.8927  0.4233
 1723TIP3    H1 5175   6.092   4.207   4.567  1.9539 -0.5740  0.0074
 1723TIP3    H2 5176   6.052   4.313   4.668  0.8622  0.1302 -1.1430
 1724TIP3   OH2 5177   1.561   4.768   1.697  0.0277 -0.3074  0.1730
 1724TIP3    H1 5178   1.602   4.853   1.715  0.8735 -0.5857 -0.3927
 1724TIP3    H2 5179   1.620   4.704   1.737  0.4479 -0.7425 -1.0963
 1725TIP3   OH2 5180   2.843   5.363   3.221  0.1296  0.4461 -0.6027
 1725TIP3    H1 5181   2.830   5.421   3.146 -0.6170  1.6821  0.4513
 1725TIP3    H2 5182   2.759   5.320   3.233  0.6444 -0.8342 -1.3092
 1726TIP3   OH2 5183   5.359   2.167   1.326  0.1515  0.7685  0.1081
 1726TIP3    H1 5184   5.269   2.138   1.337  0.1153  1.1593  0.9601
 1726TIP3    H2 5185   5.378   2.153   1.233  0.0051 -1.5054  0.3699
 1727TIP3   OH2 5186   5.857   0.311   4.464 -0.1431  0.0549  0.2262
 1727TIP3    H1 5187   5.914   0.237   4.483  0.3015  0.0694 -0.9613
 1727TIP3    H2 5188   5.812   0.329   4.547 -0.4541 -1.7006  0.4748
 1728TIP3   OH2 5189   5.839   4.701   4.673  0.2342 -0.0901 -0.1949
 1728TIP3    H1 5190   5.912   4.724   4.615  1.8674  1.8398  2.4162
 1728TIP3    H2 5191   5.779   4.776   4.666 -0.5611 -0.7716 -0.8484
 1729TIP3   OH2 5192   6.320   0.994   3.120 -0.7062  0.1052  0.1964
 1729TIP3    H1 5193   6.378   1.038   3.058 -0.7127  0.4810  0.4545
 1729TIP3    H2 5194   6.234   0.995   3.077 -0.4481 -0.8264 -0.3719
 1730TIP3   OH2 5195   2.460   3.736   4.677  0.6534  0.2464  0.3135
 1730TIP3    H1 5196   2.467   3.830   4.663 -0.9434  0.4032  0.3677
 1730TIP3    H2 5197   2.490   3.723   4.767  1.0386  0.6814  0.2512
 1731TIP3   OH2 5198   5.548   1.608   4.398  0.0074 -0.7301  0.2675
 1731TIP3    H1 5199   5.597   1.653   4.467 -1.4992 -0.5164  1.2372
 1731TIP3    H2 5200   5.464   1.585   4.439 -1.0705 -0.2885 -1.6016
 1732TIP3   OH2 5201   2.549   3.268   0.596  0.3954 -0.2841 -0.5118
 1732TIP3    H1 5202   2.596   3.251   0.514  0.9201  0.3478 -0.3480
 1732TIP3    H2 5203   2.607   3.326   0.646  0.4362 -1.2512  0.6357
 1733TIP3   OH2 5204   2.175   4.280   1.732 -0.1871 -0.0570 -0.6701
 1733TIP3    H1 5205   2.190   4.258   1.824  1.1372  0.7781 -0.6665
 1733TIP3    H2 5206   2.248   4.239   1.686  0.4726  1.4786 -1.0481
 1734TIP3   OH2 5207   6.014   2.152   4.844  0.0211  0.5568 -0.6264
 1734TIP3    H1 5208   5.932   2.187   4.879  1.8273  1.1907  3.5610
 1734TIP3    H2 5209   6.078   2.222   4.858  1.9815 -1.2141 -0.1897
 1735TIP3   OH2 5210   2.076   3.596   0.057  0.1872  0.0475  0.4981
 1735TIP3    H1 5211   1.994   3.639   0.083 -0.8553 -1.6316  0.1503
 1735TIP3    H2 5212   2.075   3.598  -0.039 -0.3123 -1.4455  0.4430
 1736TIP3   OH2 5213   2.300   4.966   4.458  0.3378  0.3257  0.4230
 1736TIP3    H1 5214   2.224   4.982   4.402  0.0089  1.4764  1.1817
 1736TIP3    H2 5215   2.368   4.936   4.397  0.5982  3.3516 -0.9770
 1737TIP3   OH2 5216   2.337   0.954   4.436 -0.0981 -0.2170 -0.0763
 1737TIP3    H1 5217   2.278   0.879   4.434 -1.2780  0.5477  2.3833
 1737TIP3    H2 5218   2.404   0.930   4.500 -2.1260  1.8069  3.0708
 1738TIP3   OH2 5219   1.287   5.381   1.131 -0.0282 -0.0825  0.4250
 1738TIP3    H1 5220   1.278   5.352   1.222  0.3252 -0.9521  0.1986
 1738TIP3    H2 5221   1.242   5.465   1.128  1.0889  0.6123  1.7163
 1739TIP3   OH2 5222   2.491   5.284   2.927 -0.4073  0.2320 -0.6429
 1739TIP3    H1 5223   2.447   5.201   2.907 -2.6888  1.0280  0.7462
 1739TIP3    H2 5224   2.477   5.338   2.849  0.3206 -0.3262 -1.1894
 1740TIP3   OH2 5225   2.978   3.039   2.000 -0.2907  0.4093 -0.7450
 1740TIP3    H1 5226   2.960   2.947   1.981  1.1699  0.5411 -3.1740
 1740TIP3    H2 5227   2.895   3.084   1.988 -1.2892 -0.6476  1.5461
 1741TIP3   OH2 5228   6.288   4.456   1.892 -0.3994  0.2214 -0.5609
 1741TIP3    H1 5229   6.340   4.439   1.970 -0.5363  1.1481 -0.2543
 1741TIP3    H2 5230   6.261   4.547   1.900 -0.5830  0.2752 -1.5975
 1742TIP3   OH2 5231   4.146   5.589   1.778  0.2179  0.2964  0.5606
 1742TIP3    H1 5232   4.055   5.573   1.754  0.8716  0.2629 -2.2720
 1742TIP3    H2 5233   4.171   5.666   1.727  2.4893 -1.2901 -0.9135
 1743TIP3   OH2 5234   3.886   1.511   1.492  0.0963 -0.3132  0.6524
 1743TIP3    H1 5235   3.870   1.455   1.568  0.4024 -0.0514  0.9082
 1743TIP3    H2 5236   3.828   1.586   1.506  1.8911  0.9331  1.8842
 1744TIP3   OH2 5237   5.258   2.190   3.130  0.1714 -0.2986  0.1191
 1744TIP3    H1 5238   5.254   2.256   3.200 -0.0865 -0.8134  0.6010
 1744TIP3    H2 5239   5.167   2.163   3.118  0.1785  0.0134 -0.6390
 1745TIP3   OH2 5240   5.382   0.140   3.226 -0.1590  0.4617 -0.2937
 1745TIP3    H1 5241   5.458   0.187   3.189  0.1593  0.0949 -0.1168
 1745TIP3    H2 5242   5.362   0.187   3.307 -0.6439  1.0619 -0.7501
 1746TIP3   OH2 5243   2.166   2.015   1.071  1.1521 -0.1594  0.1969
 1746TIP3    H1 5244   2.201   2.087   1.018  1.0497 -0.1346  0.1620
 1746TIP3    H2 5245   2.243   1.972   1.107  1.1937  0.8011  1.3328
 1747TIP3   OH2 5246   0.843   1.089   1.652  0.2136 -0.3629 -0.1200
 1747TIP3    H1 5247   0.849   1.068   1.745 -0.9858 -0.6333 -0.0859
 1747TIP3    H2 5248   0.749   1.091   1.634  0.4271 -0.1423 -1.2888
 1748TIP3   OH2 5249   5.327   4.599   1.960 -0.4348  0.4899 -0.0618
 1748TIP3    H1 5250   5.355   4.690   1.972  1.9843 -0.5030  2.9276
 1748TIP3    H2 5251   5.405   4.553   1.930 -1.1053 -0.9540  0.3083
 1749TIP3   OH2 5252   4.634   2.245   4.148 -0.2378 -0.0251 -0.5385
 1749TIP3    H1 5253   4.668   2.259   4.236 -2.0293  0.3268  0.1546
 1749TIP3    H2 5254   4.572   2.317   4.135 -1.1033 -0.9085 -1.4746
 1750TIP3   OH2 5255   5.774   2.561   4.520  0.1142  0.4881  0.1129
 1750TIP3    H1 5256   5.778   2.498   4.592 -1.2943  0.0694 -0.1425
 1750TIP3    H2 5257   5.714   2.629   4.551  0.3764  0.8818 -0.2353
 1751TIP3   OH2 5258   5.574   2.848   4.383 -0.0346 -0.3221 -0.3453
 1751TIP3    H1 5259   5.508   2.781   4.366 -1.1572  0.7650 -0.4144
 1751TIP3    H2 5260   5.524   2.924   4.414  1.2625  0.2616  0.4032
 1752TIP3   OH2 5261   3.177   0.232   3.447 -0.2309  0.5682 -0.1500
 1752TIP3    H1 5262   3.099   0.233   3.503 -0.4169  2.7653 -0.3696
 1752TIP3    H2 5263   3.234   0.299   3.484  1.7917 -1.2652  0.2387
 1753TIP3   OH2 5264   4.763   0.242   3.113 -0.1819  0.4777 -0.2454
 1753TIP3    H1 5265   4.810   0.187   3.049  1.4388  0.9865  0.4617
 1753TIP3    H2 5266   4.695   0.285   3.061 -0.1954 -0.6531 -1.2193
 1754TIP3   OH2 5267   6.354   4.848   0.768 -0.1914 -0.2141  0.1261
 1754TIP3    H1 5268   6.259   4.859   0.770  0.0114  2.0837  1.3311
 1754TIP3    H2 5269   6.383   4.873   0.856  1.6534  0.9329 -0.7259
 1755TIP3   OH2 5270   6.231   1.448   3.436 -0.5494 -0.3192 -0.2074
 1755TIP3    H1 5271   6.311   1.480   3.478  0.0932  0.7540 -2.1177
 1755TIP3    H2 5272   6.257   1.431   3.345 -2.7243  1.2037 -1.2082
 1756TIP3   OH2 5273   3.372   0.884   2.914  0.3659 -0.2115 -0.1955
 1756TIP3    H1 5274   3.316   0.814   2.881 -0.6494  1.3002 -1.9036
 1756TIP3    H2 5275   3.397   0.856   3.002 -1.0454 -2.0862 -0.3336
 1757TIP3   OH2 5276   5.809   3.759   2.496 -0.2754 -0.0094  0.4029
 1757TIP3    H1 5277   5.715   3.774   2.493 -0.1351  1.0681  0.8165
 1757TIP3    H2 5278   5.821   3.697   2.567 -0.6754 -0.1567  0.3436
 1758TIP3   OH2 5279   1.043   0.360   1.225  0.5965  0.0170 -0.4093
 1758TIP3    H1 5280   0.958   0.391   1.194  1.6656  3.6124 -0.3286
 1758TIP3    H2 5281   1.040   0.371   1.320  1.8174  2.7301 -0.5607
 1759TIP3   OH2 5282   4.273   0.707   3.068  0.3792 -0.2225  0.3197
 1759TIP3    H1 5283   4.234   0.761   3.000 -0.0102  0.1449  0.8272
 1759TIP3    H2 5284   4.213   0.632   3.076  0.0621  0.0682  0.7169
 1760TIP3   OH2 5285   0.951   1.641   3.757 -0.0848  0.0300  0.2507
 1760TIP3    H1 5286   1.017   1.706   3.735 -0.2043  0.2084  0.4115
 1760TIP3    H2 5287   0.958   1.631   3.852 -1.7420  1.6830  0.6174
 1761TIP3   OH2 5288   2.807   4.926   5.046 -0.0600 -0.1914  0.3713
 1761TIP3    H1 5289   2.862   4.923   4.967 -0.9395 -1.4109 -0.2192
 1761TIP3    H2 5290   2.761   5.010   5.040 -1.6466 -1.1054 -1.5133
 1762TIP3   OH2 5291   1.791   1.422   4.784 -0.4315 -0.3733 -0.6394
 1762TIP3    H1 5292   1.762   1.366   4.857  0.3182  0.1622  0.0867
 1762TIP3    H2 5293   1.710   1.458   4.748 -0.8518 -1.0870 -0.4312
 1763TIP3   OH2 5294   3.489   1.172   4.515 -0.2808 -0.1875  0.3106
 1763TIP3    H1 5295   3.487   1.242   4.580 -0.6511 -0.0047  0.1080
 1763TIP3    H2 5296   3.418   1.194   4.454 -1.1621 -1.3258  0.8772
 1764TIP3   OH2 5297   4.947   2.802   5.124 -0.1015 -0.3614  0.3876
 1764TIP3    H1 5298   5.000   2.746   5.182 -2.5903 -3.1134  0.2578
 1764TIP3    H2 5299   4.871   2.826   5.177 -1.5550 -1.4357 -1.1202
 1765TIP3   OH2 5300   1.284   2.171   2.386  0.3132  0.3541  0.3125
 1765TIP3    H1 5301   1.268   2.195   2.295 -1.1554  0.5730  0.6059
 1765TIP3    H2 5302   1.197   2.159   2.423  0.8633  1.0050  1.8868
 1766TIP3   OH2 5303   5.858   4.292   1.945 -0.1809 -0.1804  0.7214
 1766TIP3    H1 5304   5.881   4.374   1.987 -0.5591 -0.8780  2.3740
 1766TIP3    H2 5305   5.867   4.226   2.014 -0.8628 -1.3849 -0.2914
 1767TIP3   OH2 5306   4.757   4.363   4.887  0.3090  0.0715 -0.3744
 1767TIP3    H1 5307   4.803   4.364   4.803 -0.1774  0.8676 -0.6452
 1767TIP3    H2 5308   4.664   4.373   4.864  0.1048 -0.3646  0.2234
 1768TIP3   OH2 5309   3.254   1.098   1.821  0.2901  0.1187 -0.2068
 1768TIP3    H1 5310   3.269   1.191   1.803 -0.1682  0.7771  2.3877
 1768TIP3    H2 5311   3.163   1.083   1.798  0.6727 -0.0508 -1.7596
 1769TIP3   OH2 5312   3.152   0.683   1.268  0.3613  0.1764 -0.0682
 1769TIP3    H1 5313   3.247   0.674   1.265  0.5376  1.1232  1.6069
 1769TIP3    H2 5314   3.132   0.751   1.204  0.8311  0.1927 -0.1993
 1770TIP3   OH2 5315   3.849   2.620   1.143 -0.2831  0.8923  0.0845
 1770TIP3    H1 5316   3.929   2.651   1.185  0.6662 -1.4233  0.1545
 1770TIP3    H2 5317   3.822   2.692   1.087  3.0554  1.0552 -1.5625
 1771TIP3   OH2 5318   4.663   5.808   3.569  0.4353 -0.0984 -0.6511
 1771TIP3    H1 5319   4.749   5.779   3.599  0.0315 -0.3085  0.3171
 1771TIP3    H2 5320   4.606   5.801   3.646 -0.6250 -0.6699 -1.4539
 1772TIP3   OH2 5321   5.273   3.933   0.695  0.1951 -0.0130  0.1168
 1772TIP3    H1 5322   5.314   3.886   0.623  1.6083 -0.5083  1.2076
 1772TIP3    H2 5323   5.279   3.873   0.769 -0.4186  0.8411  0.8718
 1773TIP3   OH2 5324   1.591   1.464   2.819 -0.1912  0.0950 -0.2912
 1773TIP3    H1 5325   1.659   1.523   2.787 -0.3111 -0.2373 -1.1734
 1773TIP3    H2 5326   1.637   1.403   2.877  0.3367 -0.3489 -1.1598
 1774TIP3   OH2 5327   0.707   2.048   0.939  0.0249 -0.4955  0.7147
 1774TIP3    H1 5328   0.631   2.071   0.886  1.1115 -1.6033 -1.4227
 1774TIP3    H2 5329   0.708   2.114   1.009 -1.2181  1.3178 -0.8876
 1775TIP3   OH2 5330   0.750   1.114   4.776  0.2279 -0.1076  0.1623
 1775TIP3    H1 5331   0.710   1.159   4.702  1.3932  1.5472  0.4979
 1775TIP3    H2 5332   0.804   1.046   4.735  0.5393  0.5215 -0.4951
 1776TIP3   OH2 5333   0.577   5.028   3.054  0.0891 -0.3024  0.1069
 1776TIP3    H1 5334   0.641   4.960   3.031  1.8558  1.2661  0.2186
 1776TIP3    H2 5335   0.567   5.078   2.973 -1.3532 -0.7697 -0.0274
 1777TIP3   OH2 5336   0.348   5.853   3.079 -0.0844  0.0932 -0.4310
 1777TIP3    H1 5337   0.302   5.770   3.083  0.7851 -0.4802 -1.7384
 1777TIP3    H2 5338   0.440   5.830   3.094 -0.2307  1.3651  3.5772
 1778TIP3   OH2 5339   0.088   0.348   2.305  0.4919 -0.3100 -0.6117
 1778TIP3    H1 5340   0.003   0.383   2.279  0.9480  0.3564 -1.2300
 1778TIP3    H2 5341   0.110   0.396   2.385  0.4636 -0.2136 -0.6618
 1779TIP3   OH2 5342   0.699   3.950   5.175  0.2802  0.8580 -0.4313
 1779TIP3    H1 5343   0.610   3.946   5.142  0.3998  0.6332 -0.7332
 1779TIP3    H2 5344   0.699   4.025   5.234 -0.2424  0.5299 -0.0054
 1780TIP3   OH2 5345   5.163   3.725   0.440  0.1506  0.1938 -0.0779
 1780TIP3    H1 5346   5.093   3.671   0.475 -0.1030 -0.5227 -1.6406
 1780TIP3    H2 5347   5.121   3.781   0.375  0.3223  2.6485  1.7890
 1781TIP3   OH2 5348   6.133   5.576   0.829 -0.2269 -0.0856  0.1362
 1781TIP3    H1 5349   6.169   5.511   0.890  0.6078  1.0711  0.9145
 1781TIP3    H2 5350   6.149   5.660   0.872 -2.9606  0.5640  0.0356
 1782TIP3   OH2 5351   0.443   0.714   0.629  0.0863 -0.2182 -0.2887
 1782TIP3    H1 5352   0.444   0.807   0.605 -1.3568 -0.5831 -1.9095
 1782TIP3    H2 5353   0.510   0.707   0.697  1.7393  1.6054 -1.6018
 1783TIP3   OH2 5354   0.662   0.104   0.696 -0.2743  0.2177 -0.0725
 1783TIP3    H1 5355   0.660   0.122   0.602 -1.6128 -0.7559 -0.2598
 1783TIP3    H2 5356   0.589   0.044   0.710  0.0997  0.1072  1.5474
 1784TIP3   OH2 5357   4.225   5.364   0.973 -0.1202  0.3345 -0.1542
 1784TIP3    H1 5358   4.238   5.341   0.881 -1.0616  1.1246 -0.4964
 1784TIP3    H2 5359   4.176   5.290   1.009 -1.0208  0.6742 -0.6559
 1785TIP3   OH2 5360   0.333   4.397   1.220 -1.1276 -0.1682 -0.5025
 1785TIP3    H1 5361   0.374   4.420   1.304 -1.7274  0.6588 -0.4156
 1785TIP3    H2 5362   0.329   4.480   1.172 -1.5616 -0.4768 -1.0066
 1786TIP3   OH2 5363   0.130   0.670   4.959 -0.0506  0.1183  0.6728
 1786TIP3    H1 5364   0.190   0.598   4.978 -0.1705 -0.4442 -0.8922
 1786TIP3    H2 5365   0.063   0.631   4.903 -1.3771  0.9510  1.6312
 1787TIP3   OH2 5366   0.862   0.739   1.019 -0.1112 -0.1713 -0.3314
 1787TIP3    H1 5367   0.867   0.832   1.040 -1.3605  0.1975 -1.5624
 1787TIP3    H2 5368   0.952   0.716   0.993  0.2695  0.6119  0.2477
 1788TIP3   OH2 5369   5.419   3.334   1.215 -0.2843 -0.5958  0.9066
 1788TIP3    H1 5370   5.449   3.354   1.126  1.0778 -2.4347  0.8789
 1788TIP3    H2 5371   5.352   3.400   1.234 -1.9253 -1.2280 -2.1463
 1789TIP3   OH2 5372   3.346   5.880   4.672  0.3114  0.0939 -0.3791
 1789TIP3    H1 5373   3.326   5.849   4.584  0.8725  3.0545 -1.6567
 1789TIP3    H2 5374   3.374   5.801   4.719  0.3713 -1.5155 -2.9271
 1790TIP3   OH2 5375   3.488   2.783   3.233 -0.2367  0.8165 -0.3079
 1790TIP3    H1 5376   3.484   2.847   3.162 -1.8435  1.3415  0.2254
 1790TIP3    H2 5377   3.408   2.732   3.224  1.2660 -1.5460 -1.0603
 1791TIP3   OH2 5378   2.510   1.283   5.047 -0.2782 -0.3976 -0.5963
 1791TIP3    H1 5379   2.475   1.293   5.135 -1.2137 -3.1594 -0.5591
 1791TIP3    H2 5380   2.502   1.370   5.008  0.5282  1.0034  2.1145
 1792TIP3   OH2 5381   4.781   3.490   4.174  0.0653 -0.2982  0.5316
 1792TIP3    H1 5382   4.836   3.516   4.100  0.1473  0.7622  0.9532
 1792TIP3    H2 5383   4.839   3.441   4.232  0.1293 -0.6773  0.1571
 1793TIP3   OH2 5384   0.592   4.260   3.796 -0.2055  0.2145  0.2379
 1793TIP3    H1 5385   0.520   4.322   3.808 -0.0079  0.3717  0.6382
 1793TIP3    H2 5386   0.555   4.175   3.821 -0.5638  0.1141 -0.5962
 1794TIP3   OH2 5387   3.593   4.351   2.611 -0.1672  0.1131  0.5876
 1794TIP3    H1 5388   3.682   4.323   2.589 -0.2654  0.7801 -0.7831
 1794TIP3    H2 5389   3.537   4.277   2.587  0.0368 -0.5412  2.0053
 1795TIP3   OH2 5390   1.410   4.972   0.193 -0.3059 -0.0435 -0.0663
 1795TIP3    H1 5391   1.501   4.943   0.184 -0.0428  0.3285  1.1489
 1795TIP3    H2 5392   1.396   4.979   0.288 -2.5478 -2.9598 -0.0326
 1796TIP3   OH2 5393   2.188   3.570   3.386 -0.1574 -0.6604  0.3024
 1796TIP3    H1 5394   2.169   3.498   3.445  0.8613  0.0345  1.5287
 1796TIP3    H2 5395   2.112   3.575   3.328 -0.8902 -1.7650  1.1441
 1797TIP3   OH2 5396   1.368   5.597   0.545  0.1042 -0.7857  0.1168
 1797TIP3    H1 5397   1.356   5.622   0.637 -0.9086 -0.5461 -0.0686
 1797TIP3    H2 5398   1.459   5.569   0.540  0.3614 -0.1861  1.0529
 1798TIP3   OH2 5399   0.535   5.964   3.678  0.0683  0.0620 -0.0757
 1798TIP3    H1 5400   0.563   6.048   3.714  0.8609 -0.2662  0.0995
 1798TIP3    H2 5401   0.508   5.913   3.754  0.2071 -0.0664 -0.1118
 1799TIP3   OH2 5402   4.903   3.161   1.458 -0.2429  0.1192 -0.1845
 1799TIP3    H1 5403   4.850   3.099   1.508 -1.2618  1.1968  0.1188
 1799TIP3    H2 5404   4.840   3.225   1.425  0.8551  1.3714  0.0737
 1800TIP3   OH2 5405   4.291   2.476   2.921 -0.1277 -0.4394  0.0920
 1800TIP3    H1 5406   4.211   2.430   2.944  0.3974 -1.6302 -0.4088
 1800TIP3    H2 5407   4.357   2.443   2.982  0.0577  0.3303  0.3213
 1801TIP3   OH2 5408   5.374   1.286   3.783 -0.1061  0.1338  0.7259
 1801TIP3    H1 5409   5.346   1.372   3.813  1.1590  0.9068 -0.1855
 1801TIP3    H2 5410   5.468   1.284   3.801  0.1439 -0.5048 -0.5253
 1802TIP3   OH2 5411   5.772   4.986   2.686 -0.3948  0.5229 -0.4152
 1802TIP3    H1 5412   5.712   4.935   2.631  0.0968 -0.5267 -0.0102
 1802TIP3    H2 5413   5.757   4.953   2.775 -1.5707  2.5768  0.2206
 1803TIP3   OH2 5414   3.835   5.911   5.011 -0.5919 -0.2767  0.0089
 1803TIP3    H1 5415   3.741   5.904   4.997 -0.4571 -1.0299 -0.6099
 1803TIP3    H2 5416   3.865   5.977   4.949 -0.5373 -0.9550 -0.7044
 1804TIP3   OH2 5417   5.201   4.061   2.347 -0.4752  0.6416  0.6924
 1804TIP3    H1 5418   5.190   4.009   2.427  1.5300  0.6750  1.0198
 1804TIP3    H2 5419   5.113   4.063   2.308 -1.4493  0.4372  2.7549
 1805TIP3   OH2 5420   1.052   1.759   2.620  0.2996  0.4245  0.2822
 1805TIP3    H1 5421   1.065   1.847   2.585  0.8014  0.1261 -0.3021
 1805TIP3    H2 5422   1.017   1.709   2.546 -0.5766  0.2787  0.7819
 1806TIP3   OH2 5423   1.977   5.701   4.557  0.0341 -0.1916  0.0533
 1806TIP3    H1 5424   1.942   5.769   4.499 -1.4455 -1.3024 -0.4119
 1806TIP3    H2 5425   1.937   5.720   4.642 -0.2674 -0.3876 -0.0431
 1807TIP3   OH2 5426   1.230   2.500   4.388 -0.2759 -0.4743  0.8164
 1807TIP3    H1 5427   1.174   2.571   4.358  1.9752  1.0630 -0.0806
 1807TIP3    H2 5428   1.232   2.438   4.315  1.2866  0.8480 -0.3568
 1808TIP3   OH2 5429   2.505   0.749   3.457 -0.0558 -0.7117  0.5831
 1808TIP3    H1 5430   2.587   0.701   3.451 -0.1526 -0.8551  0.4001
 1808TIP3    H2 5431   2.489   0.757   3.551 -0.2832 -1.4613  0.6182
 1809TIP3   OH2 5432   0.436   4.080   4.942 -0.4876  0.2135  0.2096
 1809TIP3    H1 5433   0.522   4.113   4.969 -1.3272  1.7828  1.0492
 1809TIP3    H2 5434   0.457   4.008   4.882  1.4553  1.6537 -1.0017
 1810TIP3   OH2 5435   3.786   5.730   4.098 -0.6101 -0.2599  0.1188
 1810TIP3    H1 5436   3.861   5.767   4.143  0.6301 -1.4004 -0.9260
 1810TIP3    H2 5437   3.735   5.806   4.070 -0.2311  0.5098  1.4291
 1811TIP3   OH2 5438   0.992   3.094   1.874 -0.0509  0.0423  0.5983
 1811TIP3    H1 5439   0.903   3.075   1.905  0.4859 -1.1325  1.5263
 1811TIP3    H2 5440   1.024   3.161   1.934  0.2957 -0.8333  1.4338
 1812TIP3   OH2 5441   2.167   1.504   2.342  0.9348 -0.1064  0.1521
 1812TIP3    H1 5442   2.228   1.431   2.330 -1.1201 -1.7813 -0.6850
 1812TIP3    H2 5443   2.120   1.510   2.259 -3.5183 -2.2690  2.1733
 1813TIP3   OH2 5444   2.267   4.279   3.175 -0.1077  0.2021 -0.0756
 1813TIP3    H1 5445   2.257   4.260   3.268 -0.8022  1.1429  0.0542
 1813TIP3    H2 5446   2.293   4.195   3.137 -0.1399 -0.2767  0.9096
 1814TIP3   OH2 5447   1.158   4.715   1.201  0.0618 -0.5660 -0.3476
 1814TIP3    H1 5448   1.070   4.694   1.232  0.0597 -1.5764 -0.9819
 1814TIP3    H2 5449   1.145   4.755   1.115  0.1458  0.8409  0.2727
 1815TIP3   OH2 5450   4.730   4.242   3.414  0.2884  0.1405  0.0382
 1815TIP3    H1 5451   4.767   4.228   3.326 -0.2877  1.3902 -0.4307
 1815TIP3    H2 5452   4.800   4.215   3.474 -0.1193 -2.9982 -0.6973
 1816TIP3   OH2 5453   6.322   0.684   2.895 -0.2333  0.4898  0.5586
 1816TIP3    H1 5454   6.401   0.736   2.906 -1.1915  1.6951  2.2233
 1816TIP3    H2 5455   6.258   0.745   2.859 -0.6776 -0.2119  0.1339
 1817TIP3   OH2 5456   0.394   4.823   0.812  0.5869  0.5215 -0.1699
 1817TIP3    H1 5457   0.357   4.858   0.731  0.9441 -0.7280 -0.9045
 1817TIP3    H2 5458   0.424   4.900   0.860 -1.9355  1.4929 -0.0333
 1818TIP3   OH2 5459   3.158   2.476   1.671 -0.2244 -0.4061 -0.1749
 1818TIP3    H1 5460   3.144   2.538   1.743 -0.7248  0.1709 -0.7572
 1818TIP3    H2 5461   3.187   2.530   1.598 -0.3394 -0.9043 -0.5920
 1819TIP3   OH2 5462   2.804   1.251   5.007  0.5248 -0.4081 -0.1501
 1819TIP3    H1 5463   2.708   1.248   5.005  0.5668 -2.6900 -0.8951
 1819TIP3    H2 5464   2.825   1.296   5.090 -1.1514  0.5709 -0.2134
 1820TIP3   OH2 5465   4.491   1.878   5.095 -0.4094 -0.1849  0.2948
 1820TIP3    H1 5466   4.583   1.896   5.075 -0.6388  0.4748 -0.1994
 1820TIP3    H2 5467   4.480   1.908   5.185 -0.0020 -0.8127  0.5639
 1821TIP3   OH2 5468   3.352   1.255   0.900  0.3468 -0.1056  0.7251
 1821TIP3    H1 5469   3.297   1.319   0.854 -0.1363 -1.9797 -1.4825
 1821TIP3    H2 5470   3.442   1.281   0.879  0.2169  0.6677  1.0773
 1822TIP3   OH2 5471   2.313   1.791   5.035 -0.0382 -0.2094 -0.2304
 1822TIP3    H1 5472   2.328   1.783   5.129 -1.0817 -0.4685 -0.0683
 1822TIP3    H2 5473   2.349   1.711   4.998  0.3588 -0.1168 -0.0497
 1823TIP3   OH2 5474   2.630   4.358   2.612  0.7028  0.2532 -0.0901
 1823TIP3    H1 5475   2.640   4.429   2.675  1.0724  0.0350  0.1032
 1823TIP3    H2 5476   2.625   4.279   2.665 -0.7102  0.2167 -0.2589
 1824TIP3   OH2 5477   1.617   0.515   0.189  0.1853  0.2394 -0.2970
 1824TIP3    H1 5478   1.683   0.538   0.254 -1.5950  0.5575  1.4616
 1824TIP3    H2 5479   1.622   0.420   0.183 -0.1883  0.1204  0.9684
 1825TIP3   OH2 5480   6.153   1.420   0.445 -0.3562  0.0890  0.1211
 1825TIP3    H1 5481   6.074   1.370   0.466 -0.3821 -0.4869 -1.2792
 1825TIP3    H2 5482   6.188   1.446   0.531 -2.1657  0.5541  0.7665
 1826TIP3   OH2 5483   5.545   0.395   4.838 -0.1304  0.5659 -0.3607
 1826TIP3    H1 5484   5.516   0.308   4.867 -1.1243  1.3818  1.2104
 1826TIP3    H2 5485   5.513   0.401   4.747 -1.9466  0.0840  0.1918
 1827TIP3   OH2 5486   6.203   0.292   1.760  0.2230  0.1693 -0.1281
 1827TIP3    H1 5487   6.200   0.349   1.837  1.5356  0.0963  0.0088
 1827TIP3    H2 5488   6.296   0.290   1.736  0.3361 -2.4129  0.2665
 1828TIP3   OH2 5489   0.661   0.774   3.024 -0.5984  0.5610  0.5415
 1828TIP3    H1 5490   0.696   0.806   2.941  1.8847  0.1001  1.3388
 1828TIP3    H2 5491   0.708   0.824   3.091  0.5018 -1.9006  1.7303
 1829TIP3   OH2 5492   0.629   3.255   3.178 -0.0193  0.1881 -0.3093
 1829TIP3    H1 5493   0.695   3.280   3.243  1.6308 -2.2985 -0.8977
 1829TIP3    H2 5494   0.562   3.209   3.229  0.1686  0.1801 -0.0661
 1830TIP3   OH2 5495   0.919   3.879   2.957 -0.5765 -0.4392  0.0205
 1830TIP3    H1 5496   0.913   3.785   2.974  0.6859 -0.6162 -0.4337
 1830TIP3    H2 5497   1.010   3.901   2.975 -0.6434  0.5268 -0.7463
 1831TIP3   OH2 5498   2.067   4.224   4.005 -0.2825  0.0667 -0.2190
 1831TIP3    H1 5499   1.997   4.164   3.979  0.0385 -1.3326  1.9483
 1831TIP3    H2 5500   2.117   4.238   3.924 -1.3996 -1.1625 -1.1688
 1832TIP3   OH2 5501   1.947   5.725   4.837  0.1292  0.2484 -0.3880
 1832TIP3    H1 5502   1.973   5.633   4.852 -2.4072 -0.4479  0.2366
 1832TIP3    H2 5503   1.892   5.746   4.913 -1.6529  1.3205 -1.9148
 1833TIP3   OH2 5504   1.528   5.505   4.442 -0.2297  0.7269 -0.2519
 1833TIP3    H1 5505   1.517   5.516   4.536  1.1550  0.3859 -0.0261
 1833TIP3    H2 5506   1.500   5.415   4.425 -1.2635  1.0494 -0.3164
 1834TIP3   OH2 5507   5.294   5.767   0.886  0.1683  0.1780  0.0312
 1834TIP3    H1 5508   5.268   5.851   0.923 -1.7257  0.0037 -0.8157
 1834TIP3    H2 5509   5.239   5.757   0.808  1.2845 -1.2580 -0.6213
 1835TIP3   OH2 5510   0.918   3.563   5.073  0.1281  0.1498  0.0821
 1835TIP3    H1 5511   0.862   3.488   5.092 -0.1382 -0.1001 -1.5018
 1835TIP3    H2 5512   0.879   3.635   5.122 -1.3253 -0.1324 -0.5931
 1836TIP3   OH2 5513   4.894   5.011   1.260 -0.8167  0.6544 -0.6124
 1836TIP3    H1 5514   4.834   5.085   1.270  0.1882  1.6215 -1.5058
 1836TIP3    H2 5515   4.923   5.016   1.169  0.3190 -0.0366 -0.3074
 1837TIP3   OH2 5516   1.747   0.840   0.921 -0.6769 -0.1245 -0.1081
 1837TIP3    H1 5517   1.700   0.921   0.902  2.1778  1.9054  0.8476
 1837TIP3    H2 5518   1.826   0.844   0.867  0.9247 -0.8420  2.0376
 1838TIP3   OH2 5519   3.556   5.947   1.709  0.9449 -0.0533 -0.2831
 1838TIP3    H1 5520   3.627   5.889   1.738  0.9343  0.2481  0.3557
 1838TIP3    H2 5521   3.593   5.994   1.634  0.7708 -1.2684 -1.1724
 1839TIP3   OH2 5522   6.130   1.350   0.166 -0.3550 -0.5071  0.5671
 1839TIP3    H1 5523   6.037   1.339   0.146 -0.9895  0.7636  2.5977
 1839TIP3    H2 5524   6.134   1.351   0.262  1.7741 -0.6269  0.5217
 1840TIP3   OH2 5525   0.129   5.430   2.432 -0.0461 -0.2087 -0.7443
 1840TIP3    H1 5526   0.173   5.384   2.503  0.0600  0.0520 -0.6405
 1840TIP3    H2 5527   0.125   5.521   2.461  0.0703 -0.0869 -1.1109
 1841TIP3   OH2 5528   0.162   5.291   2.693  0.2718 -0.0771  0.5993
 1841TIP3    H1 5529   0.115   5.373   2.712 -0.2905 -0.5361  1.2332
 1841TIP3    H2 5530   0.102   5.242   2.636  0.5914 -0.0700  0.2518
 1842TIP3   OH2 5531   5.851   1.687   4.731  0.0548 -0.2138 -0.3910
 1842TIP3    H1 5532   5.767   1.657   4.764 -0.3906 -1.0110 -2.1341
 1842TIP3    H2 5533   5.883   1.748   4.797 -1.7969 -0.0351  0.3795
 1843TIP3   OH2 5534   1.234   1.184   0.197  0.5296  0.6268 -0.3439
 1843TIP3    H1 5535   1.216   1.219   0.284  2.0771  0.8496 -0.0742
 1843TIP3    H2 5536   1.197   1.249   0.137 -3.6536 -1.1434 -0.0046
 1844TIP3   OH2 5537   0.737   1.420   4.094 -0.3872 -0.4169  0.5263
 1844TIP3    H1 5538   0.789   1.349   4.056 -0.1565 -0.5684  1.1081
 1844TIP3    H2 5539   0.647   1.389   4.091 -0.2253 -0.9855  1.3082
 1845TIP3   OH2 5540   3.596   0.406   0.298  0.2019  0.0878 -0.4935
 1845TIP3    H1 5541   3.599   0.472   0.367  0.2981 -0.7460  0.3127
 1845TIP3    H2 5542   3.504   0.406   0.269  0.2624  0.7757 -0.7182
 1846TIP3   OH2 5543   2.319   5.184   2.020  0.3012 -0.4567 -0.1413
 1846TIP3    H1 5544   2.229   5.207   1.994 -0.0193 -0.9193  0.5185
 1846TIP3    H2 5545   2.309   5.147   2.108  1.1731 -0.3057  0.0253
 1847TIP3   OH2 5546   4.515   0.481   0.908 -0.6670  0.2569  0.1554
 1847TIP3    H1 5547   4.538   0.503   0.818 -0.1976 -1.4975 -0.2074
 1847TIP3    H2 5548   4.421   0.500   0.914 -0.7479  0.1951 -0.7799
 1848TIP3   OH2 5549   3.565   2.376   2.181  0.5234 -0.4356 -0.1340
 1848TIP3    H1 5550   3.520   2.338   2.256 -2.4638  2.1917 -0.3637
 1848TIP3    H2 5551   3.626   2.439   2.219  0.8684 -0.9141  0.1119
 1849TIP3   OH2 5552   0.138   3.798   2.533 -0.4167  0.4429 -0.0795
 1849TIP3    H1 5553   0.133   3.887   2.569 -1.1017 -0.1011  1.2173
 1849TIP3    H2 5554   0.053   3.784   2.491 -0.2025  0.4934 -0.5380
 1850TIP3   OH2 5555   0.321   2.467   3.150 -0.1780  0.8423  0.2354
 1850TIP3    H1 5556   0.242   2.426   3.116  0.2756  0.7759 -0.7557
 1850TIP3    H2 5557   0.320   2.556   3.114  0.5123  0.6407 -0.2908
 1851TIP3   OH2 5558   0.386   1.914   4.968  0.2753  0.2134 -0.3745
 1851TIP3    H1 5559   0.292   1.897   4.967  0.6014 -1.9470 -0.4889
 1851TIP3    H2 5560   0.418   1.874   4.887  1.1789  1.8602 -0.8646
 1852TIP3   OH2 5561   5.269   1.600   2.299  0.2235 -0.4071 -0.2391
 1852TIP3    H1 5562   5.357   1.572   2.274 -0.8053 -3.2022 -1.1332
 1852TIP3    H2 5563   5.213   1.567   2.229 -1.9455 -2.0238  2.0869
 1853TIP3   OH2 5564   4.014   1.474   4.542 -0.0833  0.3546  0.0217
 1853TIP3    H1 5565   4.100   1.516   4.543  0.0433  0.3108 -2.6623
 1853TIP3    H2 5566   4.034   1.380   4.538 -0.3645 -0.0328  3.9122
 1854TIP3   OH2 5567   4.354   3.651   3.639  0.0305 -0.0090 -0.4434
 1854TIP3    H1 5568   4.398   3.589   3.697  1.0478  0.9580 -0.1649
 1854TIP3    H2 5569   4.264   3.654   3.673  0.7506  1.0275  1.5379
 1855TIP3   OH2 5570   4.503   4.870   3.446 -0.2766  0.2632 -0.0174
 1855TIP3    H1 5571   4.589   4.853   3.484 -0.0559  1.0388 -0.1548
 1855TIP3    H2 5572   4.519   4.869   3.351 -0.5654 -0.3406 -0.0610
 1856TIP3   OH2 5573   5.283   4.564   2.897  0.0243 -0.2713 -0.7752
 1856TIP3    H1 5574   5.315   4.503   2.963 -0.2313  0.6193  0.1955
 1856TIP3    H2 5575   5.361   4.615   2.872 -0.1700  0.4434  0.0106
 1857TIP3   OH2 5576   3.079   3.644   3.188  0.2657  0.0901 -0.1572
 1857TIP3    H1 5577   3.116   3.575   3.133  0.5497  0.7939 -0.8737
 1857TIP3    H2 5578   3.025   3.598   3.252  0.8946 -0.8267 -0.2754
 1858TIP3   OH2 5579   4.187   1.349   3.547  0.3710  0.4989 -0.1362
 1858TIP3    H1 5580   4.147   1.279   3.599 -0.4544  1.0371 -0.0364
 1858TIP3    H2 5581   4.169   1.324   3.456  0.8187  0.1525 -0.1364
 1859TIP3   OH2 5582   4.938   0.317   1.403  0.3966 -0.5006  0.0463
 1859TIP3    H1 5583   4.942   0.230   1.444  2.8418 -0.7786 -0.6265
 1859TIP3    H2 5584   4.846   0.342   1.409 -0.1180 -2.5034  1.5662
 1860TIP3   OH2 5585   2.403   0.614   3.682 -0.5557 -0.3736  0.2013
 1860TIP3    H1 5586   2.325   0.656   3.716 -0.8262 -0.6798 -0.0366
 1860TIP3    H2 5587   2.464   0.612   3.756 -0.9857 -0.6575  0.5525
 1861TIP3   OH2 5588   3.017   4.953   2.128  0.6660 -0.2062 -0.2072
 1861TIP3    H1 5589   2.964   4.982   2.053  0.4389  0.7676  0.3131
 1861TIP3    H2 5590   3.099   4.923   2.089  1.1496  1.6838 -0.7860
 1862TIP3   OH2 5591   5.580   3.259   0.611 -0.1663  0.2361  0.4192
 1862TIP3    H1 5592   5.664   3.213   0.607 -1.4129 -2.4475  2.3142
 1862TIP3    H2 5593   5.591   3.322   0.683  0.0439 -0.5638  1.1017
 1863TIP3   OH2 5594   4.310   2.651   0.705  0.0140  0.2246 -1.1682
 1863TIP3    H1 5595   4.270   2.670   0.620  0.0551  0.0593 -1.2253
 1863TIP3    H2 5596   4.342   2.736   0.736 -2.5758  0.8757  0.0413
 1864TIP3   OH2 5597   2.282   0.479   2.838  0.6060 -0.4039  0.6523
 1864TIP3    H1 5598   2.332   0.401   2.863  1.2120 -0.1692  0.1991
 1864TIP3    H2 5599   2.195   0.465   2.876  1.5754  0.1364  3.3259
 1865TIP3   OH2 5600   5.162   4.093   3.072  0.1259  0.0503  0.1130
 1865TIP3    H1 5601   5.084   4.109   3.019  0.4020  0.4341 -0.1797
 1865TIP3    H2 5602   5.235   4.127   3.019  0.6310 -1.3453 -0.1353
 1866TIP3   OH2 5603   5.759   0.499   4.747 -0.0359 -0.0797  0.5375
 1866TIP3    H1 5604   5.670   0.478   4.775 -0.4708  1.3018  0.2720
 1866TIP3    H2 5605   5.813   0.478   4.824 -0.5561 -1.0399  0.6599
 1867TIP3   OH2 5606   1.653   1.476   0.504 -0.1141 -0.4334 -0.0944
 1867TIP3    H1 5607   1.739   1.435   0.508 -0.5093 -1.1676  1.2898
 1867TIP3    H2 5608   1.592   1.406   0.528 -0.8378  0.8445  1.9866
 1868TIP3   OH2 5609   5.128   5.422   2.905  0.6052  0.4194  0.0144
 1868TIP3    H1 5610   5.203   5.364   2.915 -0.6714 -2.0922 -3.0972
 1868TIP3    H2 5611   5.162   5.497   2.855  1.4768  0.4106  0.5853
 1869TIP3   OH2 5612   3.779   0.434   1.152 -0.4073 -0.4741 -0.4155
 1869TIP3    H1 5613   3.686   0.445   1.135  0.2258  3.9126 -2.2776
 1869TIP3    H2 5614   3.812   0.388   1.075 -0.6596  0.5772 -1.1720
 1870TIP3   OH2 5615   4.803   4.681   3.119 -0.3107 -0.4325 -0.2716
 1870TIP3    H1 5616   4.827   4.588   3.122  0.8285 -0.1412  0.0380
 1870TIP3    H2 5617   4.850   4.715   3.042  0.8214  0.2902  0.7113
 1871TIP3   OH2 5618   2.015   2.305   4.688 -0.2541  0.0915  0.7678
 1871TIP3    H1 5619   1.926   2.301   4.721  0.3116  0.3704  2.4350
 1871TIP3    H2 5620   2.045   2.214   4.687  0.2536  0.1881  2.6876
 1872TIP3   OH2 5621   0.197   4.087   0.384  0.2082 -0.1540  0.1741
 1872TIP3    H1 5622   0.277   4.055   0.342  1.9836  1.2140  2.2826
 1872TIP3    H2 5623   0.184   4.029   0.459 -0.6974 -0.2506 -0.0462
 1873TIP3   OH2 5624   3.055   2.240   1.509 -0.0642  0.4137  0.7836
 1873TIP3    H1 5625   3.037   2.199   1.593  2.0982 -1.6278  0.3643
 1873TIP3    H2 5626   3.122   2.306   1.528  0.7971 -0.3967  0.6326
 1874TIP3   OH2 5627   4.722   3.037   0.166  0.4670 -0.2057  0.2700
 1874TIP3    H1 5628   4.800   3.033   0.110  0.6073  0.0806  0.4417
 1874TIP3    H2 5629   4.757   3.050   0.254  0.3126 -2.0330  0.6265
 1875TIP3   OH2 5630   4.656   3.016   2.854 -0.3591  0.7916  0.7359
 1875TIP3    H1 5631   4.690   3.068   2.781 -0.1228  0.2423  0.4508
 1875TIP3    H2 5632   4.562   3.028   2.850 -0.5350 -0.8029 -0.8885
 1876TIP3   OH2 5633   0.691   3.141   4.127 -0.1421  0.4645 -0.6638
 1876TIP3    H1 5634   0.680   3.130   4.222 -0.2665  0.4663 -0.6778
 1876TIP3    H2 5635   0.784   3.125   4.112 -0.0231  0.9711 -0.4728
 1877TIP3   OH2 5636   0.876   1.842   2.342  0.0259 -0.1923 -0.0200
 1877TIP3    H1 5637   0.831   1.926   2.332 -1.2877 -0.8103  0.5344
 1877TIP3    H2 5638   0.967   1.861   2.318  0.0795  1.7221  1.4196
 1878TIP3   OH2 5639   5.392   1.986   4.949 -0.4446  0.9237 -0.5807
 1878TIP3    H1 5640   5.486   1.971   4.953 -0.8915 -2.5059  2.7528
 1878TIP3    H2 5641   5.362   1.930   4.878 -0.2186 -0.8143  0.6201
 1879TIP3   OH2 5642   0.647   4.931   4.085  0.0723  0.3608  0.2088
 1879TIP3    H1 5643   0.579   4.877   4.045 -0.2458 -0.4153  1.7325
 1879TIP3    H2 5644   0.701   4.869   4.135 -0.7064  1.4927  2.5591
 1880TIP3   OH2 5645   3.637   5.348   1.326 -0.2859 -0.3227 -0.0219
 1880TIP3    H1 5646   3.722   5.355   1.368  0.4606 -0.6495 -1.4313
 1880TIP3    H2 5647   3.598   5.435   1.334  0.2554 -0.1214  0.4515
 1881TIP3   OH2 5648   1.528   0.157   2.289 -0.2914 -0.1483 -0.1747
 1881TIP3    H1 5649   1.538   0.249   2.316  0.9032 -0.1890 -0.3964
 1881TIP3    H2 5650   1.434   0.140   2.293 -0.8254  1.7651 -2.2816
 1882TIP3   OH2 5651   4.447   3.345   0.538  0.6380 -0.1650  0.4306
 1882TIP3    H1 5652   4.392   3.356   0.460 -1.3909  0.4838  1.8696
 1882TIP3    H2 5653   4.475   3.253   0.534  0.9892 -0.0216 -1.2817
 1883TIP3   OH2 5654   0.902   5.076   5.043  0.1465  0.0353  0.1128
 1883TIP3    H1 5655   0.869   5.052   5.129  2.1656 -0.2063  0.8684
 1883TIP3    H2 5656   0.938   5.164   5.054  1.6428 -0.5250 -0.1092
 1884TIP3   OH2 5657   3.268   2.250   1.105 -0.3632 -0.2549  0.1911
 1884TIP3    H1 5658   3.294   2.204   1.185 -0.2604 -0.2106  0.1832
 1884TIP3    H2 5659   3.173   2.260   1.113 -0.8018 -2.6768 -0.9522
 1885TIP3   OH2 5660   2.284   5.076   4.082  0.0544 -0.1039  0.0856
 1885TIP3    H1 5661   2.319   5.003   4.133  1.3186  0.7814  0.5636
 1885TIP3    H2 5662   2.358   5.138   4.076 -1.2594  1.6044  0.6243
 1886TIP3   OH2 5663   0.414   2.055   3.466  0.0585  0.1173 -0.1727
 1886TIP3    H1 5664   0.404   2.011   3.381 -0.5932 -1.5146  0.7045
 1886TIP3    H2 5665   0.481   2.122   3.451  0.8989 -0.9984 -1.6427
 1887TIP3   OH2 5666   3.495   5.533   3.780 -0.0003  0.0027  0.6986
 1887TIP3    H1 5667   3.580   5.560   3.747  0.3010 -0.2943  1.2203
 1887TIP3    H2 5668   3.513   5.456   3.834 -0.5372  0.2018  1.1784
 1888TIP3   OH2 5669   6.240   0.431   3.935  0.4314 -0.3161  0.2986
 1888TIP3    H1 5670   6.238   0.464   3.845 -1.2261  2.1689  1.1291
 1888TIP3    H2 5671   6.251   0.509   3.988 -0.4602 -1.4917  2.3293
 1889TIP3   OH2 5672   2.400   1.781   0.624 -0.1157 -0.0762  0.1484
 1889TIP3    H1 5673   2.482   1.796   0.576 -0.5992 -0.4949 -0.8283
 1889TIP3    H2 5674   2.335   1.835   0.578 -0.4067  0.2268  0.8957
 1890TIP3   OH2 5675   2.791   4.568   3.488 -0.4718  0.0864 -0.0823
 1890TIP3    H1 5676   2.783   4.551   3.582 -1.7051 -0.7602 -0.3089
 1890TIP3    H2 5677   2.722   4.515   3.448  0.4535 -0.0927 -1.5351
 1891TIP3   OH2 5678   4.906   4.787   4.908  0.1534 -0.3226 -0.4562
 1891TIP3    H1 5679   4.824   4.766   4.864  0.0574 -1.4171  0.2161
 1891TIP3    H2 5680   4.881   4.807   4.998  0.6377 -0.8184 -0.2064
 1892TIP3   OH2 5681   3.739   5.545   3.624 -0.3610  0.3220  0.8112
 1892TIP3    H1 5682   3.798   5.552   3.550 -2.4673  0.2314 -0.9731
 1892TIP3    H2 5683   3.710   5.634   3.641 -2.7869 -0.0091 -1.0654
 1893TIP3   OH2 5684   3.553   3.483   3.582  0.3058  0.5081 -0.4106
 1893TIP3    H1 5685   3.603   3.483   3.664 -1.5489 -0.6973  0.7794
 1893TIP3    H2 5686   3.508   3.568   3.581  1.8572  1.3728 -1.2277
 1894TIP3   OH2 5687   1.898   5.177   3.397 -0.4888  0.3174 -0.4086
 1894TIP3    H1 5688   1.937   5.156   3.482  0.3034  0.5961 -0.6915
 1894TIP3    H2 5689   1.806   5.193   3.416 -1.1204 -2.9387 -0.0915
 1895TIP3   OH2 5690   5.846   3.578   2.691  0.2722  0.0151 -0.9162
 1895TIP3    H1 5691   5.753   3.556   2.697 -0.0319  1.6156  2.2501
 1895TIP3    H2 5692   5.891   3.507   2.736  0.5332 -0.3359 -1.7119
 1896TIP3   OH2 5693   2.941   5.444   3.997 -0.0375  0.0328 -0.2985
 1896TIP3    H1 5694   2.928   5.438   4.092  0.1616 -2.3054 -0.3412
 1896TIP3    H2 5695   2.989   5.364   3.975  1.4028  1.3364 -2.1622
 1897TIP3   OH2 5696   2.820   0.092   4.595  0.3648 -0.0756  0.0333
 1897TIP3    H1 5697   2.730   0.113   4.571  0.0052 -0.2980  1.0970
 1897TIP3    H2 5698   2.871   0.110   4.517 -0.7956 -1.3238 -1.0711
 1898TIP3   OH2 5699   1.516   5.002   3.551  0.1182  0.3785 -0.4938
 1898TIP3    H1 5700   1.444   5.038   3.498 -0.4628 -1.3839 -0.9811
 1898TIP3    H2 5701   1.569   5.078   3.575 -1.2955  1.5844 -1.0671
 1899TIP3   OH2 5702   0.919   2.181   3.971 -0.1897 -0.5596  0.0235
 1899TIP3    H1 5703   0.905   2.190   4.065 -1.9903 -0.8066 -0.1842
 1899TIP3    H2 5704   0.946   2.268   3.942 -0.2506 -0.3169  0.6679
 1900TIP3   OH2 5705   5.221   2.933   3.078 -0.9530 -0.3149 -0.0950
 1900TIP3    H1 5706   5.272   2.899   3.005 -0.7307 -0.9413  0.3405
 1900TIP3    H2 5707   5.133   2.946   3.043 -0.9070 -0.8444 -0.4073
 1901TIP3   OH2 5708   2.527   0.198   1.286 -0.1850 -0.4981  0.3315
 1901TIP3    H1 5709   2.470   0.268   1.255  1.2591 -0.3928 -2.5082
 1901TIP3    H2 5710   2.467   0.130   1.316 -2.0531 -0.8258 -3.4381
 1902TIP3   OH2 5711   0.257   3.602   2.265  0.0799 -0.3517  0.2262
 1902TIP3    H1 5712   0.183   3.637   2.215  0.7522 -0.3884 -0.8253
 1902TIP3    H2 5713   0.238   3.626   2.356 -2.1050 -1.9128  0.2570
 1903TIP3   OH2 5714   3.880   0.665   1.660  0.0698  0.2088  0.1081
 1903TIP3    H1 5715   3.809   0.633   1.604 -0.4544  0.3452  0.6888
 1903TIP3    H2 5716   3.917   0.586   1.699  0.2347  0.1376 -0.1889
 1904TIP3   OH2 5717   1.477   1.240   4.972  0.1165 -0.7209  0.2282
 1904TIP3    H1 5718   1.520   1.243   5.057  2.5203 -1.3790 -0.8868
 1904TIP3    H2 5719   1.384   1.253   4.992  0.7604  0.6622  2.7799
 1905TIP3   OH2 5720   3.064   0.468   2.151  0.0787 -0.4328  0.0211
 1905TIP3    H1 5721   3.108   0.546   2.118  0.6148 -1.0229 -0.7083
 1905TIP3    H2 5722   3.012   0.499   2.225  1.4122  0.3547  0.6556
 1906TIP3   OH2 5723   0.615   5.821   2.440 -0.1617 -0.1087  0.3141
 1906TIP3    H1 5724   0.535   5.828   2.387  0.3200 -0.4120 -0.4734
 1906TIP3    H2 5725   0.591   5.764   2.513 -0.2737 -1.4216 -0.7098
 1907TIP3   OH2 5726   3.873   5.380   2.374 -0.2358  0.3811 -0.3284
 1907TIP3    H1 5727   3.908   5.332   2.449  0.4267  1.2047 -0.0977
 1907TIP3    H2 5728   3.939   5.367   2.305 -0.5068  0.2045 -0.5612
 1908TIP3   OH2 5729   5.346   1.028   3.802  0.5907  0.2545 -0.1742
 1908TIP3    H1 5730   5.251   1.023   3.791  0.1673  1.7218  2.1613
 1908TIP3    H2 5731   5.368   1.119   3.781  1.3233  0.1766  0.2030
 1909TIP3   OH2 5732   5.663   1.999   2.364 -0.0742 -0.0729 -0.0972
 1909TIP3    H1 5733   5.736   1.958   2.317  2.1749  1.9674  1.3689
 1909TIP3    H2 5734   5.641   2.076   2.312 -2.1196 -1.2835 -1.1632
 1910TIP3   OH2 5735   3.008   3.903   4.155 -0.5085  0.3469  0.3400
 1910TIP3    H1 5736   3.000   3.966   4.227  1.0701 -0.6120  1.4294
 1910TIP3    H2 5737   2.966   3.824   4.189 -0.8561  0.2558 -0.2966
 1911TIP3   OH2 5738   6.175   2.137   1.203  0.6202 -0.1640 -0.4337
 1911TIP3    H1 5739   6.174   2.233   1.208 -0.8408 -0.1999  0.5668
 1911TIP3    H2 5740   6.257   2.116   1.158  1.2346  1.5237 -0.1595
 1912TIP3   OH2 5741   3.161   3.768   3.925  0.3229 -0.1717  0.0848
 1912TIP3    H1 5742   3.071   3.758   3.957  0.6863 -1.4085  0.7624
 1912TIP3    H2 5743   3.154   3.756   3.830 -0.1157 -1.0938  0.2237
 1913TIP3   OH2 5744   3.840   3.306   0.774 -0.4235 -0.0122  0.1585
 1913TIP3    H1 5745   3.933   3.284   0.780 -0.8070 -1.3473  2.6186
 1913TIP3    H2 5746   3.834   3.396   0.804  0.2091  0.6739 -1.6437
 1914TIP3   OH2 5747   0.135   0.346   2.031 -0.2032 -0.2431 -0.4816
 1914TIP3    H1 5748   0.118   0.340   2.125  3.4064  0.0933  0.3359
 1914TIP3    H2 5749   0.139   0.440   2.014  1.4653 -0.2601 -0.3784
 1915TIP3   OH2 5750   5.021   4.120   4.994  0.0645  0.8207  0.1564
 1915TIP3    H1 5751   5.005   4.029   4.967  0.2877  0.8966 -0.2372
 1915TIP3    H2 5752   4.974   4.173   4.929 -0.0478  0.9880  0.3733
 1916TIP3   OH2 5753   1.504   1.921  -0.009 -0.9470  0.1686  0.2205
 1916TIP3    H1 5754   1.555   1.986  -0.056  0.2517  0.6128  2.0070
 1916TIP3    H2 5755   1.488   1.961   0.077 -0.4927 -1.7173  1.2445
 1917TIP3   OH2 5756   1.355   3.732   2.242 -0.0999  0.1939  0.3475
 1917TIP3    H1 5757   1.385   3.811   2.197  1.2498 -0.9968 -0.9286
 1917TIP3    H2 5758   1.271   3.711   2.201 -0.5913  1.0635  0.8653
 1918TIP3   OH2 5759   2.097   1.788   0.301 -0.2332  0.2743 -0.3352
 1918TIP3    H1 5760   2.106   1.715   0.362 -0.8134 -0.3949 -1.0234
 1918TIP3    H2 5761   2.151   1.858   0.339 -1.4156  0.2625  1.5038
 1919TIP3   OH2 5762   1.768   3.332   0.037  0.2362  0.4032  0.0894
 1919TIP3    H1 5763   1.829   3.357   0.106 -0.0505 -0.0204  0.4986
 1919TIP3    H2 5764   1.783   3.239   0.023 -2.3229 -0.4725  2.2917
 1920TIP3   OH2 5765   3.038   5.823   0.400  0.0254 -0.1082 -0.4559
 1920TIP3    H1 5766   2.946   5.829   0.426  0.0324 -0.1931 -0.4123
 1920TIP3    H2 5767   3.062   5.732   0.419  0.3698  0.1498  0.3555
 1921TIP3   OH2 5768   0.854   4.547   4.040 -0.1035  0.2808 -0.1232
 1921TIP3    H1 5769   0.811   4.586   3.964  2.1685 -1.4829 -2.4674
 1921TIP3    H2 5770   0.848   4.453   4.026  3.1495 -0.0851  0.0837
 1922TIP3   OH2 5771   1.807   4.267   1.503 -0.3016  0.1240 -0.8347
 1922TIP3    H1 5772   1.713   4.278   1.519 -0.3503 -1.1109 -0.0849
 1922TIP3    H2 5773   1.835   4.350   1.465 -2.0017 -0.0264 -2.6020
 1923TIP3   OH2 5774   3.318   3.111   3.330  0.1737  0.0477  0.1547
 1923TIP3    H1 5775   3.402   3.139   3.295  0.3441 -0.2478  0.3234
 1923TIP3    H2 5776   3.273   3.073   3.254 -0.2964  1.2790 -0.2118
 1924TIP3   OH2 5777   4.385   1.845   4.476 -0.0572 -0.1969  0.3233
 1924TIP3    H1 5778   4.475   1.840   4.508 -0.4234 -1.3632  1.2485
 1924TIP3    H2 5779   4.393   1.837   4.381  1.0237  2.8469  0.0384
 1925TIP3   OH2 5780   4.791   3.303   4.642  0.5104  0.4055  0.6633
 1925TIP3    H1 5781   4.863   3.242   4.658  0.2225 -0.2359 -0.3499
 1925TIP3    H2 5782   4.724   3.278   4.705  1.2407  1.1584  1.7752
 1926TIP3   OH2 5783   3.064   4.696   1.982 -0.0006 -0.3772 -0.0309
 1926TIP3    H1 5784   2.969   4.685   1.981 -0.1346  0.7138 -0.4091
 1926TIP3    H2 5785   3.093   4.655   1.901 -0.4304  1.4010 -1.1370
 1927TIP3   OH2 5786   3.827   2.212   3.052 -0.1638 -0.5371 -0.2265
 1927TIP3    H1 5787   3.740   2.249   3.067 -0.7159 -1.2784 -1.4831
 1927TIP3    H2 5788   3.810   2.127   3.013  1.1221 -1.2814  0.7723
 1928TIP3   OH2 5789   0.586   4.679   4.637  0.2800 -0.9959 -0.1560
 1928TIP3    H1 5790   0.509   4.652   4.687 -0.9033 -0.4724 -1.6039
 1928TIP3    H2 5791   0.597   4.772   4.657  0.8315 -1.1776  0.4055
 1929TIP3   OH2 5792   3.866   5.585   1.726  0.1230 -0.0097  0.5970
 1929TIP3    H1 5793   3.882   5.680   1.729 -1.8806  0.3791  0.8569
 1929TIP3    H2 5794   3.799   5.570   1.793  0.0629 -1.5398  0.2297
 1930TIP3   OH2 5795   5.319   0.989   1.703 -0.0959 -0.1838 -0.0968
 1930TIP3    H1 5796   5.368   0.975   1.621 -0.5040 -0.3595 -0.3142
 1930TIP3    H2 5797   5.386   0.992   1.771  0.1056 -2.7642 -0.0735
 1931TIP3   OH2 5798   2.657   2.681   3.653  0.1019 -0.0032  0.2844
 1931TIP3    H1 5799   2.658   2.768   3.693  2.6091  0.2589 -0.2107
 1931TIP3    H2 5800   2.651   2.699   3.559  1.3855 -0.3020  0.1310
 1932TIP3   OH2 5801   4.505   4.406   4.781 -0.4744  0.3673 -0.4562
 1932TIP3    H1 5802   4.516   4.501   4.781 -1.7270  0.5295 -0.0632
 1932TIP3    H2 5803   4.416   4.392   4.748  0.3358 -0.7709 -2.2947
 1933TIP3   OH2 5804   0.525   2.520   3.412  0.8837 -0.2473  0.0030
 1933TIP3    H1 5805   0.477   2.557   3.337  0.4114 -1.2387 -0.1942
 1933TIP3    H2 5806   0.599   2.580   3.424  0.5375  0.3650 -0.7608
 1934TIP3   OH2 5807   1.505   0.428   4.206 -0.1185  0.5524 -0.4072
 1934TIP3    H1 5808   1.479   0.354   4.152  0.6853 -0.2791  0.3127
 1934TIP3    H2 5809   1.601   0.426   4.205 -0.0875  0.4871  1.0704
 1935TIP3   OH2 5810   2.266   3.982   1.177 -0.3567 -0.0506 -0.3657
 1935TIP3    H1 5811   2.287   3.944   1.262  0.6484 -1.3786 -1.1561
 1935TIP3    H2 5812   2.293   4.074   1.184  1.0284 -0.4828  0.3131
 1936TIP3   OH2 5813   6.335   1.601   4.871 -0.4092  0.7436 -0.6194
 1936TIP3    H1 5814   6.385   1.535   4.822  2.7324 -0.0491  3.1698
 1936TIP3    H2 5815   6.261   1.553   4.906  0.9962 -0.5301  0.7947
 1937TIP3   OH2 5816   3.676   5.800   2.591  0.0808  0.2760  0.2736
 1937TIP3    H1 5817   3.654   5.887   2.557  0.7624 -0.1261 -1.3083
 1937TIP3    H2 5818   3.689   5.747   2.512  2.2379 -0.6086  1.1649
 1938TIP3   OH2 5819   3.939   0.944   0.397 -0.4782 -0.2978  0.2035
 1938TIP3    H1 5820   3.965   1.002   0.469 -0.0766 -0.0911 -0.1091
 1938TIP3    H2 5821   4.007   0.955   0.331 -1.4932  0.4798 -0.7448
 1939TIP3   OH2 5822   3.749   2.408   1.391 -0.1242  0.0854  0.1594
 1939TIP3    H1 5823   3.749   2.373   1.480 -3.0336  1.0942  0.6583
 1939TIP3    H2 5824   3.840   2.398   1.362  0.4961 -2.1463  2.4489
 1940TIP3   OH2 5825   0.694   2.014   4.679  0.0845  0.8580  0.3279
 1940TIP3    H1 5826   0.631   2.076   4.717 -0.4296  0.2536  0.4903
 1940TIP3    H2 5827   0.664   1.928   4.710  0.1940  0.4343 -0.6969
 1941TIP3   OH2 5828   3.200   5.246   3.692  0.2622  0.1149 -0.6062
 1941TIP3    H1 5829   3.229   5.314   3.753  1.2476 -1.3113  0.5995
 1941TIP3    H2 5830   3.261   5.173   3.707 -0.9170 -1.1329 -1.6335
 1942TIP3   OH2 5831   2.988   5.061   4.730 -0.5915  0.0501  0.1823
 1942TIP3    H1 5832   2.932   5.010   4.672 -0.1819 -1.2295  0.8792
 1942TIP3    H2 5833   3.043   5.113   4.671  0.3180 -1.7534 -0.6281
 1943TIP3   OH2 5834   5.230   5.021   5.003  0.4817 -0.2908  0.3527
 1943TIP3    H1 5835   5.166   5.023   4.933  1.1846 -0.2182 -0.3046
 1943TIP3    H2 5836   5.179   5.025   5.084 -0.3512 -0.7549 -0.1505
 1944TIP3   OH2 5837   5.871   2.855   1.712 -0.2344  0.0809  0.2223
 1944TIP3    H1 5838   5.865   2.760   1.700 -1.2518  0.3584 -1.8938
 1944TIP3    H2 5839   5.788   2.889   1.680  0.8073  1.8086 -0.8152
 1945TIP3   OH2 5840   4.137   5.511   3.351  0.5315  0.3129  0.2688
 1945TIP3    H1 5841   4.144   5.552   3.264 -0.3813  2.2733  1.0616
 1945TIP3    H2 5842   4.060   5.552   3.390 -0.9990 -2.8326  0.8604
 1946TIP3   OH2 5843   5.101   4.730   2.030  0.2098  0.1430  0.5408
 1946TIP3    H1 5844   5.060   4.750   1.946 -0.4396  0.5596  0.9478
 1946TIP3    H2 5845   5.175   4.673   2.008 -0.7374 -0.8467 -0.1951
 1947TIP3   OH2 5846   2.617   4.350   0.546 -0.4435 -0.0315 -0.3129
 1947TIP3    H1 5847   2.562   4.272   0.538 -1.5445  0.4821  1.6026
 1947TIP3    H2 5848   2.699   4.326   0.502 -1.5030 -1.4873 -1.6149
 1948TIP3   OH2 5849   1.250   5.586   0.288  0.1350 -0.1359 -0.4809
 1948TIP3    H1 5850   1.292   5.588   0.373 -0.7886 -0.6407  0.0012
 1948TIP3    H2 5851   1.275   5.669   0.247  0.7864  0.0024  0.1658
 1949TIP3   OH2 5852   1.287   4.024   1.529 -0.4065  0.0372 -0.0461
 1949TIP3    H1 5853   1.216   3.990   1.584 -0.7282  0.9917  0.1632
 1949TIP3    H2 5854   1.244   4.047   1.447 -0.3214  0.4873  0.0302
 1950TIP3   OH2 5855   1.679   0.715   3.347  0.3041  0.1642 -0.0514
 1950TIP3    H1 5856   1.733   0.786   3.382 -0.4391  0.0826  1.3251
 1950TIP3    H2 5857   1.707   0.637   3.395 -0.5582  0.0042  0.2128
 1951TIP3   OH2 5858   2.236   0.232   3.134 -0.2991 -0.5054 -0.0833
 1951TIP3    H1 5859   2.295   0.281   3.077  0.4401  0.1428  1.1725
 1951TIP3    H2 5860   2.295   0.179   3.188 -0.8286  0.1769  1.2143
 1952TIP3   OH2 5861   4.490   4.419   1.985  0.3109  0.0029  0.0968
 1952TIP3    H1 5862   4.561   4.463   2.032  1.5566 -0.2047 -1.5124
 1952TIP3    H2 5863   4.517   4.422   1.893 -1.4129 -0.7669 -0.4625
 1953TIP3   OH2 5864   1.688   0.987   2.956  0.4608 -0.1046 -0.1537
 1953TIP3    H1 5865   1.622   0.982   3.025  2.3919 -2.6643  1.7346
 1953TIP3    H2 5866   1.641   0.964   2.876 -1.4036  0.6562  0.6638
 1954TIP3   OH2 5867   5.448   5.394   0.085 -0.9927 -0.0133  0.1511
 1954TIP3    H1 5868   5.499   5.350   0.152 -0.5807  0.0940 -0.0839
 1954TIP3    H2 5869   5.501   5.471   0.062 -1.9779  0.9641  1.0033
 1955TIP3   OH2 5870   3.720   3.277   3.459 -0.0768  0.4147 -0.4680
 1955TIP3    H1 5871   3.675   3.343   3.511 -3.4593 -1.6950 -0.4886
 1955TIP3    H2 5872   3.667   3.268   3.380  1.2438 -1.1385 -1.2454
 1956TIP3   OH2 5873   3.146   1.954   0.456  0.1158  0.0742  0.6631
 1956TIP3    H1 5874   3.216   1.984   0.398  1.7900 -1.2907  1.8449
 1956TIP3    H2 5875   3.115   1.873   0.417 -1.7298  1.2596 -0.4920
 1957TIP3   OH2 5876   2.775   1.993   2.134  0.0825 -0.3048 -0.1218
 1957TIP3    H1 5877   2.798   2.020   2.223  1.3380  0.5542 -0.6709
 1957TIP3    H2 5878   2.682   1.971   2.139  0.2623 -0.8996  1.5331
 1958TIP3   OH2 5879   4.582   4.142   3.794  0.0182 -0.0560  0.0340
 1958TIP3    H1 5880   4.500   4.108   3.760  0.3395  1.0224 -1.9784
 1958TIP3    H2 5881   4.641   4.066   3.793 -0.1509 -0.1957 -1.3330
 1959TIP3   OH2 5882   0.732   1.674   3.531 -0.3108 -0.6727  0.6575
 1959TIP3    H1 5883   0.757   1.594   3.486  0.7460  0.4414 -0.8178
 1959TIP3    H2 5884   0.727   1.740   3.462 -1.7456  0.4211  1.7427
 1960TIP3   OH2 5885   3.879   1.470   3.607 -1.0007  0.0308 -0.1550
 1960TIP3    H1 5886   3.924   1.458   3.690 -0.2114 -1.2271 -0.7313
 1960TIP3    H2 5887   3.847   1.560   3.609  0.5612  0.5973  0.7564
 1961TIP3   OH2 5888   2.145   2.002   4.601  0.7859  0.1019 -0.0253
 1961TIP3    H1 5889   2.132   1.921   4.552  1.4686  0.2879 -0.5363
 1961TIP3    H2 5890   2.236   2.025   4.584  2.2541 -1.7016  4.1458
 1962TIP3   OH2 5891   1.932   2.706   2.408  0.1405  0.0507 -0.3130
 1962TIP3    H1 5892   1.902   2.618   2.384 -0.3177  0.5485 -1.5894
 1962TIP3    H2 5893   1.852   2.758   2.417  0.3575  0.1779  1.2234
 1963TIP3   OH2 5894   4.114   3.381   4.904 -0.0597 -0.3842 -0.2710
 1963TIP3    H1 5895   4.124   3.466   4.863  0.3067 -0.8210 -1.0968
 1963TIP3    H2 5896   4.027   3.351   4.877 -0.0361 -0.4409 -0.2836
 1964TIP3   OH2 5897   4.855   1.985   4.536 -0.6340 -0.8702  0.4243
 1964TIP3    H1 5898   4.898   2.013   4.617 -0.7632  0.1296  0.1632
 1964TIP3    H2 5899   4.918   1.925   4.496  0.5418  0.5402  0.0611
 1965TIP3   OH2 5900   5.968   5.458   2.006 -0.1164  0.0689 -0.9309
 1965TIP3    H1 5901   5.917   5.534   1.978 -1.2914 -0.8258 -1.2898
 1965TIP3    H2 5902   5.970   5.466   2.102  1.5030  1.6072 -1.0357
 1966TIP3   OH2 5903   0.082   5.727   0.449  0.1086  0.1297  0.3059
 1966TIP3    H1 5904   0.164   5.681   0.431  0.2518  0.3537  0.3797
 1966TIP3    H2 5905   0.031   5.665   0.501 -0.5217 -0.7353 -1.2643
 1967TIP3   OH2 5906   2.252   2.389   3.346 -0.3304  0.2308  0.1337
 1967TIP3    H1 5907   2.335   2.341   3.350 -0.5543 -0.0404  2.0743
 1967TIP3    H2 5908   2.276   2.480   3.359 -0.1398  0.4429 -1.4641
 1968TIP3   OH2 5909   4.274   4.374   0.793 -0.0711  0.0250 -0.3980
 1968TIP3    H1 5910   4.362   4.345   0.819 -1.0573 -1.7111  1.3079
 1968TIP3    H2 5911   4.244   4.307   0.732 -1.0034 -0.6187  0.7299
 1969TIP3   OH2 5912   6.258   1.862   1.278 -0.4410 -0.3353  0.0542
 1969TIP3    H1 5913   6.255   1.872   1.183  0.0821  0.6272  0.1262
 1969TIP3    H2 5914   6.326   1.796   1.292  0.3020  0.3459 -0.2105
 1970TIP3   OH2 5915   6.147   4.120   1.002 -0.0746  0.1711  0.7236
 1970TIP3    H1 5916   6.141   4.103   1.096  1.2594 -0.1732  0.7604
 1970TIP3    H2 5917   6.240   4.136   0.986 -0.0516 -1.2540 -0.7884
 1971TIP3   OH2 5918   0.332   3.305   1.902  0.0782  0.0035  0.3107
 1971TIP3    H1 5919   0.310   3.213   1.888 -0.4813  0.1942 -0.1140
 1971TIP3    H2 5920   0.288   3.328   1.984 -0.2475  0.0455  0.1232
 1972TIP3   OH2 5921   2.746   2.040   2.417  0.5598 -0.3000 -0.2771
 1972TIP3    H1 5922   2.688   1.981   2.465  1.8304  0.2215  2.0286
 1972TIP3    H2 5923   2.690   2.115   2.394 -0.2681 -0.9277 -0.3561
 1973TIP3   OH2 5924   0.222   0.815   0.843  0.0642 -0.0050 -0.0418
 1973TIP3    H1 5925   0.262   0.814   0.756 -1.1706 -0.0931 -0.6437
 1973TIP3    H2 5926   0.137   0.773   0.830 -0.9366  1.6471  0.7880
 1974TIP3   OH2 5927   5.031   3.409   0.484 -0.4781  0.3808 -0.2830
 1974TIP3    H1 5928   4.961   3.442   0.427  0.8266  0.5160 -1.8887
 1974TIP3    H2 5929   5.112   3.430   0.437  0.8707  2.5734  2.6551
 1975TIP3   OH2 5930   4.038   0.638   2.607 -0.5261  0.2804  0.0994
 1975TIP3    H1 5931   4.071   0.698   2.540 -2.3829  0.6597 -0.5213
 1975TIP3    H2 5932   3.945   0.628   2.587 -0.4840 -2.0730  0.7665
 1976TIP3   OH2 5933   3.795   5.612   3.135 -0.0479  0.3378  0.4192
 1976TIP3    H1 5934   3.717   5.571   3.096  0.6318 -1.7819  1.1516
 1976TIP3    H2 5935   3.868   5.577   3.085  0.5638  0.6557  1.0785
 1977TIP3   OH2 5936   1.406   1.181   4.358  0.4384 -0.0131  0.0594
 1977TIP3    H1 5937   1.379   1.137   4.278 -1.6605  1.6596 -0.2582
 1977TIP3    H2 5938   1.500   1.195   4.348  0.7095 -2.1010 -0.8972
 1978TIP3   OH2 5939   1.722   0.963   3.672 -0.6610 -0.1830 -0.1111
 1978TIP3    H1 5940   1.640   1.005   3.647 -1.4030 -1.6712 -0.2892
 1978TIP3    H2 5941   1.717   0.956   3.767 -2.0652 -2.7064 -0.2702
 1979TIP3   OH2 5942   4.247   5.598   1.153  0.3824 -0.3681 -0.2619
 1979TIP3    H1 5943   4.250   5.521   1.097 -0.3296 -0.4397 -0.2134
 1979TIP3    H2 5944   4.263   5.672   1.093  1.4417 -0.5759 -0.2411
 1980TIP3   OH2 5945   2.867   4.556   0.876 -0.1107  0.3131  0.3267
 1980TIP3    H1 5946   2.803   4.617   0.912 -1.7272 -2.1405  1.9036
 1980TIP3    H2 5947   2.828   4.469   0.890  1.5300 -1.0906 -2.8093
 1981TIP3   OH2 5948   5.266   2.012   2.398 -0.3405 -0.1842  0.0053
 1981TIP3    H1 5949   5.272   1.935   2.454  2.4820 -1.0871 -1.3441
 1981TIP3    H2 5950   5.295   2.085   2.454 -1.4469 -0.3408  0.8156
 1982TIP3   OH2 5951   3.341   2.268   3.444 -0.0231  0.7422 -0.1538
 1982TIP3    H1 5952   3.402   2.314   3.502 -0.1659  0.0244  0.5918
 1982TIP3    H2 5953   3.267   2.246   3.501 -0.1555 -0.0040 -0.6107
 1983TIP3   OH2 5954   0.892   0.216   4.139 -0.2854  0.7884 -0.2052
 1983TIP3    H1 5955   0.902   0.213   4.043 -0.1679 -1.3532 -0.1668
 1983TIP3    H2 5956   0.981   0.207   4.172 -0.3090  1.7033  0.1257
 1984TIP3   OH2 5957   3.021   5.115   0.534 -0.4227 -0.2945 -0.3075
 1984TIP3    H1 5958   3.062   5.196   0.564  0.6033 -1.3841  1.3966
 1984TIP3    H2 5959   2.927   5.135   0.533 -0.1765  0.9768 -0.1772
 1985TIP3   OH2 5960   3.071   2.447   0.311 -0.1402  0.0062  0.2604
 1985TIP3    H1 5961   3.117   2.491   0.383 -0.7172 -0.1284  0.7286
 1985TIP3    H2 5962   2.979   2.470   0.326 -0.1650  0.8238 -1.0373
 1986TIP3   OH2 5963   0.552   5.089   1.561  0.1499  0.6611  0.1340
 1986TIP3    H1 5964   0.625   5.059   1.508  1.3603  0.4058  1.8686
 1986TIP3    H2 5965   0.592   5.139   1.633 -1.4478  1.4854  0.5135
 1987TIP3   OH2 5966   6.266   0.795   2.497 -0.6496 -0.7549 -0.7064
 1987TIP3    H1 5967   6.199   0.807   2.565  0.0411 -0.9994  0.0330
 1987TIP3    H2 5968   6.349   0.806   2.543 -0.1725 -0.2494 -1.6545
 1988TIP3   OH2 5969   4.420   1.758   3.718 -0.5482 -0.0810 -0.3404
 1988TIP3    H1 5970   4.485   1.794   3.658 -0.2019  0.6618  0.4561
 1988TIP3    H2 5971   4.406   1.668   3.687  1.6107 -0.6069  0.0585
 1989TIP3   OH2 5972   0.538   2.653   1.593  0.4910 -0.2957  0.6113
 1989TIP3    H1 5973   0.516   2.746   1.601  0.4439 -0.4493  2.9281
 1989TIP3    H2 5974   0.630   2.648   1.619  0.4986 -0.9003  0.4863
 1990TIP3   OH2 5975   6.023   1.176   1.061  0.2678 -0.0725 -0.7624
 1990TIP3    H1 5976   6.085   1.172   1.134 -0.6723  0.7615  0.1123
 1990TIP3    H2 5977   6.057   1.113   0.998  2.0499  0.4065 -0.3522
 1991TIP3   OH2 5978   2.309   4.207   5.072  0.1169 -0.5907  0.4473
 1991TIP3    H1 5979   2.320   4.271   5.142  1.9736 -1.0390  0.6100
 1991TIP3    H2 5980   2.313   4.258   4.991  0.3277 -0.3505  0.6077
 1992TIP3   OH2 5981   6.110   3.096   3.740 -0.4400  0.1178  0.1218
 1992TIP3    H1 5982   6.181   3.149   3.705 -0.0172 -0.2212  0.4604
 1992TIP3    H2 5983   6.119   3.103   3.835 -1.1420  0.4510  0.1756
 1993TIP3   OH2 5984   2.182   0.376   2.406  0.3669 -0.1093  0.3443
 1993TIP3    H1 5985   2.091   0.350   2.422  0.1841  0.4631  0.2390
 1993TIP3    H2 5986   2.233   0.299   2.431 -0.1732 -0.5991 -0.0171
 1994TIP3   OH2 5987   5.490   3.256   3.276  0.2761 -0.4465  0.1994
 1994TIP3    H1 5988   5.555   3.307   3.323  1.5726 -0.7406 -1.2159
 1994TIP3    H2 5989   5.458   3.193   3.341  2.8882 -1.6459  0.4277
 1995TIP3   OH2 5990   2.790   5.800   0.515  0.5582  0.2044  0.0023
 1995TIP3    H1 5991   2.697   5.778   0.502  0.6217  0.0359 -0.1873
 1995TIP3    H2 5992   2.816   5.750   0.592  0.4411  0.4030  0.1713
 1996TIP3   OH2 5993   4.694   5.205   1.286  0.2265 -0.6366 -0.1867
 1996TIP3    H1 5994   4.716   5.278   1.344 -2.2426 -0.2287  0.3269
 1996TIP3    H2 5995   4.668   5.246   1.204 -0.0728 -1.0106 -0.2792
 1997TIP3   OH2 5996   3.629   3.674   2.537  0.4848 -0.0635  0.7311
 1997TIP3    H1 5997   3.672   3.701   2.456  0.6703 -2.3459  0.0166
 1997TIP3    H2 5998   3.632   3.752   2.593  1.4165  1.1954 -0.9988
 1998TIP3   OH2 5999   1.424   2.698   4.692 -0.5643  0.1447  0.2073
 1998TIP3    H1 6000   1.363   2.625   4.703  1.0956 -1.3979 -0.3079
 1998TIP3    H2 6001   1.472   2.703   4.775 -0.2559  0.2243  0.0299
 1999TIP3   OH2 6002   3.193   0.531   4.617 -0.4483  0.3536  0.1236
 1999TIP3    H1 6003   3.227   0.454   4.662 -4.0026 -0.8344  1.0578
 1999TIP3    H2 6004   3.266   0.593   4.619  2.1536 -2.4745  0.4229
 2000TIP3   OH2 6005   2.567   1.549   5.188 -0.4500  0.0248 -0.6394
 2000TIP3    H1 6006   2.505   1.620   5.208  2.3432  2.0909  1.3658
 2000TIP3    H2 6007   2.608   1.576   5.106 -1.6610 -1.0315 -1.6352
 2001TIP3   OH2 6008   3.836   0.782   1.261  0.8778 -0.3411 -0.5139
 2001TIP3    H1 6009   3.884   0.817   1.186  1.5586 -0.7051 -0.2608
 2001TIP3    H2 6010   3.863   0.837   1.334  0.8430 -0.4916 -0.3865
 2002TIP3   OH2 6011   3.448   3.770   4.646  0.1335  0.4662  0.1816
 2002TIP3    H1 6012   3.480   3.712   4.576  0.7436  0.3033  0.5787
 2002TIP3    H2 6013   3.394   3.835   4.601 -0.1627 -0.1240 -0.3360
 2003TIP3   OH2 6014   4.750   4.232   2.162  0.3470 -0.4560 -0.4225
 2003TIP3    H1 6015   4.767   4.178   2.240  0.5122 -0.7991 -0.6942
 2003TIP3    H2 6016   4.834   4.236   2.117  0.4024  0.2548 -0.2666
 2004TIP3   OH2 6017   0.105   3.090   1.185  0.1890 -0.5203  0.0132
 2004TIP3    H1 6018   0.098   3.107   1.091  0.5838 -2.4497 -0.4038
 2004TIP3    H2 6019   0.014   3.086   1.216  0.0368 -0.5824 -0.4329
 2005TIP3   OH2 6020   1.561   4.599   4.958 -0.3872 -0.0764 -0.1036
 2005TIP3    H1 6021   1.604   4.667   4.905  0.6443  0.1364  0.9603
 2005TIP3    H2 6022   1.582   4.623   5.049 -1.0552 -1.1294  0.3447
 2006TIP3   OH2 6023   4.844   3.495   2.704 -0.4783  0.2248  0.0562
 2006TIP3    H1 6024   4.900   3.437   2.756 -4.2129 -1.4008  2.6562
 2006TIP3    H2 6025   4.849   3.458   2.615  2.1637 -0.0105  0.2074
 2007TIP3   OH2 6026   0.360   5.667   0.334 -0.1272  0.5986 -0.1725
 2007TIP3    H1 6027   0.426   5.597   0.338 -1.6121 -0.8706 -0.2504
 2007TIP3    H2 6028   0.382   5.716   0.255  0.3172 -0.4552 -0.7263
 2008TIP3   OH2 6029   5.922   5.182   3.813 -0.2693 -0.3593  0.4777
 2008TIP3    H1 6030   6.006   5.167   3.856 -0.4196  1.0660  1.3521
 2008TIP3    H2 6031   5.876   5.242   3.872 -0.5854  1.5201 -1.5455
 2009TIP3   OH2 6032   4.307   4.038   0.295 -0.8902 -0.0967  0.4878
 2009TIP3    H1 6033   4.362   4.020   0.219 -0.8124 -0.1476  0.5545
 2009TIP3    H2 6034   4.220   4.007   0.271 -0.8180 -0.3119  0.5000
 2010TIP3   OH2 6035   4.279   4.415   2.728 -0.0736 -0.2851 -0.2639
 2010TIP3    H1 6036   4.359   4.467   2.731  0.5377 -1.2328  0.6804
 2010TIP3    H2 6037   4.216   4.464   2.782  0.0686  0.1446 -0.4891
 2011TIP3   OH2 6038   5.194   5.126   0.509  0.6870 -0.4277 -0.1570
 2011TIP3    H1 6039   5.189   5.206   0.561 -1.4972 -1.4765  1.3876
 2011TIP3    H2 6040   5.212   5.156   0.420 -1.5442  1.9299  0.0642
 2012TIP3   OH2 6041   5.134   3.424   0.743 -0.2951 -0.6069 -1.2060
 2012TIP3    H1 6042   5.103   3.419   0.652 -2.9193  0.8205 -0.4672
 2012TIP3    H2 6043   5.087   3.354   0.789  0.8320 -1.1579 -0.8452
 2013TIP3   OH2 6044   4.970   2.017   3.961  0.2869  0.2705 -0.0374
 2013TIP3    H1 6045   4.892   2.049   3.916 -0.1752 -2.4055 -1.3250
 2013TIP3    H2 6046   5.043   2.046   3.907  0.3002  2.7672  1.1601
 2014TIP3   OH2 6047   1.638   5.706   0.726  0.2298  0.7391  0.3761
 2014TIP3    H1 6048   1.698   5.780   0.724  2.0553 -0.6681 -0.1721
 2014TIP3    H2 6049   1.663   5.653   0.651 -0.0305 -1.1409  1.5393
 2015TIP3   OH2 6050   0.806   0.503   1.097  0.5270 -0.3555  0.5360
 2015TIP3    H1 6051   0.829   0.595   1.081  0.5864 -0.3914  0.4181
 2015TIP3    H2 6052   0.732   0.507   1.158  0.5743 -0.2305  0.5845
 2016TIP3   OH2 6053   3.531   5.125   0.494 -0.1130 -0.6809 -0.0861
 2016TIP3    H1 6054   3.608   5.108   0.549 -1.4233 -1.0239  1.7390
 2016TIP3    H2 6055   3.539   5.064   0.421  1.0763 -1.0831  0.3581
 2017TIP3   OH2 6056   1.157   5.865   0.948  0.2574  0.1501  0.1223
 2017TIP3    H1 6057   1.197   5.926   0.886 -1.6231  1.6037  0.2313
 2017TIP3    H2 6058   1.080   5.832   0.902 -0.5647  0.4249  1.2518
 2018TIP3   OH2 6059   5.229   2.246   0.553  0.2419 -0.4220 -0.4935
 2018TIP3    H1 6060   5.201   2.257   0.463  0.9014 -2.0162 -0.9290
 2018TIP3    H2 6061   5.193   2.322   0.599  0.3761  0.7179 -2.1917
 2019TIP3   OH2 6062   0.596   2.173   1.868 -0.3480  0.2658  0.2601
 2019TIP3    H1 6063   0.502   2.171   1.888 -0.6402  1.5915 -0.8500
 2019TIP3    H2 6064   0.600   2.177   1.773  0.8662 -0.5379  0.2658
 2020TIP3   OH2 6065   4.663   5.452   1.079 -0.6829  0.4134 -0.7163
 2020TIP3    H1 6066   4.629   5.535   1.110 -0.2409  0.1377  0.5423
 2020TIP3    H2 6067   4.585   5.400   1.058 -0.9593  1.1416 -1.5516
 2021TIP3   OH2 6068   1.419   4.216   1.693  0.3593  0.0254  0.0046
 2021TIP3    H1 6069   1.413   4.125   1.665 -1.0627 -0.7129  2.4111
 2021TIP3    H2 6070   1.462   4.261   1.620 -1.5344 -1.9706 -2.5359
 2022TIP3   OH2 6071   0.237   4.068   2.903  0.7146 -0.4869  0.0070
 2022TIP3    H1 6072   0.193   4.046   2.985 -0.6610 -0.5446 -0.7173
 2022TIP3    H2 6073   0.232   4.164   2.898 -1.0690 -0.5915 -0.9652
 2023TIP3   OH2 6074   2.363   3.734   1.678 -0.0195  0.2879 -0.6096
 2023TIP3    H1 6075   2.294   3.798   1.695  0.6912  0.8964  0.0213
 2023TIP3    H2 6076   2.321   3.667   1.624 -1.6023 -0.3123  1.2788
 2024TIP3   OH2 6077   1.238   2.343   5.135  1.0715  0.4344 -0.4690
 2024TIP3    H1 6078   1.328   2.376   5.142  0.8439  1.2720 -1.2954
 2024TIP3    H2 6079   1.190   2.413   5.090  0.1774 -0.3241 -0.7255
 2025TIP3   OH2 6080   0.055   1.144   5.148 -0.3437  0.3880 -0.3339
 2025TIP3    H1 6081   0.067   1.056   5.112  1.1130  0.3350  0.1978
 2025TIP3    H2 6082   0.103   1.201   5.088 -0.0838  0.6229  0.0901
 2026TIP3   OH2 6083   3.400   0.747   4.367  0.1379  0.0118 -0.0481
 2026TIP3    H1 6084   3.358   0.810   4.309  0.3982 -1.1427 -1.5524
 2026TIP3    H2 6085   3.483   0.788   4.392 -0.3393  0.8582  0.1926
 2027TIP3   OH2 6086   2.406   5.715   4.074 -0.7719 -0.4253  0.1004
 2027TIP3    H1 6087   2.444   5.784   4.129  0.8425 -1.4916  0.4109
 2027TIP3    H2 6088   2.313   5.716   4.095 -0.7254  1.3776  0.3790
 2028TIP3   OH2 6089   2.638   2.154   1.289 -0.1618  0.2512 -0.7773
 2028TIP3    H1 6090   2.660   2.069   1.326  0.8985  0.9153  0.2115
 2028TIP3    H2 6091   2.583   2.196   1.355  0.5105  0.8795 -0.6064
 2029TIP3   OH2 6092   2.191   2.033   2.471  0.3145  0.0076 -0.3854
 2029TIP3    H1 6093   2.205   1.942   2.444  1.1788  0.0658 -0.1584
 2029TIP3    H2 6094   2.121   2.064   2.414 -1.1065 -1.2705  0.5625
 2030TIP3   OH2 6095   2.685   5.413   4.037  0.1478 -0.2749 -0.1105
 2030TIP3    H1 6096   2.771   5.412   3.994  0.3459  0.8212  0.2329
 2030TIP3    H2 6097   2.624   5.437   3.967  0.3761  0.7853  0.0347
 2031TIP3   OH2 6098   0.489   0.961   0.535  0.2095  0.7564 -0.5933
 2031TIP3    H1 6099   0.449   1.047   0.546  2.0054  1.6335 -0.6557
 2031TIP3    H2 6100   0.582   0.975   0.552  0.1767 -1.8589  3.2764
 2032TIP3   OH2 6101   6.054   5.050   2.558 -0.2973  0.5187 -0.5247
 2032TIP3    H1 6102   5.985   5.056   2.625  0.9965 -0.6264  1.0010
 2032TIP3    H2 6103   6.127   5.099   2.594  1.0241 -1.5200 -0.2333
 2033TIP3   OH2 6104   3.634   1.883   4.201  0.1745 -0.1642 -0.0862
 2033TIP3    H1 6105   3.568   1.825   4.163 -0.9099  1.6992 -1.2282
 2033TIP3    H2 6106   3.717   1.839   4.183 -0.5888 -1.3312 -0.9405
 2034TIP3   OH2 6107   5.768   3.167   1.451  0.2237  0.0085  0.1805
 2034TIP3    H1 6108   5.745   3.187   1.360  1.4046  0.0526 -0.1273
 2034TIP3    H2 6109   5.685   3.145   1.493 -0.3268 -0.0675 -0.9209
 2035TIP3   OH2 6110   1.958   1.362   1.113  0.7766  0.4568  0.6040
 2035TIP3    H1 6111   1.944   1.289   1.174  0.2227  0.5313  0.5659
 2035TIP3    H2 6112   1.957   1.440   1.169  3.4698  0.3419  0.9857
 2036TIP3   OH2 6113   1.179   1.195   0.697  0.1991  0.9335  0.2951
 2036TIP3    H1 6114   1.104   1.211   0.754 -0.5917  0.2738 -0.5462
 2036TIP3    H2 6115   1.234   1.133   0.745 -1.2363 -0.8491 -0.2893
 2037TIP3   OH2 6116   0.832   5.204   0.947  0.1214 -0.2809 -0.1999
 2037TIP3    H1 6117   0.766   5.184   1.013  0.3511  0.8717  0.3911
 2037TIP3    H2 6118   0.914   5.208   0.996  0.6139 -1.4490 -0.8876
 2038TIP3   OH2 6119   5.006   3.303   2.095  0.5546 -0.2553 -0.0691
 2038TIP3    H1 6120   5.066   3.256   2.037  0.6330 -1.9935  1.3371
 2038TIP3    H2 6121   4.938   3.239   2.116 -1.3003  1.3770 -0.8385
 2039TIP3   OH2 6122   6.240   2.899   3.129 -0.2365  0.5450 -0.0715
 2039TIP3    H1 6123   6.236   2.871   3.037 -0.3008  1.1143 -0.2460
 2039TIP3    H2 6124   6.261   2.819   3.177 -1.9301 -0.1400 -0.3959
 2040TIP3   OH2 6125   5.038   0.330   1.778  0.0045  0.0866 -0.1397
 2040TIP3    H1 6126   5.040   0.395   1.849 -0.4110 -0.5709  0.4842
 2040TIP3    H2 6127   4.953   0.342   1.737 -0.2063 -0.2692  0.1829
 2041TIP3   OH2 6128   5.559   4.736   2.194  0.4332 -0.9456  0.0521
 2041TIP3    H1 6129   5.560   4.656   2.246  1.3302  0.3038  2.1225
 2041TIP3    H2 6130   5.651   4.756   2.178  0.1959 -0.7282 -1.1358
 2042TIP3   OH2 6131   2.137   1.157   2.839  0.0118  0.1270  0.0582
 2042TIP3    H1 6132   2.113   1.154   2.931 -0.1083 -1.3020  0.0091
 2042TIP3    H2 6133   2.226   1.121   2.836  0.6147  1.5863 -0.2260
 2043TIP3   OH2 6134   4.931   1.615   1.162  0.5180 -0.3998  0.2290
 2043TIP3    H1 6135   4.949   1.592   1.071 -0.2559 -0.5576  0.1078
 2043TIP3    H2 6136   4.995   1.683   1.182 -0.2664  0.7237 -0.9090
 2044TIP3   OH2 6137   6.122   4.654   0.019  0.0050  0.4385 -0.0768
 2044TIP3    H1 6138   6.030   4.637  -0.001  0.0254  1.3491 -1.0630
 2044TIP3    H2 6139   6.121   4.694   0.106 -0.5844  0.8095 -0.2465
 2045TIP3   OH2 6140   2.779   2.377   3.854 -0.6011  0.4403 -0.9670
 2045TIP3    H1 6141   2.840   2.315   3.814 -0.7812  0.2649 -0.9702
 2045TIP3    H2 6142   2.809   2.386   3.945 -1.2168 -0.4910 -0.6538
 2046TIP3   OH2 6143   5.451   5.439   2.332 -0.4784  0.3746 -0.0007
 2046TIP3    H1 6144   5.357   5.421   2.329 -0.3874  0.0271 -1.3107
 2046TIP3    H2 6145   5.478   5.445   2.240  1.2937 -2.3216  0.2273
 2047TIP3   OH2 6146   4.656   2.689   4.148  0.4731 -0.0712 -0.2564
 2047TIP3    H1 6147   4.586   2.633   4.117 -0.3930  0.0628  1.3309
 2047TIP3    H2 6148   4.689   2.645   4.227 -0.4063  1.7035  1.1958
 2048TIP3   OH2 6149   4.024   0.881   4.835  0.1019  0.0353  0.5069
 2048TIP3    H1 6150   3.978   0.964   4.829 -0.4372 -0.1235  2.0924
 2048TIP3    H2 6151   4.054   0.876   4.926 -0.9455 -2.0427  0.7966
 2049TIP3   OH2 6152   4.344   4.841   1.127  0.1819 -0.2171 -0.2440
 2049TIP3    H1 6153   4.381   4.915   1.079  0.6064 -0.0714  0.3059
 2049TIP3    H2 6154   4.370   4.764   1.076  0.6871 -0.0689 -0.2101
 2050TIP3   OH2 6155   4.602   5.019   1.476 -0.0884 -0.2601 -0.4072
 2050TIP3    H1 6156   4.600   5.069   1.395  1.5230  0.6853  0.0860
 2050TIP3    H2 6157   4.596   5.084   1.546  2.2277 -0.6326  0.2496
 2051TIP3   OH2 6158   0.065   0.955   1.148  0.5642 -0.1221  0.7517
 2051TIP3    H1 6159   0.026   0.890   1.206  1.9639 -1.5103  0.2013
 2051TIP3    H2 6160   0.159   0.936   1.149  0.8898  1.1967 -0.2916
 2052TIP3   OH2 6161   6.220   3.465   2.125  1.1698  0.2031  0.0771
 2052TIP3    H1 6162   6.279   3.426   2.189  0.7380 -0.9307 -0.1873
 2052TIP3    H2 6163   6.134   3.463   2.166  0.6643 -1.6850 -0.9582
 2053TIP3   OH2 6164   0.943   4.557   1.603  0.2689 -0.0438 -0.2008
 2053TIP3    H1 6165   1.039   4.555   1.597  0.2814 -0.0288 -0.0154
 2053TIP3    H2 6166   0.923   4.512   1.685 -0.0025 -2.2482 -1.3988
 2054TIP3   OH2 6167   6.088   3.671   1.412  0.4287  0.3522  0.2187
 2054TIP3    H1 6168   6.143   3.687   1.335 -1.0339  1.3995 -0.6704
 2054TIP3    H2 6169   6.116   3.736   1.476  0.8904  0.2236  0.1476
 2055TIP3   OH2 6170   0.976   2.647   2.817 -0.6331  0.4782  0.0878
 2055TIP3    H1 6171   0.899   2.701   2.836 -0.6197  0.2574  0.7824
 2055TIP3    H2 6172   1.013   2.627   2.903  1.4992  2.4463 -0.2684
 2056TIP3   OH2 6173   3.640   3.005   2.065 -0.0488  0.5507  0.2975
 2056TIP3    H1 6174   3.579   2.931   2.058  0.2412  0.3112  0.3148
 2056TIP3    H2 6175   3.670   3.002   2.156  0.1329  0.5583  0.2369
 2057TIP3   OH2 6176   1.728   2.533  -0.018  0.3367 -0.7001 -0.1874
 2057TIP3    H1 6177   1.693   2.613   0.022  1.5701 -1.0539  1.7726
 2057TIP3    H2 6178   1.697   2.463   0.039  0.6910 -1.4413 -0.8853
 2058TIP3   OH2 6179   6.345   5.860   1.681 -0.2699 -0.0392 -0.4478
 2058TIP3    H1 6180   6.301   5.942   1.662 -1.7523 -0.5991  0.3661
 2058TIP3    H2 6181   6.328   5.804   1.605 -0.1609  0.0590 -0.5436
 2059TIP3   OH2 6182   5.760   2.186   4.988 -0.1926 -0.1258  0.3356
 2059TIP3    H1 6183   5.683   2.236   4.960 -0.4419  0.4647  1.9683
 2059TIP3    H2 6184   5.726   2.100   5.012 -0.4158  0.2552  1.4110
 2060TIP3   OH2 6185   4.755   4.207   2.603 -0.2317  0.1388 -0.0531
 2060TIP3    H1 6186   4.844   4.223   2.572  0.0962 -0.6591  0.4475
 2060TIP3    H2 6187   4.751   4.112   2.618 -1.2950  0.1005 -0.4713
 2061TIP3   OH2 6188   3.582   5.463   4.409 -0.1141 -0.0293 -0.6683
 2061TIP3    H1 6189   3.511   5.517   4.445 -0.7161 -1.4900  0.4079
 2061TIP3    H2 6190   3.553   5.373   4.422  2.2068 -0.6859  0.3549
 2062TIP3   OH2 6191   1.049   2.107   1.256  0.1443 -0.4578 -0.7287
 2062TIP3    H1 6192   0.972   2.051   1.262 -0.0765 -0.0169  1.1507
 2062TIP3    H2 6193   1.017   2.195   1.274  1.0253 -0.2328 -0.1888
 2063TIP3   OH2 6194   3.770   0.224   2.326 -0.0982  0.2238 -0.7538
 2063TIP3    H1 6195   3.841   0.284   2.349  1.8159 -1.8322 -0.9955
 2063TIP3    H2 6196   3.709   0.231   2.399 -0.6925  3.4452 -1.4093
 2064TIP3   OH2 6197   3.640   3.675   3.818  0.0637  0.0989 -0.4231
 2064TIP3    H1 6198   3.572   3.717   3.765  0.1759  1.0668  0.1661
 2064TIP3    H2 6199   3.722   3.694   3.772  0.0295 -0.2216 -0.6157
 2065TIP3   OH2 6200   2.229   5.036   1.054  0.8427 -0.2169 -0.2264
 2065TIP3    H1 6201   2.310   5.082   1.077  0.8213 -0.6739  0.8329
 2065TIP3    H2 6202   2.259   4.952   1.018  0.8518 -0.8280  1.1452
 2066TIP3   OH2 6203   0.132   0.901   0.334  0.2747  0.0280 -0.5472
 2066TIP3    H1 6204   0.221   0.896   0.298 -0.2443  1.0504 -2.1109
 2066TIP3    H2 6205   0.096   0.982   0.297 -1.5997 -0.8055 -0.6882
 2067TIP3   OH2 6206   0.438   5.134   2.004  0.1052  0.6730 -0.1196
 2067TIP3    H1 6207   0.350   5.132   1.966  0.5418 -0.5912 -1.1328
 2067TIP3    H2 6208   0.496   5.149   1.929  0.9276 -1.1694  0.1064
 2068TIP3   OH2 6209   2.579   3.298   4.745 -0.3442  0.0591 -0.1936
 2068TIP3    H1 6210   2.500   3.347   4.721 -0.1888  0.3036 -0.2125
 2068TIP3    H2 6211   2.598   3.244   4.668 -0.0212  0.6188 -0.5180
 2069TIP3   OH2 6212   2.794   1.030   2.092 -0.3228  0.1534  0.0175
 2069TIP3    H1 6213   2.873   1.064   2.135  0.6342 -0.8900 -0.8659
 2069TIP3    H2 6214   2.757   0.969   2.156 -0.5746  0.8396  0.5392
 2070TIP3   OH2 6215   1.955   3.489   1.305  0.1213 -0.3483 -0.5351
 2070TIP3    H1 6216   2.014   3.559   1.332  0.0030 -0.7223  0.7254
 2070TIP3    H2 6217   1.933   3.511   1.214  0.7045  0.8080 -0.4211
 2071TIP3   OH2 6218   5.349   4.303   0.456  0.1674 -0.5308 -0.8171
 2071TIP3    H1 6219   5.402   4.228   0.484 -0.1521 -0.7600 -0.8214
 2071TIP3    H2 6220   5.413   4.371   0.434  0.4363  0.4207  2.4026
 2072TIP3   OH2 6221   2.743   3.756   4.050  0.0087 -0.2251 -0.2436
 2072TIP3    H1 6222   2.834   3.737   4.073  0.6472  3.3352  0.7847
 2072TIP3    H2 6223   2.692   3.701   4.110  1.4430 -1.5795 -0.1710
 2073TIP3   OH2 6224   5.027   0.920   4.217 -0.8698  0.0211 -0.2876
 2073TIP3    H1 6225   5.066   0.836   4.196 -1.4754 -0.6125  0.9742
 2073TIP3    H2 6226   5.025   0.922   4.313 -1.8669  0.9779 -0.3037
 2074TIP3   OH2 6227   3.872   4.880   4.484 -0.0412 -0.0440  0.4813
 2074TIP3    H1 6228   3.900   4.845   4.399 -0.1130 -0.6359  0.6951
 2074TIP3    H2 6229   3.951   4.916   4.523  0.3758 -1.3652  0.9180
 2075TIP3   OH2 6230   4.708   0.693   1.426 -0.2859 -0.1191  0.4366
 2075TIP3    H1 6231   4.757   0.727   1.501  4.9381 -1.4348 -1.9203
 2075TIP3    H2 6232   4.745   0.739   1.351 -1.2676 -2.7215 -1.8062
 2076TIP3   OH2 6233   5.191   4.436   3.618 -0.7141  0.0185 -0.4966
 2076TIP3    H1 6234   5.114   4.482   3.585 -0.4880  0.5114 -0.3313
 2076TIP3    H2 6235   5.164   4.344   3.622 -0.3291 -0.3483 -3.4658
 2077TIP3   OH2 6236   3.644   2.774   4.982  0.1443 -0.5318 -0.0530
 2077TIP3    H1 6237   3.632   2.788   4.889 -0.5350 -0.5508  0.0288
 2077TIP3    H2 6238   3.710   2.838   5.007 -0.0191 -0.2018 -0.4560
 2078TIP3   OH2 6239   1.042   5.507   1.806  0.5185 -0.4925 -0.0963
 2078TIP3    H1 6240   0.979   5.449   1.848 -0.1894  0.4773  0.2317
 2078TIP3    H2 6241   0.995   5.590   1.796  0.9493 -0.4387 -2.0476
 2079TIP3   OH2 6242   3.688   3.016   3.819  0.1991 -0.3463 -0.6007
 2079TIP3    H1 6243   3.775   3.003   3.857  0.0023  0.7859  0.2996
 2079TIP3    H2 6244   3.681   2.949   3.750  2.0496 -0.0081 -1.1685
 2080TIP3   OH2 6245   2.243   0.915   0.960  0.3358  0.4805  0.2726
 2080TIP3    H1 6246   2.278   1.004   0.961  1.0669  0.2006  1.7104
 2080TIP3    H2 6247   2.319   0.859   0.942  0.0048  0.0973  0.0413
 2081TIP3   OH2 6248   0.395   2.828   3.440 -0.0136 -0.0259 -0.0960
 2081TIP3    H1 6249   0.401   2.778   3.521  2.1393  1.5550  0.8241
 2081TIP3    H2 6250   0.440   2.774   3.375 -0.2978 -0.5754  0.1589
 2082TIP3   OH2 6251   6.322   3.042   4.048  0.2437  0.0490 -0.5129
 2082TIP3    H1 6252   6.314   2.949   4.071 -1.6791  0.0692 -0.8835
 2082TIP3    H2 6253   6.351   3.042   3.957  2.3038 -0.1188  0.1003
 2083TIP3   OH2 6254   0.636   4.674   0.938 -0.0919 -0.2635 -0.0394
 2083TIP3    H1 6255   0.591   4.724   0.870 -0.2366  1.2814  1.1537
 2083TIP3    H2 6256   0.727   4.668   0.908 -0.0185  0.9465 -0.0835
 2084TIP3   OH2 6257   4.063   0.270   2.652  0.1408  0.4561  0.4723
 2084TIP3    H1 6258   4.024   0.322   2.581  0.8083  0.8404  0.3854
 2084TIP3    H2 6259   4.067   0.181   2.617  1.8686  0.9112 -0.5608
 2085TIP3   OH2 6260   4.219   5.040   2.248 -0.7162 -0.0947  0.5727
 2085TIP3    H1 6261   4.135   5.011   2.285 -0.3511  1.2373  2.5745
 2085TIP3    H2 6262   4.195   5.105   2.182 -1.2446  0.3709  1.2202
 2086TIP3   OH2 6263   1.101   2.034   2.685 -0.1589 -0.2394 -0.2088
 2086TIP3    H1 6264   1.083   2.128   2.674 -0.2338 -0.5701 -4.1707
 2086TIP3    H2 6265   1.191   2.031   2.718 -0.1664  1.2127  0.0059
 2087TIP3   OH2 6266   1.473   0.195   1.458 -0.0743  0.3775 -0.9109
 2087TIP3    H1 6267   1.541   0.186   1.525 -1.1000  0.5697  0.1971
 2087TIP3    H2 6268   1.462   0.290   1.449 -0.7975  0.3450 -0.4328
 2088TIP3   OH2 6269   0.718   0.539   1.960 -0.2524 -0.4103 -0.0969
 2088TIP3    H1 6270   0.670   0.568   1.882 -1.1863  0.3066  0.7160
 2088TIP3    H2 6271   0.810   0.559   1.941 -0.7195  2.2446 -0.0045
 2089TIP3   OH2 6272   3.588   5.721   4.784 -0.2066  0.1617  0.1367
 2089TIP3    H1 6273   3.671   5.678   4.806 -0.3444 -0.5687 -0.7075
 2089TIP3    H2 6274   3.606   5.766   4.702 -1.1666 -1.7003 -1.1702
 2090TIP3   OH2 6275   3.622   0.306   2.580  0.3388 -0.7017  0.2097
 2090TIP3    H1 6276   3.582   0.276   2.661 -0.1039 -0.9558 -0.1031
 2090TIP3    H2 6277   3.589   0.395   2.569 -0.4740 -1.0518 -0.2587
 2091TIP3   OH2 6278   4.566  -0.031   0.855 -0.6403  0.3401 -0.0327
 2091TIP3    H1 6279   4.617   0.050   0.844 -0.9226  0.4533 -0.5166
 2091TIP3    H2 6280   4.476  -0.005   0.840 -0.7674 -0.0051  0.1234
 2092TIP3   OH2 6281   3.350   4.301   4.058 -0.0656 -0.1104  0.3752
 2092TIP3    H1 6282   3.434   4.257   4.043  0.5749  1.2231 -0.0939
 2092TIP3    H2 6283   3.313   4.257   4.134  1.2833 -0.4022  0.8868
 2093TIP3   OH2 6284   4.040   3.662   4.094  0.5330 -0.2916  0.1563
 2093TIP3    H1 6285   3.988   3.731   4.053  1.9411  1.1123  0.6428
 2093TIP3    H2 6286   4.060   3.696   4.181  2.7711 -0.5110 -0.2254
 2094TIP3   OH2 6287   3.593   2.783   3.692 -0.0116 -0.3840  0.1886
 2094TIP3    H1 6288   3.530   2.755   3.758  1.1433 -0.3893  1.3298
 2094TIP3    H2 6289   3.544   2.844   3.636 -1.1437 -0.7583  0.7536
 2095TIP3   OH2 6290   1.305   2.840   2.004 -0.5721 -0.2300  0.4904
 2095TIP3    H1 6291   1.217   2.845   2.041 -1.0687  0.6750 -0.7332
 2095TIP3    H2 6292   1.316   2.748   1.979  0.0264 -1.0211  3.3431
 2096TIP3   OH2 6293   1.215   5.008   4.093  0.1323 -0.3605 -0.0910
 2096TIP3    H1 6294   1.150   5.020   4.023 -0.4837 -1.6251  0.2298
 2096TIP3    H2 6295   1.167   5.027   4.174  1.2227  2.5762  0.0003
 2097TIP3   OH2 6296   5.593   2.728   2.256  0.0507 -0.2949 -0.3498
 2097TIP3    H1 6297   5.578   2.802   2.316  0.2610  1.3854 -2.2516
 2097TIP3    H2 6298   5.510   2.681   2.254 -0.0641 -0.1739  0.9643
 2098TIP3   OH2 6299   1.483   5.392   0.808  0.0052 -0.2821 -0.4509
 2098TIP3    H1 6300   1.461   5.320   0.867 -0.6692 -0.7713 -1.2889
 2098TIP3    H2 6301   1.570   5.371   0.775 -0.3330 -0.9001 -0.9605
 2099TIP3   OH2 6302   4.921   4.516   0.960 -0.3873  0.4349 -0.1806
 2099TIP3    H1 6303   4.895   4.460   0.887  1.5866 -0.8025 -0.0115
 2099TIP3    H2 6304   4.856   4.586   0.961 -1.4078 -0.4104 -2.0751
 2100TIP3   OH2 6305   2.606   2.457   2.510  0.3796 -0.1904 -0.3269
 2100TIP3    H1 6306   2.582   2.491   2.596  0.9445  0.1113 -0.2840
 2100TIP3    H2 6307   2.529   2.475   2.455  0.7110  1.3316 -0.3408
 2101TIP3   OH2 6308   4.358   3.487   3.848 -0.0458  0.0858 -0.4923
 2101TIP3    H1 6309   4.313   3.407   3.876  0.9133  0.0701  1.0972
 2101TIP3    H2 6310   4.342   3.550   3.919  0.5173  0.8022 -0.9873
 2102TIP3   OH2 6311   0.512   0.884   3.623  0.0563  0.2429  0.0521
 2102TIP3    H1 6312   0.442   0.819   3.630  0.5726 -0.2202  1.2928
 2102TIP3    H2 6313   0.552   0.867   3.537 -1.6940  0.9070 -0.9406
 2103TIP3   OH2 6314   2.548   0.778   0.951 -0.0872  0.0879  0.3628
 2103TIP3    H1 6315   2.532   0.866   0.983  1.3904 -0.0770  1.6445
 2103TIP3    H2 6316   2.641   0.776   0.929 -0.6239 -0.3632 -2.3259
 2104TIP3   OH2 6317   3.638   5.767   0.169 -0.4172  0.2085 -0.0773
 2104TIP3    H1 6318   3.544   5.768   0.186 -0.3073  0.6456  0.5412
 2104TIP3    H2 6319   3.655   5.681   0.132 -0.7758 -0.5311  1.4197
 2105TIP3   OH2 6320   6.105   1.024   0.257  0.2921  0.3351 -0.1812
 2105TIP3    H1 6321   6.083   1.018   0.164  1.3594 -0.7689 -0.3961
 2105TIP3    H2 6322   6.137   0.937   0.280  1.2150  0.9197  0.9042
 2106TIP3   OH2 6323   3.152   0.869   3.144  0.3904 -0.1397 -0.1927
 2106TIP3    H1 6324   3.179   0.952   3.183  0.4004 -0.5757  0.7649
 2106TIP3    H2 6325   3.060   0.882   3.122  0.4343  0.1730 -0.2036
 2107TIP3   OH2 6326   2.470   4.468   1.887 -0.4501  0.0959 -0.7292
 2107TIP3    H1 6327   2.476   4.473   1.792  0.9133 -2.5886 -0.8522
 2107TIP3    H2 6328   2.415   4.392   1.904  0.1626 -0.0694  0.6185
 2108TIP3   OH2 6329   4.452   4.718   2.765  0.3607  0.3747 -0.3685
 2108TIP3    H1 6330   4.465   4.783   2.696  1.0829  1.3248  0.6397
 2108TIP3    H2 6331   4.357   4.708   2.771  0.0745  2.9572  0.8754
 2109TIP3   OH2 6332   5.743   5.864   4.872  0.2490  0.2252 -0.2055
 2109TIP3    H1 6333   5.667   5.872   4.814  0.0017  0.7376  0.1883
 2109TIP3    H2 6334   5.719   5.913   4.950  0.1763 -1.2639  0.7531
 2110TIP3   OH2 6335   0.907   2.615   0.070 -0.4871  0.3019 -0.0451
 2110TIP3    H1 6336   0.922   2.580  -0.018  0.8138  0.4205  0.1049
 2110TIP3    H2 6337   0.978   2.577   0.123  0.2418  2.1579  0.3855
 2111TIP3   OH2 6338   3.860   2.875   3.204 -0.2888  0.1601 -0.8059
 2111TIP3    H1 6339   3.822   2.907   3.122 -2.1649  0.7830  0.2345
 2111TIP3    H2 6340   3.804   2.801   3.229  1.6787 -1.5609 -1.2188
 2112TIP3   OH2 6341   2.110   0.250   4.445 -0.6166 -0.8047 -0.0953
 2112TIP3    H1 6342   2.188   0.289   4.404  0.1702 -1.5199  0.6763
 2112TIP3    H2 6343   2.065   0.324   4.484  0.1790 -0.4833  0.2453
 2113TIP3   OH2 6344   1.705   3.477   1.361  0.4090  0.2363  0.4696
 2113TIP3    H1 6345   1.800   3.478   1.359  0.4424  1.1073  1.5341
 2113TIP3    H2 6346   1.682   3.515   1.446 -0.8875  0.4215  0.0659
 2114TIP3   OH2 6347   5.850   0.251   1.262 -0.4201 -0.2746  0.8111
 2114TIP3    H1 6348   5.902   0.265   1.340  0.5285 -2.5169  0.6510
 2114TIP3    H2 6349   5.814   0.163   1.272 -1.8309  0.1132 -0.4189
 2115TIP3   OH2 6350   0.968   3.102   4.076  0.0218  0.0912  0.3976
 2115TIP3    H1 6351   1.000   3.106   3.986 -1.0169 -0.5319 -0.0145
 2115TIP3    H2 6352   0.961   3.194   4.102 -1.7815  0.3988 -0.9600
 2116TIP3   OH2 6353   3.574   2.367   4.068  0.3010 -0.6748  0.4252
 2116TIP3    H1 6354   3.589   2.442   4.125 -1.1364 -0.2626  0.2839
 2116TIP3    H2 6355   3.636   2.379   3.996  0.4449  0.0963  0.6703
 2117TIP3   OH2 6356   2.615   0.719   1.981  0.0850  0.2133  0.1934
 2117TIP3    H1 6357   2.575   0.802   2.007  0.1173  0.6149 -0.9777
 2117TIP3    H2 6358   2.696   0.714   2.033  1.2261  2.0163 -1.2987
 2118TIP3   OH2 6359   2.902   4.973   3.548 -0.6203  0.0432  0.3369
 2118TIP3    H1 6360   2.981   5.021   3.520 -0.7533  0.5388  0.8035
 2118TIP3    H2 6361   2.913   4.886   3.509  0.0776  0.1558  0.2567
 2119TIP3   OH2 6362   4.518   5.537   2.146  0.1588 -0.4859 -0.5490
 2119TIP3    H1 6363   4.449   5.600   2.125  1.1315  0.7397 -0.2347
 2119TIP3    H2 6364   4.479   5.480   2.213 -0.7369 -0.2107 -0.8259
 2120TIP3   OH2 6365   6.056   2.314   2.795 -0.2504  0.2049 -0.2820
 2120TIP3    H1 6366   6.044   2.235   2.742 -2.7643  0.2644  0.0922
 2120TIP3    H2 6367   6.146   2.307   2.828  0.1024 -1.7094 -1.4776
 2121TIP3   OH2 6368   4.483   4.835   4.285 -0.5013  0.1434  0.4393
 2121TIP3    H1 6369   4.493   4.811   4.193 -2.3709  1.8087 -0.2557
 2121TIP3    H2 6370   4.521   4.761   4.333  2.1314  0.0212 -1.6214
 2122TIP3   OH2 6371   4.588   3.929   3.137 -0.3462  0.1234 -0.2628
 2122TIP3    H1 6372   4.548   3.932   3.224 -1.2309  0.8583 -0.6817
 2122TIP3    H2 6373   4.622   4.017   3.123  0.0937 -0.0863 -0.5309
 2123TIP3   OH2 6374   0.629   4.835   0.150 -0.2951  0.2340 -0.3628
 2123TIP3    H1 6375   0.679   4.767   0.105  0.2556  0.4018 -0.0166
 2123TIP3    H2 6376   0.608   4.796   0.235  0.3479  0.6306 -0.0166
 2124TIP3   OH2 6377   6.344   3.722   2.185 -0.4593 -0.1983 -0.2952
 2124TIP3    H1 6378   6.301   3.701   2.102 -0.5121  0.2171 -0.3742
 2124TIP3    H2 6379   6.285   3.685   2.251  0.4613 -2.1105 -0.4748
 2125TIP3   OH2 6380   4.698   1.043   1.386  0.7905  0.2883 -0.4636
 2125TIP3    H1 6381   4.657   1.130   1.377  0.9466  0.3197 -0.9247
 2125TIP3    H2 6382   4.643   0.997   1.449 -0.2176  0.1827 -1.3811
 2126TIP3   OH2 6383   6.300   5.396   0.991 -0.0961  0.7259  0.3960
 2126TIP3    H1 6384   6.284   5.459   1.061  0.7433  0.0937  1.1819
 2126TIP3    H2 6385   6.394   5.403   0.974 -0.0179 -0.2239  0.4101
 2127TIP3   OH2 6386   5.032   4.712   2.952  0.0243 -0.4437 -0.0210
 2127TIP3    H1 6387   5.125   4.692   2.963 -0.0491 -0.3717  0.7861
 2127TIP3    H2 6388   5.004   4.656   2.879  0.8314 -0.0176 -0.6840
 2128TIP3   OH2 6389   0.722   2.426   1.946 -0.1702  0.5927  0.3819
 2128TIP3    H1 6390   0.630   2.433   1.920  0.1568 -2.6622 -2.3071
 2128TIP3    H2 6391   0.722   2.359   2.015  0.2140  0.2848  0.0848
 2129TIP3   OH2 6392   6.303   5.945   3.700 -0.7880 -0.0763  0.0583
 2129TIP3    H1 6393   6.392   5.961   3.732 -0.2886  0.6543 -1.5622
 2129TIP3    H2 6394   6.254   6.022   3.727 -0.6319  0.0471 -0.0054
 2130TIP3   OH2 6395   1.212   2.093   1.692  0.3705  0.2192  1.0848
 2130TIP3    H1 6396   1.140   2.087   1.629  0.8662 -0.7304  0.5822
 2130TIP3    H2 6397   1.286   2.124   1.640  0.4541  0.7152  1.4938
 2131TIP3   OH2 6398   1.204   1.689   1.303  0.0648  0.2221  0.0535
 2131TIP3    H1 6399   1.113   1.704   1.327 -0.0808  1.2999 -1.0960
 2131TIP3    H2 6400   1.204   1.679   1.208  1.1102  0.0332  0.0539
 2132TIP3   OH2 6401   3.885   4.273   2.658 -0.8152  0.1777  0.0376
 2132TIP3    H1 6402   3.839   4.287   2.741  0.2432 -0.1754  0.7049
 2132TIP3    H2 6403   3.874   4.180   2.640 -1.8512  0.4275 -0.7375
 2133TIP3   OH2 6404   0.944   4.596   3.580 -0.6106 -0.1382 -0.3938
 2133TIP3    H1 6405   0.873   4.551   3.626  0.5074 -1.6380 -0.0641
 2133TIP3    H2 6406   1.012   4.607   3.646  0.5747 -1.3043 -1.3621
 2134TIP3   OH2 6407   2.201   4.323   3.767  0.3640 -0.4609 -0.5804
 2134TIP3    H1 6408   2.210   4.399   3.824 -2.5178  1.3824 -2.3192
 2134TIP3    H2 6409   2.291   4.294   3.752  1.5514  2.0935  0.8049
 2135TIP3   OH2 6410   1.948   2.084   1.969  0.0654 -0.3418 -0.4724
 2135TIP3    H1 6411   1.990   2.012   2.017  0.0742 -0.2530 -0.3435
 2135TIP3    H2 6412   1.901   2.042   1.898 -0.4928 -0.5403  0.0021
 2136TIP3   OH2 6413   1.873   0.651   0.157 -0.4857 -0.8049  0.0834
 2136TIP3    H1 6414   1.872   0.593   0.234  0.2385  0.2089  0.8848
 2136TIP3    H2 6415   1.945   0.617   0.103 -1.0679 -1.5889 -0.2344
 2137TIP3   OH2 6416   2.598   2.580   4.379 -0.1508  0.5346  0.1312
 2137TIP3    H1 6417   2.681   2.536   4.360 -0.8474 -0.1489 -1.5218
 2137TIP3    H2 6418   2.623   2.666   4.413  1.2492  0.7990 -1.4726
 2138TIP3   OH2 6419   5.898   0.398   2.498 -0.1583  0.2312 -0.6020
 2138TIP3    H1 6420   5.812   0.370   2.468 -1.5372  1.8960  1.4578
 2138TIP3    H2 6421   5.948   0.317   2.508 -1.4065 -0.7565 -1.9825
 2139TIP3   OH2 6422   1.166   5.138   2.150 -0.1697 -0.2068  0.4381
 2139TIP3    H1 6423   1.110   5.215   2.154 -0.9348 -0.7273 -0.1245
 2139TIP3    H2 6424   1.121   5.078   2.091 -0.0626 -1.4739  1.6004
 2140TIP3   OH2 6425   3.420   2.221   2.381  0.2536 -0.3555  0.4322
 2140TIP3    H1 6426   3.419   2.155   2.451 -2.9320  0.1077  0.9795
 2140TIP3    H2 6427   3.372   2.180   2.309 -0.5759  0.8275  0.2787
 2141TIP3   OH2 6428   0.170   1.076   2.961 -0.4148  0.0406 -0.0923
 2141TIP3    H1 6429   0.106   1.081   2.890  0.1328 -0.5267 -0.6386
 2141TIP3    H2 6430   0.183   1.168   2.987 -2.2131  0.0944  0.7551
 2142TIP3   OH2 6431   0.003   2.983   0.253 -0.5526  0.0151  0.0158
 2142TIP3    H1 6432  -0.048   3.054   0.217 -1.0526 -0.3712 -0.0473
 2142TIP3    H2 6433   0.051   2.946   0.179  0.9777  1.2956  0.3049
 2143TIP3   OH2 6434   1.417   1.459   1.113  0.1873  0.1222  0.3788
 2143TIP3    H1 6435   1.335   1.493   1.149  0.4152  1.2113 -0.0951
 2143TIP3    H2 6436   1.482   1.525   1.136  0.9992 -0.8471  0.9649
 2144TIP3   OH2 6437   5.263   4.208   5.167 -0.3317  0.3872  0.1502
 2144TIP3    H1 6438   5.352   4.233   5.142  0.9194 -3.0717  0.6881
 2144TIP3    H2 6439   5.212   4.215   5.086  0.5941  1.6001 -0.3489
 2145TIP3   OH2 6440   4.845   1.907   1.385 -0.0198 -0.0943 -0.1365
 2145TIP3    H1 6441   4.816   1.877   1.298 -0.8076 -1.1495  0.4694
 2145TIP3    H2 6442   4.906   1.840   1.414  2.4070  1.6042 -0.9636
 2146TIP3   OH2 6443   5.220   2.828   3.591 -0.3366  0.2532  0.2680
 2146TIP3    H1 6444   5.140   2.861   3.633 -0.3808  0.7793 -0.2067
 2146TIP3    H2 6445   5.211   2.856   3.500 -0.0242 -0.4611  0.0190
 2147TIP3   OH2 6446   0.969   4.730   4.629 -0.3198  0.3075 -0.3399
 2147TIP3    H1 6447   0.930   4.691   4.707  0.6888 -0.8325 -0.3781
 2147TIP3    H2 6448   0.994   4.818   4.657 -0.5097  0.1247  0.4503
 2148TIP3   OH2 6449   0.032   0.040   1.877  0.3721  0.0135 -0.8844
 2148TIP3    H1 6450   0.011   0.022   1.968 -1.7741 -0.3965 -1.4037
 2148TIP3    H2 6451  -0.004   0.127   1.860  0.5114 -0.0273 -1.4099
 2149TIP3   OH2 6452   0.410   5.378   0.455 -0.1042 -0.1401 -0.0793
 2149TIP3    H1 6453   0.363   5.318   0.396  0.2424 -0.6650  0.1759
 2149TIP3    H2 6454   0.341   5.430   0.495 -0.2721  1.3028 -2.0794
 2150TIP3   OH2 6455   1.076   1.041   4.895 -0.0012  0.0251 -0.2598
 2150TIP3    H1 6456   1.069   1.121   4.948  1.0064  0.3359 -0.5555
 2150TIP3    H2 6457   1.153   0.996   4.930 -0.4403 -0.7109 -0.2352
 2151TIP3   OH2 6458   2.086   1.350   5.059  0.0146 -0.1745 -0.1489
 2151TIP3    H1 6459   2.119   1.420   5.003  0.4443 -0.6954 -0.5555
 2151TIP3    H2 6460   1.993   1.343   5.036  0.3214 -0.7946 -1.2485
 2152TIP3   OH2 6461   4.961   5.228   0.628  0.5461  0.3730  0.8920
 2152TIP3    H1 6462   4.896   5.265   0.689 -0.9131 -1.3388  0.4650
 2152TIP3    H2 6463   5.022   5.180   0.684 -0.1976 -0.3423  1.1101
 2153TIP3   OH2 6464   2.313   0.969   4.757 -0.0682  0.0379  0.0021
 2153TIP3    H1 6465   2.269   1.054   4.753 -0.1613  0.0790  1.4683
 2153TIP3    H2 6466   2.244   0.906   4.732 -0.4078  0.2692  0.3455
 2154TIP3   OH2 6467   5.846   5.737   1.989 -0.0202  0.0486 -0.1118
 2154TIP3    H1 6468   5.774   5.798   2.002 -0.6639 -0.3376 -1.6418
 2154TIP3    H2 6469   5.924   5.792   1.985 -0.2332  0.4887  1.3496
 2155TIP3   OH2 6470   5.980   3.332   1.386  0.5968 -0.3037 -0.6216
 2155TIP3    H1 6471   5.941   3.419   1.387  2.8550  0.9031  3.0268
 2155TIP3    H2 6472   5.911   3.273   1.417 -0.4067  0.4342 -1.3885
 2156TIP3   OH2 6473   4.144   4.836   1.508  0.6797  0.0552 -0.0010
 2156TIP3    H1 6474   4.238   4.824   1.492  0.6124  1.3936 -1.6831
 2156TIP3    H2 6475   4.102   4.775   1.448  0.4324 -0.6667  0.8723
 2157TIP3   OH2 6476   1.124   5.191   3.185 -0.4316 -0.5101  0.3001
 2157TIP3    H1 6477   1.147   5.256   3.251  2.2397  0.8840 -1.8339
 2157TIP3    H2 6478   1.100   5.242   3.108 -1.6552 -2.0892 -0.4198
 2158TIP3   OH2 6479   5.804   3.033   3.488 -0.3712 -0.1320 -0.1328
 2158TIP3    H1 6480   5.888   2.989   3.501 -0.6185 -0.2451  1.2295
 2158TIP3    H2 6481   5.828   3.121   3.459  0.1908 -0.3261 -0.2805
 2159TIP3   OH2 6482   2.806   3.683   1.269  0.8639 -0.0074 -0.9758
 2159TIP3    H1 6483   2.724   3.686   1.319  1.9055 -0.2332  0.8362
 2159TIP3    H2 6484   2.814   3.592   1.242 -0.1189  0.2764 -2.3676
 2160TIP3   OH2 6485   1.249   2.730   2.715  0.4407 -0.0692  0.8136
 2160TIP3    H1 6486   1.226   2.694   2.630  1.6372 -1.5376  1.0777
 2160TIP3    H2 6487   1.202   2.676   2.778  1.7179 -0.7831  1.1870
 2161TIP3   OH2 6488   2.214   1.289   4.693  0.3574  0.0158  0.0367
 2161TIP3    H1 6489   2.173   1.243   4.620  1.1406 -0.8911  0.1438
 2161TIP3    H2 6490   2.278   1.347   4.652 -0.5237  0.9347 -0.0886
 2162TIP3   OH2 6491   1.471   2.333   4.115 -0.2167 -0.1977 -0.6584
 2162TIP3    H1 6492   1.418   2.387   4.058  0.2470  2.9200  1.6170
 2162TIP3    H2 6493   1.561   2.351   4.088 -0.0623 -0.2160 -0.1588
 2163TIP3   OH2 6494   3.383   4.955   2.980 -0.5132 -0.4353  0.0496
 2163TIP3    H1 6495   3.325   5.001   2.920 -0.9382 -1.2245 -0.1552
 2163TIP3    H2 6496   3.457   4.928   2.926  0.0988  0.6500  0.3299
 2164TIP3   OH2 6497   5.548   1.645   4.104  0.3359 -0.2235  0.0331
 2164TIP3    H1 6498   5.548   1.641   4.200 -1.0868  0.8739  0.1217
 2164TIP3    H2 6499   5.585   1.731   4.084 -1.7826  0.6881 -0.2467
 2165TIP3   OH2 6500   2.271   4.545   2.673  0.1002 -0.1719  0.6296
 2165TIP3    H1 6501   2.353   4.595   2.673  0.4804 -0.7768 -0.3298
 2165TIP3    H2 6502   2.211   4.599   2.725  0.6426  1.0507  0.0367
 2166TIP3   OH2 6503   5.136   4.768   4.727 -0.0481  0.8820  0.6954
 2166TIP3    H1 6504   5.231   4.775   4.736  0.0586  0.4203  0.0206
 2166TIP3    H2 6505   5.103   4.780   4.816  0.8822 -2.7439  1.6971
 2167TIP3   OH2 6506   0.742   1.419   4.374 -0.4546 -0.5567  0.2529
 2167TIP3    H1 6507   0.836   1.420   4.390 -0.4427 -1.8743  0.3675
 2167TIP3    H2 6508   0.734   1.435   4.280 -0.0777 -1.1014  0.1259
 2168TIP3   OH2 6509   1.711   0.826   0.459  0.1311 -0.2561 -0.5538
 2168TIP3    H1 6510   1.730   0.756   0.522 -0.8783  0.8000  0.9992
 2168TIP3    H2 6511   1.783   0.888   0.470 -0.6630  0.5176  0.4948
 2169TIP3   OH2 6512   1.683   3.621   1.990 -0.0450 -0.6312 -0.0962
 2169TIP3    H1 6513   1.777   3.634   1.981 -0.0167 -0.0731  0.8707
 2169TIP3    H2 6514   1.665   3.541   1.941  0.7612 -0.1771 -1.1674
 2170TIP3   OH2 6515   5.800   2.519   1.783 -0.5630 -0.6753 -0.0209
 2170TIP3    H1 6516   5.717   2.473   1.780 -0.1902 -1.3001 -1.3955
 2170TIP3    H2 6517   5.797   2.569   1.865 -2.8115  0.3478 -0.6463
 2171TIP3   OH2 6518   4.132   1.549   2.361 -0.0646  0.2947  0.1092
 2171TIP3    H1 6519   4.037   1.537   2.367 -0.0035  0.4189  2.4211
 2171TIP3    H2 6520   4.168   1.469   2.399  0.7412  0.5814 -0.0349
 2172TIP3   OH2 6521   1.637   3.049   1.398 -0.1317 -0.0397 -0.1859
 2172TIP3    H1 6522   1.652   2.990   1.325 -0.7758 -0.9319  0.3915
 2172TIP3    H2 6523   1.594   3.125   1.359  0.5179 -0.0275 -0.8955
 2173TIP3   OH2 6524   0.180   4.984   3.634  0.1812  0.4400 -0.3075
 2173TIP3    H1 6525   0.258   5.027   3.599  0.6610 -0.5565 -0.4859
 2173TIP3    H2 6526   0.167   5.025   3.719  0.4130  1.1973 -0.6285
 2174TIP3   OH2 6527   1.921   0.720   4.048 -0.2617 -0.1350 -0.2527
 2174TIP3    H1 6528   1.846   0.769   4.080 -1.5576 -2.2686  0.1560
 2174TIP3    H2 6529   1.902   0.704   3.956 -0.8416 -1.5562  0.0963
 2175TIP3   OH2 6530   2.128   4.178   1.323  0.0502 -0.1088  0.5367
 2175TIP3    H1 6531   2.196   4.245   1.312 -0.0394 -0.1288 -0.1742
 2175TIP3    H2 6532   2.153   4.132   1.403 -0.8322  1.8967  2.0700
 2176TIP3   OH2 6533   0.490   0.550   0.023  0.0900  0.0457  0.3892
 2176TIP3    H1 6534   0.426   0.617   0.047 -0.0921  0.2042 -0.5329
 2176TIP3    H2 6535   0.443   0.490  -0.034  0.9693  0.6668 -1.0469
 2177TIP3   OH2 6536   3.433   2.649   2.869  0.0758  0.4298 -0.8019
 2177TIP3    H1 6537   3.364   2.698   2.915 -1.9048 -1.8092 -1.2334
 2177TIP3    H2 6538   3.504   2.643   2.934 -1.6219 -0.4125  1.0882
 2178TIP3   OH2 6539   3.603   2.205   1.197 -0.0279  0.2309  0.0601
 2178TIP3    H1 6540   3.638   2.287   1.234  1.0162  0.6822 -1.7945
 2178TIP3    H2 6541   3.625   2.210   1.104 -2.8825 -0.6654 -0.7507
 2179TIP3   OH2 6542   4.874   5.409   2.358 -0.2450 -0.6580  0.2784
 2179TIP3    H1 6543   4.795   5.451   2.393 -1.1582 -1.9541 -0.1921
 2179TIP3    H2 6544   4.850   5.318   2.346  1.0861 -0.9115 -0.6526
 2180TIP3   OH2 6545   3.439   0.295   2.159 -0.3899  0.4935 -0.6089
 2180TIP3    H1 6546   3.489   0.275   2.081 -0.9586  0.9124 -1.0883
 2180TIP3    H2 6547   3.417   0.210   2.197 -1.7169  0.2138 -1.9277
 2181TIP3   OH2 6548   0.492   3.412   4.673  0.3868 -0.6126  0.0352
 2181TIP3    H1 6549   0.544   3.418   4.753  1.0440  0.1024 -0.4252
 2181TIP3    H2 6550   0.426   3.481   4.681  1.5714  0.6786 -0.7935
 2182TIP3   OH2 6551   4.385   2.778   5.139 -0.0812 -0.0366  0.1023
 2182TIP3    H1 6552   4.328   2.841   5.182  1.2912  0.6444  1.0010
 2182TIP3    H2 6553   4.473   2.798   5.172  0.9934  0.1609 -2.5858
 2183TIP3   OH2 6554   2.114   2.014   4.282  0.3856 -0.3449 -0.1204
 2183TIP3    H1 6555   2.152   1.935   4.319  0.9258 -0.8091 -1.5812
 2183TIP3    H2 6556   2.183   2.080   4.290 -0.5746  0.4668  2.4630
 2184TIP3   OH2 6557   3.398   4.579   3.137  0.3307  0.3109  0.3184
 2184TIP3    H1 6558   3.430   4.577   3.047 -1.7294  1.0563 -0.4872
 2184TIP3    H2 6559   3.415   4.491   3.171  0.5474 -0.1721 -1.0130
 2185TIP3   OH2 6560   5.509   2.130   5.162 -0.0542  0.6247  0.1663
 2185TIP3    H1 6561   5.479   2.071   5.093  0.6419  0.3798  0.0645
 2185TIP3    H2 6562   5.566   2.076   5.216 -0.0866  0.9859  0.5637
 2186TIP3   OH2 6563   0.135   1.295   4.891 -0.0558 -0.9409 -0.4919
 2186TIP3    H1 6564   0.223   1.256   4.886  0.1191 -1.3316  2.9959
 2186TIP3    H2 6565   0.090   1.262   4.813  2.0862 -2.8608 -1.0449
 2187TIP3   OH2 6566   3.020   4.103   3.944 -0.0366 -0.1291  0.2976
 2187TIP3    H1 6567   3.005   4.018   3.984  2.7767  0.3305  2.7320
 2187TIP3    H2 6568   3.016   4.165   4.017  0.2955  1.5110 -1.0066
 2188TIP3   OH2 6569   4.861   5.284   3.943 -0.2626 -0.8230 -0.5300
 2188TIP3    H1 6570   4.911   5.327   4.012  0.1569 -0.0314 -1.3102
 2188TIP3    H2 6571   4.908   5.306   3.862 -2.4960  0.9215 -1.4536
 2189TIP3   OH2 6572   2.771   2.102   0.851  0.3001  0.1700  0.2790
 2189TIP3    H1 6573   2.822   2.073   0.927 -1.4325 -2.2889  0.6340
 2189TIP3    H2 6574   2.804   2.049   0.778  0.3977  0.8598 -0.1885
 2190TIP3   OH2 6575   3.027   1.289   1.527 -0.3980 -0.3333 -0.0186
 2190TIP3    H1 6576   3.113   1.295   1.486 -0.4763  0.5793 -0.0720
 2190TIP3    H2 6577   2.987   1.375   1.511 -2.4901 -1.6674 -2.5703
 2191TIP3   OH2 6578   4.974   5.935   0.220  0.2328 -0.3105 -0.1618
 2191TIP3    H1 6579   4.970   5.898   0.308  1.2762  1.4456  0.6764
 2191TIP3    H2 6580   4.887   5.973   0.207  0.3910  0.3359  0.5663
 2192TIP3   OH2 6581   0.829   3.039   2.542 -0.0196  0.0747 -0.2682
 2192TIP3    H1 6582   0.923   3.054   2.557  0.2595 -1.0809 -0.7844
 2192TIP3    H2 6583   0.824   2.952   2.503 -1.2663  0.3682 -0.8172
 2193TIP3   OH2 6584   0.823   1.130   3.928 -0.5583 -0.4003 -0.2486
 2193TIP3    H1 6585   0.865   1.048   3.902 -1.3862 -0.5868 -1.0174
 2193TIP3    H2 6586   0.732   1.122   3.899 -0.4237  1.1874 -1.2549
 2194TIP3   OH2 6587   5.949   0.991   3.573  0.3883  0.3955  0.0023
 2194TIP3    H1 6588   5.860   0.961   3.593  1.2595 -0.9391  2.2108
 2194TIP3    H2 6589   5.976   0.940   3.497 -0.7109  0.8406 -0.7112
 2195TIP3   OH2 6590   4.494   0.628   4.474  0.1315 -0.0846 -0.1285
 2195TIP3    H1 6591   4.468   0.687   4.545 -0.2484  0.5285 -0.7670
 2195TIP3    H2 6592   4.413   0.588   4.444  0.3928 -1.0056  0.3430
 2196TIP3   OH2 6593   5.003   0.863   0.707  0.0857 -0.0578  0.2982
 2196TIP3    H1 6594   5.097   0.876   0.720  0.4478 -1.3981 -0.7786
 2196TIP3    H2 6595   4.971   0.834   0.792  0.3844  1.6345  1.0231
 2197TIP3   OH2 6596   0.470   5.738   2.679  0.0209  0.0942 -0.2999
 2197TIP3    H1 6597   0.375   5.745   2.681  0.0596  1.1819 -1.3266
 2197TIP3    H2 6598   0.499   5.785   2.757 -0.2667  0.2163 -0.2635
 2198TIP3   OH2 6599   6.045   2.343   4.315 -0.0601  0.1827 -0.4342
 2198TIP3    H1 6600   6.056   2.363   4.222  0.9103 -0.3410 -0.4410
 2198TIP3    H2 6601   5.953   2.322   4.325  0.2427 -1.9317 -1.7146
 2199TIP3   OH2 6602   0.473   5.151   4.735 -0.2075 -0.1055  0.4159
 2199TIP3    H1 6603   0.411   5.181   4.669 -1.4625 -4.1870 -0.4842
 2199TIP3    H2 6604   0.556   5.142   4.688 -0.4805 -0.5789  0.0226
 2200TIP3   OH2 6605   3.311   4.793   0.035  0.1001 -0.0334  0.1669
 2200TIP3    H1 6606   3.309   4.863   0.101  1.6617  0.0267  0.1825
 2200TIP3    H2 6607   3.319   4.840  -0.049 -0.5077 -0.1537  0.0370
 2201TIP3   OH2 6608   4.323   2.467   1.224  0.0027 -0.7735 -0.0839
 2201TIP3    H1 6609   4.320   2.463   1.320  1.9979 -0.2701  0.0389
 2201TIP3    H2 6610   4.368   2.387   1.199 -1.1581 -1.2606 -0.6838
 2202TIP3   OH2 6611   6.249   3.899   3.279 -0.0526 -0.5011 -0.4883
 2202TIP3    H1 6612   6.170   3.847   3.265  0.4918 -1.3565 -0.4797
 2202TIP3    H2 6613   6.228   3.956   3.353 -0.3216 -1.4261  0.1645
 2203TIP3   OH2 6614   1.249   3.893   5.185  0.2492  0.7046  0.3243
 2203TIP3    H1 6615   1.272   3.943   5.107  0.6490  2.0946  1.3001
 2203TIP3    H2 6616   1.209   3.813   5.151  0.0600  1.4504 -1.2927
 2204TIP3   OH2 6617   1.387   0.618   2.335 -0.3679  0.5659  0.0316
 2204TIP3    H1 6618   1.467   0.564   2.328  0.2189  1.2770  1.0903
 2204TIP3    H2 6619   1.342   0.585   2.413 -0.2539  1.2737  0.4029
 2205TIP3   OH2 6620   1.403   0.693   3.805 -0.4369  0.4332  0.1233
 2205TIP3    H1 6621   1.331   0.645   3.846 -0.7734  0.8216 -0.0020
 2205TIP3    H2 6622   1.409   0.775   3.854 -0.7738  0.8536 -0.5166
 2206TIP3   OH2 6623   5.970   3.422   0.968  0.1774 -0.2717  0.3915
 2206TIP3    H1 6624   5.956   3.331   0.997 -1.9780 -0.3216 -0.5773
 2206TIP3    H2 6625   5.931   3.475   1.038 -1.3138 -0.2535 -0.4004
 2207TIP3   OH2 6626   3.169   3.628   3.644 -0.3725  0.0227  0.1092
 2207TIP3    H1 6627   3.100   3.581   3.690  0.2651 -0.5466  0.5102
 2207TIP3    H2 6628   3.141   3.627   3.552 -1.1756  0.3165  0.3435
 2208TIP3   OH2 6629   5.402   2.594   5.030  0.1507 -0.5030  0.5838
 2208TIP3    H1 6630   5.314   2.556   5.034 -0.3906  0.7630  1.6373
 2208TIP3    H2 6631   5.402   2.649   4.952 -0.2704  0.1252  1.0233
 2209TIP3   OH2 6632   1.630   5.030   4.493 -0.4733  0.0085 -0.0795
 2209TIP3    H1 6633   1.601   4.962   4.431 -0.1791  1.3413 -1.7659
 2209TIP3    H2 6634   1.565   5.028   4.563 -1.2824 -1.0279 -0.8177
 2210TIP3   OH2 6635   0.418   5.557   3.791  0.2244 -0.4655 -0.0126
 2210TIP3    H1 6636   0.339   5.540   3.843 -0.4510 -2.4614 -1.5920
 2210TIP3    H2 6637   0.433   5.651   3.801 -3.3440  0.3560 -0.9781
 2211TIP3   OH2 6638   1.942   0.914   0.049 -0.3541 -0.5742  0.1640
 2211TIP3    H1 6639   1.918   0.838   0.103  2.4209 -1.2572  0.5863
 2211TIP3    H2 6640   2.033   0.932   0.073  0.0067  1.0127 -2.1439
 2212TIP3   OH2 6641   1.965   0.472   0.864  0.2652  0.5721  0.4520
 2212TIP3    H1 6642   2.053   0.446   0.891  0.0458  0.8621  1.5092
 2212TIP3    H2 6643   1.915   0.472   0.945 -1.0685 -0.9151 -0.3278
 2213TIP3   OH2 6644   0.683   3.630   3.256 -0.5732 -0.0703  0.1566
 2213TIP3    H1 6645   0.685   3.723   3.278  0.0409 -0.2245  0.7944
 2213TIP3    H2 6646   0.632   3.589   3.326  0.8205 -0.4697  0.9861
 2214TIP3   OH2 6647   4.381   4.855   4.550 -0.3774 -0.1904  0.2255
 2214TIP3    H1 6648   4.420   4.909   4.482 -1.0225  0.4010  0.3183
 2214TIP3    H2 6649   4.411   4.766   4.530 -0.2141  0.0384 -0.5727
 2215TIP3   OH2 6650   3.000   4.319   4.497 -0.3385 -0.4497  0.0926
 2215TIP3    H1 6651   2.999   4.269   4.578 -0.2467  1.5991  1.4342
 2215TIP3    H2 6652   2.947   4.397   4.516 -1.0356 -0.3139 -2.1079
 2216TIP3   OH2 6653   1.692   5.336   1.122 -0.3918  0.7281 -0.4278
 2216TIP3    H1 6654   1.752   5.333   1.047 -0.0767 -0.3628 -0.1432
 2216TIP3    H2 6655   1.676   5.430   1.136 -0.7276  0.9456 -2.0643
 2217TIP3   OH2 6656   0.752   4.957   4.782 -0.1651 -0.1217 -0.6249
 2217TIP3    H1 6657   0.806   4.880   4.769  0.0854  0.3179 -2.5548
 2217TIP3    H2 6658   0.770   4.985   4.872  0.7167 -1.5369 -0.3333
 2218TIP3   OH2 6659   5.321   2.153   3.979  0.1353 -0.2015  0.1260
 2218TIP3    H1 6660   5.390   2.215   3.953  0.2998 -0.7817 -0.8747
 2218TIP3    H2 6661   5.268   2.142   3.900 -1.2339  0.3771  0.9354
 2219TIP3   OH2 6662   6.055   5.456   3.215 -0.4951 -0.0304 -0.1963
 2219TIP3    H1 6663   6.118   5.410   3.271 -0.6117 -1.9643 -1.5827
 2219TIP3    H2 6664   6.002   5.507   3.276 -0.2365 -1.5901  1.4081
 2220TIP3   OH2 6665   0.130   3.827   3.911  0.4340 -0.4166  0.1923
 2220TIP3    H1 6666   0.152   3.899   3.851  1.4649 -0.5443  0.4036
 2220TIP3    H2 6667   0.174   3.850   3.993 -0.5011 -0.5301  0.7392
 2221TIP3   OH2 6668   3.501   3.250   4.297  0.5867 -0.1255 -0.2262
 2221TIP3    H1 6669   3.527   3.164   4.329  0.4092 -0.5060 -1.0683
 2221TIP3    H2 6670   3.578   3.285   4.253  1.0890  0.7501  1.2847
 2222TIP3   OH2 6671   0.334   0.900   1.943  0.1767 -0.4769  0.1140
 2222TIP3    H1 6672   0.284   0.963   1.892 -2.9795 -2.1111  0.8892
 2222TIP3    H2 6673   0.273   0.870   2.011  1.4177 -4.3265 -0.1878
 2223TIP3   OH2 6674   0.747   2.629   0.755  0.0125 -0.2611 -0.0824
 2223TIP3    H1 6675   0.675   2.567   0.740  0.6142 -0.9098 -0.3631
 2223TIP3    H2 6676   0.725   2.705   0.701  0.4617 -1.2127 -1.6866
 2224TIP3   OH2 6677   6.239   3.409   1.440  0.3924 -0.0108  0.9181
 2224TIP3    H1 6678   6.237   3.488   1.494 -0.9255  0.4660  0.2220
 2224TIP3    H2 6679   6.148   3.395   1.415  0.9467 -0.0926 -1.3183
 2225TIP3   OH2 6680   1.598   2.594   3.043  1.1172 -0.3204  0.5855
 2225TIP3    H1 6681   1.689   2.568   3.057  2.2673  2.1877 -1.3560
 2225TIP3    H2 6682   1.583   2.662   3.109  1.8873  1.6413 -1.1349
 2226TIP3   OH2 6683   1.963   0.780   3.166 -0.4994 -0.2175  0.1204
 2226TIP3    H1 6684   1.899   0.774   3.095 -2.2150  1.0485  1.4662
 2226TIP3    H2 6685   1.962   0.694   3.207 -2.3468  0.1089  0.8746
 2227TIP3   OH2 6686   0.984   4.702   2.981 -0.5695 -0.1523 -0.5500
 2227TIP3    H1 6687   0.988   4.618   2.934 -0.1022  0.5520 -1.8397
 2227TIP3    H2 6688   1.076   4.728   2.989 -0.5718 -0.6255  1.5294
 2228TIP3   OH2 6689   4.165   4.143   2.919  0.0030 -0.1500 -0.2564
 2228TIP3    H1 6690   4.074   4.124   2.942 -0.1283  0.9817  0.2435
 2228TIP3    H2 6691   4.160   4.226   2.871  0.5839 -1.0351 -1.9422
 2229TIP3   OH2 6692   3.790   0.368   0.829 -0.6388  0.4784 -0.2781
 2229TIP3    H1 6693   3.753   0.312   0.761  0.4640  1.1321 -1.4486
 2229TIP3    H2 6694   3.731   0.444   0.832  0.4407  1.4618 -2.0576
 2230TIP3   OH2 6695   1.924   1.641   2.065 -0.0018 -0.0843  0.6104
 2230TIP3    H1 6696   1.858   1.648   2.134  0.5655 -0.0129  1.1476
 2230TIP3    H2 6697   1.955   1.551   2.069  0.5691  0.1185  0.9573
 2231TIP3   OH2 6698   2.541   5.878   4.239 -0.6395  0.3788  0.0191
 2231TIP3    H1 6699   2.516   5.961   4.198 -2.4682 -0.5984 -0.9864
 2231TIP3    H2 6700   2.605   5.902   4.306  0.2090  2.3666 -1.4367
 2232TIP3   OH2 6701   1.176   4.812   2.704  0.1523  0.2248  0.7250
 2232TIP3    H1 6702   1.241   4.878   2.682  0.3255  0.8149  2.7453
 2232TIP3    H2 6703   1.130   4.795   2.622  0.7821  2.0916 -0.0805
 2233TIP3   OH2 6704   2.279   3.440   0.611  0.2065 -0.6444  0.0997
 2233TIP3    H1 6705   2.331   3.451   0.532  0.5304  2.0534  0.5844
 2233TIP3    H2 6706   2.342   3.428   0.681  0.0618 -0.0612  0.3341
 2234TIP3   OH2 6707   1.911   0.171   3.802 -0.2019 -0.5839 -0.2258
 2234TIP3    H1 6708   1.878   0.219   3.726 -0.6967  1.4429  1.1753
 2234TIP3    H2 6709   1.833   0.148   3.852  0.1885 -0.6913  0.3467
 2235TIP3   OH2 6710   2.948   1.650   5.015 -0.5129 -0.0522  0.1558
 2235TIP3    H1 6711   2.964   1.643   4.921  1.6901  1.8038  0.2822
 2235TIP3    H2 6712   2.858   1.681   5.022 -0.9718 -0.9855 -1.2898
 2236TIP3   OH2 6713   2.802   3.403   1.227 -0.4879 -0.4524 -0.0616
 2236TIP3    H1 6714   2.874   3.349   1.262  1.2073  1.8171  0.2163
 2236TIP3    H2 6715   2.773   3.357   1.149 -0.1373 -2.4813  0.9374
 2237TIP3   OH2 6716   6.092   5.597   4.429  0.0144 -0.5848 -0.0880
 2237TIP3    H1 6717   6.096   5.606   4.525  2.7123 -0.8815 -0.0838
 2237TIP3    H2 6718   6.184   5.603   4.401 -0.6416 -1.2141 -2.6079
 2238TIP3   OH2 6719   5.964   2.577   0.054 -0.0618 -0.1478  0.4034
 2238TIP3    H1 6720   6.050   2.550   0.023 -0.3257  0.6686 -1.1245
 2238TIP3    H2 6721   5.980   2.615   0.141  1.1327  0.1232  0.0752
 2239TIP3   OH2 6722   5.977   2.342   2.463  0.7039  0.2442 -0.3010
 2239TIP3    H1 6723   5.889   2.354   2.427  1.3401  0.8711 -1.7393
 2239TIP3    H2 6724   5.967   2.273   2.528 -1.0774  1.1819  0.4794
 2240TIP3   OH2 6725   2.820   3.153   3.200 -0.3265 -0.4625  0.2051
 2240TIP3    H1 6726   2.896   3.107   3.236 -0.4924  0.2703  1.5713
 2240TIP3    H2 6727   2.849   3.244   3.192 -0.2076 -0.6460 -1.8469
 2241TIP3   OH2 6728   5.904   2.898   2.329 -0.6352  0.1576  0.4791
 2241TIP3    H1 6729   5.887   2.869   2.419 -0.5118 -1.3896  0.0229
 2241TIP3    H2 6730   5.984   2.950   2.336  0.1300 -1.0471  1.0814
 2242TIP3   OH2 6731   4.904   1.104   4.526 -0.2597  0.5273  0.0572
 2242TIP3    H1 6732   4.902   1.120   4.432 -0.4623  1.9088  0.2672
 2242TIP3    H2 6733   4.812   1.107   4.553 -0.3238 -1.2360  0.1100
 2243TIP3   OH2 6734   4.347   0.826   3.597 -0.5445 -0.1422  0.1494
 2243TIP3    H1 6735   4.420   0.838   3.536 -1.5158 -0.4531 -1.1400
 2243TIP3    H2 6736   4.387   0.795   3.678  0.7080 -0.6463 -0.6336
 2244TIP3   OH2 6737   5.536   3.949   4.955 -0.0160  0.4429 -0.0473
 2244TIP3    H1 6738   5.460   3.900   4.987  0.2682 -1.1666 -1.6571
 2244TIP3    H2 6739   5.503   3.997   4.879 -0.2063  2.5818  1.3117
 2245TIP3   OH2 6740   0.321   5.358   1.151  0.6432  0.0856  0.2511
 2245TIP3    H1 6741   0.294   5.309   1.229  1.5578  0.9468  1.1333
 2245TIP3    H2 6742   0.391   5.415   1.181  0.9991  0.4663 -1.2088
 2246TIP3   OH2 6743   5.692   1.895   3.537 -0.5899 -0.0447 -0.3694
 2246TIP3    H1 6744   5.625   1.877   3.472 -0.1103  0.3872 -0.9951
 2246TIP3    H2 6745   5.724   1.809   3.563  0.1829 -0.1964 -1.7370
 2247TIP3   OH2 6746   5.089   1.557   0.486 -0.1163  0.4156 -0.0883
 2247TIP3    H1 6747   4.995   1.562   0.503 -0.0060  2.1734  0.2233
 2247TIP3    H2 6748   5.124   1.506   0.559 -0.8337 -0.3725 -0.2782
 2248TIP3   OH2 6749   2.513   5.181   4.054  0.4447  0.3630 -0.0272
 2248TIP3    H1 6750   2.528   5.132   3.973  0.7275 -0.4999  0.5376
 2248TIP3    H2 6751   2.581   5.248   4.053  0.8195 -0.0115 -0.2275
 2249TIP3   OH2 6752   4.937   2.330   1.354  0.0436  0.0646  0.1249
 2249TIP3    H1 6753   5.007   2.289   1.305  0.3272 -2.0343  2.1206
 2249TIP3    H2 6754   4.964   2.422   1.363  0.7514  0.1221 -2.1101
 2250TIP3   OH2 6755   5.213   5.243   4.372 -0.2927  0.1391  0.1975
 2250TIP3    H1 6756   5.290   5.213   4.420 -0.1503  1.4192  0.7919
 2250TIP3    H2 6757   5.196   5.173   4.308 -0.1761 -1.3640  1.7460
 2251TIP3   OH2 6758   1.563   3.154   4.514  0.0221 -0.8614  0.2591
 2251TIP3    H1 6759   1.547   3.158   4.420 -0.3441 -2.5172  0.2254
 2251TIP3    H2 6760   1.476   3.155   4.553  0.1724 -0.2542  0.5905
 2252TIP3   OH2 6761   3.979   4.595   3.797  0.1316  0.0227 -0.1574
 2252TIP3    H1 6762   3.958   4.677   3.752 -0.5222 -0.2114 -0.3022
 2252TIP3    H2 6763   3.994   4.532   3.726  0.2660 -0.0701 -0.0471
 2253TIP3   OH2 6764   5.838   5.034   0.072 -0.0109 -0.2883 -1.0592
 2253TIP3    H1 6765   5.784   5.050  -0.005  0.7499  0.9859 -1.3473
 2253TIP3    H2 6766   5.875   5.119   0.094 -0.6782 -0.4914  1.0827
 2254TIP3   OH2 6767   0.617   2.238   3.453  0.3350  0.1307 -0.4298
 2254TIP3    H1 6768   0.608   2.329   3.425  2.4039 -0.0275 -1.8206
 2254TIP3    H2 6769   0.694   2.206   3.406  1.3269 -1.5336  2.1561
 2255TIP3   OH2 6770   6.340   2.871   4.466 -0.4828 -0.2114 -0.4634
 2255TIP3    H1 6771   6.275   2.823   4.415 -0.8890 -0.5570  0.3559
 2255TIP3    H2 6772   6.322   2.963   4.447 -1.6684 -0.2684  0.2568
 2256TIP3   OH2 6773   3.060   3.285   3.817 -0.0157 -0.3774 -0.6597
 2256TIP3    H1 6774   2.992   3.243   3.765 -0.9248  1.6464 -1.2007
 2256TIP3    H2 6775   3.140   3.275   3.765 -0.5263 -0.1047 -1.5093
 2257TIP3   OH2 6776   4.650   5.177   4.777  0.1144  0.0221  0.0034
 2257TIP3    H1 6777   4.681   5.260   4.740  0.0997  0.4649  0.9375
 2257TIP3    H2 6778   4.720   5.150   4.837 -0.4303  0.0050  0.6378
 2258TIP3   OH2 6779   1.629   4.307   2.299 -0.1211 -0.0296 -0.6423
 2258TIP3    H1 6780   1.543   4.305   2.257 -1.1433 -1.5790  1.3431
 2258TIP3    H2 6781   1.651   4.400   2.305 -3.0647  0.6839  1.4004
 2259TIP3   OH2 6782   1.821   5.025   4.695 -0.1292  0.0202  0.1422
 2259TIP3    H1 6783   1.874   4.996   4.621  1.2028 -1.5574  1.6143
 2259TIP3    H2 6784   1.741   5.060   4.656  1.8055  2.2497 -2.1807
 2260TIP3   OH2 6785   4.732   0.295   0.069 -0.0528 -0.0557 -0.2278
 2260TIP3    H1 6786   4.636   0.294   0.076 -0.0202  0.1664  0.3226
 2260TIP3    H2 6787   4.762   0.254   0.150  0.3864  3.5292  1.6180
 2261TIP3   OH2 6788   0.559   1.891   1.143  0.3596 -0.6940 -0.6870
 2261TIP3    H1 6789   0.525   1.803   1.161 -0.7460 -0.0654  0.4797
 2261TIP3    H2 6790   0.482   1.940   1.114  0.8375  0.0716 -0.6721
 2262TIP3   OH2 6791   1.807   2.594   1.002 -0.2163 -0.4270 -0.7127
 2262TIP3    H1 6792   1.833   2.686   0.997  1.2960 -0.7214  0.6581
 2262TIP3    H2 6793   1.849   2.552   0.927  0.4143 -0.2570 -0.4622
 2263TIP3   OH2 6794   1.051   4.743   5.082  0.0115 -0.6287  0.3187
 2263TIP3    H1 6795   1.084   4.692   5.157 -1.2958 -0.6008  0.9463
 2263TIP3    H2 6796   1.130   4.777   5.040  0.8131 -1.2281  1.2703
 2264TIP3   OH2 6797   3.255   4.706   1.094 -0.5225 -0.1669  0.5774
 2264TIP3    H1 6798   3.311   4.781   1.072 -2.0305  0.9998  0.5719
 2264TIP3    H2 6799   3.216   4.679   1.011  0.2781 -1.2183  0.5209
 2265TIP3   OH2 6800   0.447   0.324   2.883  0.5349  0.1211 -0.2854
 2265TIP3    H1 6801   0.438   0.230   2.897  1.5598 -0.0420 -0.6515
 2265TIP3    H2 6802   0.523   0.350   2.935  1.3207  0.4084 -1.5311
 2266TIP3   OH2 6803   4.238   3.352   2.693 -0.3357  0.0910  0.1961
 2266TIP3    H1 6804   4.165   3.372   2.634  0.2571  3.1077  0.2994
 2266TIP3    H2 6805   4.206   3.378   2.780 -0.1441 -1.4501  0.7620
 2267TIP3   OH2 6806   2.336   3.933   0.683  0.2905  0.2829  0.6748
 2267TIP3    H1 6807   2.252   3.959   0.720 -0.7307  0.2348 -1.4287
 2267TIP3    H2 6808   2.389   4.013   0.684  0.0435  0.4410  1.5383
 2268TIP3   OH2 6809   2.332   5.648   0.808  0.2310 -0.6509 -0.4552
 2268TIP3    H1 6810   2.343   5.564   0.852  3.1023  0.0621  0.4477
 2268TIP3    H2 6811   2.251   5.684   0.844  1.2688 -1.1120  2.6106
 2269TIP3   OH2 6812   0.607   3.910   4.314  0.0394 -0.2870 -0.0425
 2269TIP3    H1 6813   0.680   3.947   4.362 -0.2837 -0.9111  0.9615
 2269TIP3    H2 6814   0.546   3.983   4.302  0.8708  0.2793 -1.0372
 2270TIP3   OH2 6815   3.058   5.387   0.922  0.0587  0.0639  0.1202
 2270TIP3    H1 6816   3.011   5.304   0.930  2.1602 -1.1623  0.4862
 2270TIP3    H2 6817   3.047   5.412   0.831 -1.2068 -0.1959  0.1749
 2271TIP3   OH2 6818   3.320   2.918   3.808  0.3789  0.7067  0.2197
 2271TIP3    H1 6819   3.362   2.979   3.746  0.2471  1.3013  0.7032
 2271TIP3    H2 6820   3.295   2.973   3.882  2.3784 -0.3029  1.7574
 2272TIP3   OH2 6821   1.167   5.366   0.630  0.2776 -0.6974  0.4502
 2272TIP3    H1 6822   1.233   5.435   0.621  0.0208 -0.6357 -1.2150
 2272TIP3    H2 6823   1.086   5.414   0.649  0.1856 -0.5517 -0.2701
 2273TIP3   OH2 6824   4.407   3.369   5.017  0.0874 -0.0510  0.3899
 2273TIP3    H1 6825   4.446   3.324   4.943  0.8076  0.8473  0.2047
 2273TIP3    H2 6826   4.407   3.461   4.992  2.1261  0.5428  2.2242
 2274TIP3   OH2 6827   2.128   4.571   2.227  0.6307  0.2781  0.6269
 2274TIP3    H1 6828   2.169   4.640   2.175  0.7653  0.2881  0.7459
 2274TIP3    H2 6829   2.068   4.617   2.286  0.3988  0.2581  0.4076
 2275TIP3   OH2 6830   5.683   0.089   2.558 -0.4056 -0.3204 -0.0464
 2275TIP3    H1 6831   5.714   0.068   2.469  1.2968 -1.5957  0.7994
 2275TIP3    H2 6832   5.588   0.100   2.547 -0.4276 -1.7051 -1.8210
 2276TIP3   OH2 6833   3.409   2.319   3.174 -0.0705 -0.2826 -0.4817
 2276TIP3    H1 6834   3.354   2.328   3.252 -0.8901 -1.1237 -0.9356
 2276TIP3    H2 6835   3.347   2.327   3.101  0.3446 -1.5026 -0.9976
 2277TIP3   OH2 6836   4.122   0.165   1.663 -0.2697  0.0115  0.4246
 2277TIP3    H1 6837   4.089   0.246   1.625  1.1735  0.3624 -0.1236
 2277TIP3    H2 6838   4.050   0.134   1.718 -1.4966  0.7348 -0.7145
 2278TIP3   OH2 6839   5.165   0.542   0.203  0.0621  0.0434 -0.2599
 2278TIP3    H1 6840   5.129   0.502   0.282  3.5772  1.1267  2.1451
 2278TIP3    H2 6841   5.110   0.619   0.188 -1.2699 -0.7287  0.4886
 2279TIP3   OH2 6842   0.337   5.545   3.401 -0.2786 -0.0522 -0.6676
 2279TIP3    H1 6843   0.298   5.476   3.454 -1.6041 -0.0512 -1.5881
 2279TIP3    H2 6844   0.330   5.624   3.454 -0.3113 -0.3015 -0.2949
 2280TIP3   OH2 6845   1.363   3.305   2.129 -0.0450 -0.1841 -0.4299
 2280TIP3    H1 6846   1.350   3.331   2.038 -1.2570  0.7229 -0.0262
 2280TIP3    H2 6847   1.397   3.216   2.124  0.5478  0.0827 -1.7753
 2281TIP3   OH2 6848   2.377   0.574   2.521 -0.3640  0.1826  0.1047
 2281TIP3    H1 6849   2.319   0.506   2.486  0.6719 -0.4654 -0.3925
 2281TIP3    H2 6850   2.412   0.618   2.444  1.9435 -1.2675  0.2269
 2282TIP3   OH2 6851   4.400   5.047   4.770  0.0505 -0.5021  0.2442
 2282TIP3    H1 6852   4.484   5.091   4.766  1.2537 -2.5130  1.4105
 2282TIP3    H2 6853   4.404   4.981   4.701 -0.8946 -0.1434 -0.1736
 2283TIP3   OH2 6854   0.330   2.133   2.153 -0.4466 -0.0166 -0.1114
 2283TIP3    H1 6855   0.250   2.080   2.159 -0.0888 -0.6785 -0.9043
 2283TIP3    H2 6856   0.324   2.174   2.066  1.0993 -1.8275 -1.1468
 2284TIP3   OH2 6857   0.102   1.187   4.571  0.1360 -0.2578  0.5031
 2284TIP3    H1 6858   0.032   1.251   4.577  1.5930  1.5076 -0.5475
 2284TIP3    H2 6859   0.089   1.145   4.486  0.2958  0.0030  0.3492
 2285TIP3   OH2 6860   5.598   5.532   0.516  0.3804 -0.1492  0.3622
 2285TIP3    H1 6861   5.604   5.572   0.429 -0.0155  2.0028  1.2442
 2285TIP3    H2 6862   5.512   5.490   0.518  1.5034 -2.7221 -1.2015
 2286TIP3   OH2 6863   2.543   2.868   2.679 -0.6992  0.4227 -0.1460
 2286TIP3    H1 6864   2.489   2.789   2.688 -0.2292  0.0080 -0.9126
 2286TIP3    H2 6865   2.617   2.853   2.738 -0.2535 -0.0282 -0.8047
 2287TIP3   OH2 6866   0.747   1.828   2.946  0.5146 -0.1322 -0.1470
 2287TIP3    H1 6867   0.772   1.907   2.899 -1.6545  0.5847 -0.2354
 2287TIP3    H2 6868   0.827   1.775   2.951  1.6567  1.4092 -1.3625
 2288TIP3   OH2 6869   4.938   5.038   4.190  0.0499  1.1343 -0.0254
 2288TIP3    H1 6870   4.968   4.948   4.198 -1.4568  0.6078 -0.0731
 2288TIP3    H2 6871   4.869   5.047   4.257 -0.4381  1.9751 -0.6174
 2289TIP3   OH2 6872   5.491   4.406   3.879 -0.5042  0.3199  0.1493
 2289TIP3    H1 6873   5.419   4.390   3.940 -0.9669  0.1126 -0.4509
 2289TIP3    H2 6874   5.451   4.451   3.805 -0.2295 -0.7286 -0.6669
 2290TIP3   OH2 6875   4.299   2.603   4.798  0.3764  0.2292 -0.0444
 2290TIP3    H1 6876   4.210   2.590   4.831  0.0943  0.4390 -0.7094
 2290TIP3    H2 6877   4.321   2.692   4.826  1.3183 -0.6392  2.2284
 2291TIP3   OH2 6878   2.536   0.737   3.051 -0.0281 -0.3232  0.0835
 2291TIP3    H1 6879   2.483   0.813   3.075 -0.3949 -0.7956  0.7869
 2291TIP3    H2 6880   2.559   0.752   2.959 -1.5137 -0.1825 -0.2845
 2292TIP3   OH2 6881   2.951   3.702   0.409  0.5609 -0.0929  0.3110
 2292TIP3    H1 6882   2.884   3.636   0.431  0.2229 -0.1633 -0.8461
 2292TIP3    H2 6883   3.004   3.660   0.341  0.6725  0.6261 -0.0555
 2293TIP3   OH2 6884   4.536   3.099   1.495 -0.1109  0.4306  0.1048
 2293TIP3    H1 6885   4.510   3.007   1.496 -0.0345  0.3555  3.1720
 2293TIP3    H2 6886   4.617   3.102   1.545  1.4058  1.8611 -2.2603
 2294TIP3   OH2 6887   2.712   5.479   2.996 -0.3376 -0.7728  0.1920
 2294TIP3    H1 6888   2.635   5.423   2.989 -1.2139  0.4377 -0.2318
 2294TIP3    H2 6889   2.699   5.546   2.928  1.6807 -1.2211 -0.7173
 2295TIP3   OH2 6890   5.670   4.503   3.185  0.1724  0.1883  0.0006
 2295TIP3    H1 6891   5.755   4.474   3.152  1.0111  1.1468  1.1796
 2295TIP3    H2 6892   5.641   4.431   3.241  0.2465 -0.1218 -0.3593
 2296TIP3   OH2 6893   0.590   0.739   4.364  0.2763  0.4514  0.2426
 2296TIP3    H1 6894   0.684   0.725   4.376  0.0690 -1.5096 -0.1385
 2296TIP3    H2 6895   0.575   0.723   4.271 -0.7032 -1.2159  0.6427
 2297TIP3   OH2 6896   1.612   4.155   1.267 -0.6996 -0.2655 -1.0887
 2297TIP3    H1 6897   1.597   4.088   1.200 -0.5850 -1.0432 -0.3505
 2297TIP3    H2 6898   1.671   4.218   1.225 -0.9105 -0.5506 -1.8362
 2298TIP3   OH2 6899   0.225   5.417   0.900  0.0073  0.1577 -0.2607
 2298TIP3    H1 6900   0.279   5.496   0.893  0.4463  0.0374  1.3776
 2298TIP3    H2 6901   0.263   5.368   0.973 -2.0434 -0.1217  0.7016
 2299TIP3   OH2 6902   2.666   0.523   1.252 -0.3173 -0.2155 -0.0617
 2299TIP3    H1 6903   2.721   0.517   1.174 -0.2832 -0.5922 -0.0104
 2299TIP3    H2 6904   2.728   0.533   1.325 -0.3348 -0.2231 -0.0458
 2300TIP3   OH2 6905   2.612   0.757   2.790 -0.6924  0.2138 -0.2087
 2300TIP3    H1 6906   2.575   0.785   2.707  0.4016 -0.4965 -0.9585
 2300TIP3    H2 6907   2.618   0.661   2.783 -1.2910  0.0645  0.9912
 2301TIP3   OH2 6908   3.752   4.012   3.652 -0.5949  0.1400  0.0917
 2301TIP3    H1 6909   3.657   4.012   3.646 -0.5795  0.2617 -0.1637
 2301TIP3    H2 6910   3.777   4.102   3.630 -0.5704  0.8055  2.5764
 2302TIP3   OH2 6911   2.958   4.253   2.852 -0.2714  0.4321  0.0788
 2302TIP3    H1 6912   2.977   4.321   2.786  2.1352  1.1541  1.4188
 2302TIP3    H2 6913   2.883   4.288   2.900  0.3109  1.7165  0.1108
 2303TIP3   OH2 6914   5.821   3.533   4.638  0.1643  0.1806  0.0752
 2303TIP3    H1 6915   5.864   3.549   4.554 -1.4016  1.4453 -0.5250
 2303TIP3    H2 6916   5.826   3.438   4.650 -1.9456 -0.3951 -2.7792
 2304TIP3   OH2 6917   4.196   3.957   2.668 -0.7017  0.4840 -0.6621
 2304TIP3    H1 6918   4.197   3.990   2.758  0.8985 -2.3353  0.5174
 2304TIP3    H2 6919   4.127   3.891   2.668  0.0878 -0.3698 -1.1094
 2305TIP3   OH2 6920   3.319   1.847   0.187 -0.1958  0.0406  0.0616
 2305TIP3    H1 6921   3.406   1.821   0.216 -0.1140  0.0533 -0.1738
 2305TIP3    H2 6922   3.319   1.831   0.093 -0.4325  0.0834  0.0538
 2306TIP3   OH2 6923   0.320   3.674   3.430  0.1456  0.3343 -0.1003
 2306TIP3    H1 6924   0.262   3.609   3.471 -0.5919  0.3764 -1.0229
 2306TIP3    H2 6925   0.280   3.758   3.451 -0.9125  0.3106 -1.8180
 2307TIP3   OH2 6926   1.349   2.380   0.366  0.4212 -0.0729 -0.0401
 2307TIP3    H1 6927   1.263   2.361   0.403  0.4997  1.1676  0.8455
 2307TIP3    H2 6928   1.407   2.314   0.403  0.5475  1.2608  2.3474
 2308TIP3   OH2 6929   5.774   0.445   3.125 -0.5806  0.6877 -0.5308
 2308TIP3    H1 6930   5.797   0.500   3.200  0.8886 -0.9497  0.2816
 2308TIP3    H2 6931   5.809   0.359   3.146  0.0388  0.1889 -3.2001
 2309TIP3   OH2 6932   5.427   5.571   4.185  0.1759  0.1221 -0.2458
 2309TIP3    H1 6933   5.345   5.531   4.158 -1.2757  1.8497  1.3732
 2309TIP3    H2 6934   5.443   5.641   4.122 -0.5683  0.9365  0.4525
 2310TIP3   OH2 6935   2.622   2.998   3.087 -0.2818 -0.3937  0.2244
 2310TIP3    H1 6936   2.668   3.076   3.119 -0.9509 -1.2763  3.7562
 2310TIP3    H2 6937   2.691   2.940   3.056  0.7626 -0.2710  2.1364
 2311TIP3   OH2 6938   3.200   4.989   3.433  0.5269  0.2940  0.1372
 2311TIP3    H1 6939   3.262   5.063   3.436 -0.4072  1.1133 -0.2021
 2311TIP3    H2 6940   3.215   4.949   3.347 -0.7551  1.7110 -0.7908
 2312TIP3   OH2 6941   0.447   5.393   4.905  0.4112  0.2278 -0.6011
 2312TIP3    H1 6942   0.456   5.337   4.828 -2.2061 -1.5505  0.2402
 2312TIP3    H2 6943   0.526   5.376   4.957  1.1618 -0.2062 -1.8401
 2313TIP3   OH2 6944   0.517   4.290   0.471 -0.0450 -0.1619  0.0093
 2313TIP3    H1 6945   0.463   4.223   0.514 -2.0149  0.6805 -1.0230
 2313TIP3    H2 6946   0.510   4.366   0.528  1.2553 -0.4619  0.5939
 2314TIP3   OH2 6947   2.360   3.655   3.822  0.1917  0.4812  0.6352
 2314TIP3    H1 6948   2.306   3.659   3.901 -1.0775 -0.1157 -0.1802
 2314TIP3    H2 6949   2.426   3.724   3.834 -0.3617  0.8099  1.9229
 2315TIP3   OH2 6950   1.178   1.914   4.966  0.2008 -0.0941  0.5498
 2315TIP3    H1 6951   1.092   1.872   4.963  0.9693 -1.7589  0.3073
 2315TIP3    H2 6952   1.163   2.002   4.933 -1.2299 -0.6767 -0.4630
 2316TIP3   OH2 6953   2.599   0.143   4.434 -0.5341  0.7160 -0.1998
 2316TIP3    H1 6954   2.608   0.049   4.415 -2.3623  0.4772 -0.0329
 2316TIP3    H2 6955   2.512   0.152   4.473  0.0164  2.3498  0.7615
 2317TIP3   OH2 6956   3.386   5.630   1.613  0.2002  0.5243  0.3225
 2317TIP3    H1 6957   3.360   5.599   1.701  0.3298 -0.8116 -0.0791
 2317TIP3    H2 6958   3.332   5.707   1.598 -2.8051 -1.4391  0.0129
 2318TIP3   OH2 6959   3.041   3.459   2.975  1.0650  0.5505 -0.0514
 2318TIP3    H1 6960   3.049   3.454   2.880 -1.4170 -1.3839 -0.2784
 2318TIP3    H2 6961   2.962   3.511   2.990  2.3476  2.2810  1.0746
 2319TIP3   OH2 6962   0.307   0.900   1.229  0.0353  0.1496  0.3276
 2319TIP3    H1 6963   0.318   0.814   1.189 -0.3266 -0.5769  1.7285
 2319TIP3    H2 6964   0.299   0.882   1.323  1.2697  1.8144  0.7952
 2320TIP3   OH2 6965   2.770   3.876   1.991  0.0318 -0.7563  0.3265
 2320TIP3    H1 6966   2.825   3.798   1.997  0.3196 -0.6610 -0.8595
 2320TIP3    H2 6967   2.682   3.846   2.013  0.1212 -1.4429 -0.2312
 2321TIP3   OH2 6968   3.212   5.114   1.342  0.2579  0.2064  0.3223
 2321TIP3    H1 6969   3.298   5.089   1.308 -0.3913 -0.0000 -1.2898
 2321TIP3    H2 6970   3.158   5.035   1.332 -0.9250  1.1843 -1.6807
 2322TIP3   OH2 6971   1.878   5.406   3.262 -0.1138  0.8188 -0.5763
 2322TIP3    H1 6972   1.937   5.405   3.186  0.6712  1.5549  0.0023
 2322TIP3    H2 6973   1.906   5.330   3.314  0.8255  1.5729  0.0500
 2323TIP3   OH2 6974   2.789   3.816   1.014  0.1255  0.0780 -0.1885
 2323TIP3    H1 6975   2.785   3.912   1.012 -0.3000  0.0537 -2.2848
 2323TIP3    H2 6976   2.822   3.796   1.102 -1.6086  2.0585  1.0210
 2324TIP3   OH2 6977   2.812   0.448   0.119 -0.5327 -0.0177  0.4755
 2324TIP3    H1 6978   2.891   0.400   0.093  0.3559  0.8837  1.4211
 2324TIP3    H2 6979   2.741   0.406   0.069  0.5461 -0.7623 -0.4917
 2325TIP3   OH2 6980   2.173   3.641   5.192 -0.1198 -0.6948  0.3317
 2325TIP3    H1 6981   2.099   3.582   5.176 -0.7287 -0.4126  1.9470
 2325TIP3    H2 6982   2.147   3.724   5.151 -0.1784 -0.9341 -0.1215
 2326TIP3   OH2 6983   6.136   5.842   0.682 -0.0874  0.5209 -0.0039
 2326TIP3    H1 6984   6.155   5.830   0.775 -1.6394  3.8945  0.9326
 2326TIP3    H2 6985   6.214   5.884   0.646 -0.7628  2.5709  0.7600
 2327TIP3   OH2 6986   1.346   3.432   4.181 -0.2699 -0.1285  0.0106
 2327TIP3    H1 6987   1.340   3.434   4.085 -2.3348  0.1046  0.0995
 2327TIP3    H2 6988   1.337   3.340   4.204 -2.7595  0.0501  0.0487
 2328TIP3   OH2 6989   0.199   3.337   0.205  0.4629 -0.0663  0.7515
 2328TIP3    H1 6990   0.234   3.410   0.153 -4.1649  1.1082 -1.1812
 2328TIP3    H2 6991   0.225   3.259   0.157  0.2062  0.7397 -0.7549
 2329TIP3   OH2 6992   1.851   0.409   3.641 -0.1563  0.1266 -0.1584
 2329TIP3    H1 6993   1.782   0.413   3.575  1.1690  0.1736 -1.5923
 2329TIP3    H2 6994   1.931   0.390   3.592  0.9302  0.4345  1.4023
 2330TIP3   OH2 6995   3.674   2.555   2.385 -0.1705 -0.1202 -0.7298
 2330TIP3    H1 6996   3.644   2.637   2.347 -0.2907  0.1668 -0.0243
 2330TIP3    H2 6997   3.764   2.546   2.354  0.8370  1.7068  1.3926
 2331TIP3   OH2 6998   3.208   4.718   2.206  0.8510 -0.1980  0.2921
 2331TIP3    H1 6999   3.230   4.626   2.216  1.0517 -0.2422 -0.4815
 2331TIP3    H2 7000   3.142   4.720   2.137 -1.3986 -0.0350  2.2859
 2332TIP3   OH2 7001   6.016   2.420   3.089  0.1337 -0.0914 -0.2320
 2332TIP3    H1 7002   5.957   2.347   3.071 -0.0384  0.0835 -0.4023
 2332TIP3    H2 7003   5.965   2.478   3.146 -0.3544  0.6858 -1.4206
 2333TIP3   OH2 7004   6.109   1.139   2.643  0.1711 -0.5240 -0.0987
 2333TIP3    H1 7005   6.135   1.176   2.559 -1.4824  0.8211 -0.0725
 2333TIP3    H2 7006   6.047   1.069   2.621 -0.5154  0.0449 -0.0184
 2334TIP3   OH2 7007   1.836   2.591   4.950 -0.0936  0.3359  0.1419
 2334TIP3    H1 7008   1.906   2.530   4.974  0.1593  0.3400 -0.5566
 2334TIP3    H2 7009   1.780   2.542   4.890 -0.4194  0.4887  0.3191
 2335TIP3   OH2 7010   3.596   4.040   0.836  0.4478 -0.1197  0.1117
 2335TIP3    H1 7011   3.660   4.047   0.907  0.9549 -0.8020 -0.2566
 2335TIP3    H2 7012   3.640   3.986   0.770 -0.7414 -1.1196  0.1050
 2336TIP3   OH2 7013   4.493   3.447   1.013  0.8591 -0.2818 -0.1211
 2336TIP3    H1 7014   4.496   3.355   0.986  2.6268 -0.7861  1.5801
 2336TIP3    H2 7015   4.499   3.496   0.931 -1.5339 -1.6054 -1.1962
 2337TIP3   OH2 7016   6.239   0.821   1.628  0.1239 -0.1188  0.2049
 2337TIP3    H1 7017   6.163   0.792   1.678  0.1164 -0.4335  0.0137
 2337TIP3    H2 7018   6.309   0.761   1.655  0.4763  0.5875  0.8786
 2338TIP3   OH2 7019   1.837   2.050   4.328 -0.2065  0.5254 -0.0307
 2338TIP3    H1 7020   1.827   2.028   4.421  1.5479  0.0937  0.1073
 2338TIP3    H2 7021   1.925   2.018   4.306 -0.8628 -0.0254 -2.0450
 2339TIP3   OH2 7022   3.435   1.614   1.308  0.2717  0.8154 -0.2254
 2339TIP3    H1 7023   3.518   1.649   1.274  2.2889 -0.9179  2.4503
 2339TIP3    H2 7024   3.441   1.627   1.403 -1.3879 -1.5859  0.2959
 2340TIP3   OH2 7025   4.413   0.143   4.247  0.2851 -0.1217  0.1714
 2340TIP3    H1 7026   4.334   0.093   4.226  1.8252 -2.9471  0.6565
 2340TIP3    H2 7027   4.442   0.178   4.163 -0.9308  0.1505 -0.1565
 2341TIP3   OH2 7028   0.766   2.884   1.264 -0.1527  0.3777  0.2545
 2341TIP3    H1 7029   0.850   2.931   1.265 -0.1925  0.4638 -0.2404
 2341TIP3    H2 7030   0.753   2.861   1.172  1.2459 -3.0572  0.7675
 2342TIP3   OH2 7031   3.845   4.265   1.547  0.3289  0.4606 -0.7363
 2342TIP3    H1 7032   3.806   4.343   1.587  0.5156  0.1023  0.1651
 2342TIP3    H2 7033   3.777   4.232   1.488 -0.5417  0.1461  0.4157
 2343TIP3   OH2 7034   3.017   1.394   4.831 -0.1846  0.1555  0.6723
 2343TIP3    H1 7035   2.948   1.358   4.887 -0.0499  0.5345  1.0858
 2343TIP3    H2 7036   3.020   1.335   4.756 -1.4282  0.5135  0.3112
 2344TIP3   OH2 7037   5.826   5.316   1.612  0.5683  0.3563 -0.5383
 2344TIP3    H1 7038   5.901   5.281   1.564 -0.8968 -1.4067 -1.6590
 2344TIP3    H2 7039   5.761   5.334   1.546 -0.2247  1.3214  0.4717
 2345TIP3   OH2 7040   5.723   5.730   0.738 -0.4055  0.6691 -0.5378
 2345TIP3    H1 7041   5.802   5.754   0.691 -0.7115  2.6525 -0.1512
 2345TIP3    H2 7042   5.671   5.680   0.675  0.9200 -0.2430 -0.9431
 2346TIP3   OH2 7043   5.681   4.446   4.133  0.0242  0.0406  0.0414
 2346TIP3    H1 7044   5.622   4.388   4.083 -0.9674  0.7586  0.3548
 2346TIP3    H2 7045   5.723   4.500   4.066 -1.3491  1.0447 -0.0539
 2347TIP3   OH2 7046   3.721   1.238   3.481 -0.4763  0.2333  0.0812
 2347TIP3    H1 7047   3.763   1.298   3.542 -1.4746  0.2472  0.7756
 2347TIP3    H2 7048   3.758   1.261   3.395 -1.2183  2.2155  0.2514
 2348TIP3   OH2 7049   1.247   1.553   3.301 -0.4466 -0.5029  0.4072
 2348TIP3    H1 7050   1.317   1.617   3.283 -0.4574  0.6528  3.8108
 2348TIP3    H2 7051   1.294   1.475   3.332 -0.5934 -0.8966 -0.3283
 2349TIP3   OH2 7052   2.977   0.116   4.809  0.5120  0.2662 -0.0327
 2349TIP3    H1 7053   2.920   0.082   4.741  0.0809  1.0394 -0.0665
 2349TIP3    H2 7054   2.952   0.208   4.819  1.6521  0.5888  0.0517
 2350TIP3   OH2 7055   1.271   2.485   1.609  0.6304 -0.0632 -0.0152
 2350TIP3    H1 7056   1.353   2.437   1.624  1.9719  2.7701  2.8184
 2350TIP3    H2 7057   1.284   2.527   1.525  2.1228  0.2934  0.3547
 2351TIP3   OH2 7058   1.181   5.901   2.919  0.6802 -0.9444  0.6785
 2351TIP3    H1 7059   1.139   5.815   2.925 -0.2553 -0.5224  0.3112
 2351TIP3    H2 7060   1.172   5.926   2.827 -1.3572  0.6478  1.2202
 2352TIP3   OH2 7061   4.402   2.795   0.414 -0.0124 -0.6244 -0.0084
 2352TIP3    H1 7062   4.398   2.890   0.405 -0.8213 -0.7988 -2.1817
 2352TIP3    H2 7063   4.495   2.775   0.410  0.1989  0.0855  0.9367
 2353TIP3   OH2 7064   0.403   3.372   2.191  0.1426  0.1373  0.7316
 2353TIP3    H1 7065   0.433   3.388   2.281 -0.6976  1.9690  0.7357
 2353TIP3    H2 7066   0.326   3.428   2.181 -1.0161 -1.5706 -0.4974
 2354TIP3   OH2 7067   2.527   4.984   0.555 -0.6019  0.0217  0.2401
 2354TIP3    H1 7068   2.437   4.975   0.587 -1.0329  0.1243 -0.8719
 2354TIP3    H2 7069   2.543   4.904   0.505 -0.3816  0.3764 -0.2636
 2355TIP3   OH2 7070   2.338   3.221   3.940 -0.0098  0.1219 -0.6180
 2355TIP3    H1 7071   2.257   3.206   3.892 -0.2227  0.9755 -0.5404
 2355TIP3    H2 7072   2.313   3.274   4.015  0.5440 -0.0409 -0.3075
 2356TIP3   OH2 7073   5.753   5.315   1.869 -0.0794  0.0463 -0.4525
 2356TIP3    H1 7074   5.820   5.368   1.911 -0.4441  0.2954 -0.1751
 2356TIP3    H2 7075   5.777   5.315   1.776  0.1232  0.4014 -0.4009
 2357TIP3   OH2 7076   4.187   0.228   3.037  0.0843  0.0137  0.2780
 2357TIP3    H1 7077   4.201   0.261   3.126 -1.4678  1.6202 -0.0020
 2357TIP3    H2 7078   4.178   0.308   2.984 -2.2080 -0.8369 -0.7456
 2358TIP3   OH2 7079   3.583   0.834   1.440  0.1386 -0.2609  0.4271
 2358TIP3    H1 7080   3.628   0.874   1.365  0.5359  0.1410  0.8793
 2358TIP3    H2 7081   3.608   0.888   1.515  0.4088 -1.1529  0.9941
 2359TIP3   OH2 7082   3.976   3.244   2.201  0.3405  0.4096  0.3353
 2359TIP3    H1 7083   3.932   3.227   2.118 -0.5956 -1.1990  1.1044
 2359TIP3    H2 7084   4.024   3.326   2.187 -1.2626  1.1449 -1.1791
 2360TIP3   OH2 7085   1.863   3.995   1.478 -0.0936 -0.1876  0.1535
 2360TIP3    H1 7086   1.776   4.001   1.439  0.6923  0.8926 -1.5174
 2360TIP3    H2 7087   1.882   4.083   1.509  1.4382  0.2941 -1.9241
 2361TIP3   OH2 7088   1.213   0.816   2.462  0.3568 -0.4750  0.3589
 2361TIP3    H1 7089   1.233   0.802   2.555  1.5130 -0.4204  0.1232
 2361TIP3    H2 7090   1.158   0.895   2.462 -0.8075 -1.2513  1.0988
 2362TIP3   OH2 7091   2.659   3.848   2.979  0.7352  0.6094 -0.0989
 2362TIP3    H1 7092   2.570   3.816   2.960  0.7270  1.6644 -2.1816
 2362TIP3    H2 7093   2.647   3.942   2.994  1.3869  0.5699  0.7398
 2363TIP3   OH2 7094   1.306   5.818   0.123 -0.4121  0.4299 -0.2413
 2363TIP3    H1 7095   1.288   5.807   0.030  0.2034  0.8468 -0.4109
 2363TIP3    H2 7096   1.302   5.912   0.138  1.0788  0.5060 -0.1842
 2364TIP3   OH2 7097   3.931   1.653   4.857 -0.3882  0.1143 -0.8413
 2364TIP3    H1 7098   4.012   1.636   4.808  0.1193  0.5208 -0.1562
 2364TIP3    H2 7099   3.928   1.748   4.867 -0.1321 -0.0102  0.5005
 2365TIP3   OH2 7100   0.918   5.331   0.301 -0.2773  0.2545  0.0551
 2365TIP3    H1 7101   0.921   5.424   0.322 -2.1163  0.1747  0.9130
 2365TIP3    H2 7102   0.944   5.326   0.209 -0.8193  1.7105 -0.2109
 2366TIP3   OH2 7103   3.979   3.810   3.050  0.5001 -0.4274  0.4710
 2366TIP3    H1 7104   4.071   3.800   3.027  0.3379 -2.1434  0.4200
 2366TIP3    H2 7105   3.945   3.874   2.987  1.6514  0.2242  0.5031
 2367TIP3   OH2 7106   4.717   4.005   2.340  0.4301  0.0543  0.1466
 2367TIP3    H1 7107   4.625   4.032   2.339  0.9098  1.9141  1.4537
 2367TIP3    H2 7108   4.714   3.912   2.364 -1.1089 -0.0579 -0.3532
 2368TIP3   OH2 7109   0.330   3.531   4.892  0.1007 -0.4779  0.0027
 2368TIP3    H1 7110   0.254   3.510   4.947 -0.5499  1.7306  0.0584
 2368TIP3    H2 7111   0.402   3.484   4.933 -0.7050 -0.3103  1.7240
 2369TIP3   OH2 7112   1.975   4.972   1.565 -0.2114 -0.0522 -0.5220
 2369TIP3    H1 7113   1.979   4.962   1.470 -1.0573 -0.2398 -0.5397
 2369TIP3    H2 7114   1.956   4.884   1.598  0.0410  0.0174 -0.1715
 2370TIP3   OH2 7115   1.249   2.497   4.678  0.0839  0.0105 -0.2023
 2370TIP3    H1 7116   1.237   2.414   4.725 -0.9138  0.8148  1.0408
 2370TIP3    H2 7117   1.210   2.481   4.592  0.7305 -1.0865 -0.3092
 2371TIP3   OH2 7118   2.059   3.664   2.882  0.0324 -0.0091  0.0883
 2371TIP3    H1 7119   2.122   3.592   2.886  0.2423  0.0815 -1.1803
 2371TIP3    H2 7120   2.003   3.650   2.959 -1.5267 -3.0645 -1.4145
 2372TIP3   OH2 7121   5.674   3.023   2.267  0.3965 -0.5011  0.1609
 2372TIP3    H1 7122   5.718   3.077   2.202  0.3052 -0.2683  0.2905
 2372TIP3    H2 7123   5.739   2.957   2.291  0.8030  0.0487  0.6088
 2373TIP3   OH2 7124   4.800   0.379   3.614  0.2280 -0.1902 -0.3182
 2373TIP3    H1 7125   4.784   0.466   3.650  1.4394 -0.2819  0.5139
 2373TIP3    H2 7126   4.777   0.386   3.522 -0.7336  0.7015 -0.0271
 2374TIP3   OH2 7127   4.860   0.184   0.299 -0.6623 -0.0480  0.0551
 2374TIP3    H1 7128   4.794   0.183   0.368 -0.9756  0.2937 -0.2363
 2374TIP3    H2 7129   4.915   0.260   0.318 -0.3043 -0.3729  0.3377
 2375TIP3   OH2 7130   1.641   1.878   0.398 -0.5602 -0.0286 -0.5161
 2375TIP3    H1 7131   1.634   1.783   0.387  1.1106 -0.5258  1.9650
 2375TIP3    H2 7132   1.727   1.900   0.363 -0.7803  0.5323 -0.7214
 2376TIP3   OH2 7133   6.005   0.848   1.975 -0.1404  0.2132 -0.4265
 2376TIP3    H1 7134   5.994   0.933   1.933 -2.2186  2.5546  4.1344
 2376TIP3    H2 7135   6.080   0.860   2.034 -0.8162 -0.8893  0.6997
 2377TIP3   OH2 7136   0.016   2.038   2.024  0.3029  0.0687 -0.0078
 2377TIP3    H1 7137  -0.004   2.131   2.034  3.2035  0.7644  0.1946
 2377TIP3    H2 7138   0.053   2.030   1.936 -1.9772 -1.3873 -0.9183
 2378TIP3   OH2 7139   4.600   1.773   3.288 -0.1961 -0.3029 -0.0184
 2378TIP3    H1 7140   4.677   1.828   3.275 -1.4213  1.4936 -0.0253
 2378TIP3    H2 7141   4.559   1.768   3.202 -1.0902  0.3444  0.3612
 2379TIP3   OH2 7142   1.977   0.551   1.484  0.1585  0.4425  0.0494
 2379TIP3    H1 7143   1.916   0.622   1.503 -0.7178 -0.5392  1.0797
 2379TIP3    H2 7144   1.971   0.494   1.560  0.3589 -1.0494 -1.0078
 2380TIP3   OH2 7145   2.907   0.383   4.866  0.0670  0.1901 -0.4401
 2380TIP3    H1 7146   2.815   0.402   4.850 -0.5305 -1.6188  0.6391
 2380TIP3    H2 7147   2.924   0.417   4.954  0.6882  1.2781 -0.9589
 2381TIP3   OH2 7148   5.725   1.505   1.790  0.2166 -0.9486 -0.0271
 2381TIP3    H1 7149   5.676   1.587   1.788  0.5229 -0.7307  0.9117
 2381TIP3    H2 7150   5.816   1.530   1.783  0.4339 -1.0497  1.8583
 2382TIP3   OH2 7151   1.111   0.363   3.547 -0.3637 -0.3250  0.3784
 2382TIP3    H1 7152   1.066   0.445   3.526 -0.0007  0.0402  0.9859
 2382TIP3    H2 7153   1.097   0.307   3.471  0.9378  0.9456 -0.8680
 2383TIP3   OH2 7154   3.905   5.849   2.768  0.7396 -0.4175  0.2223
 2383TIP3    H1 7155   3.816   5.816   2.762 -0.4570  2.2837  1.5217
 2383TIP3    H2 7156   3.952   5.804   2.698 -1.6644 -1.7874 -0.6165
 2384TIP3   OH2 7157   1.620   1.218   2.553  0.9545 -0.5184 -0.0240
 2384TIP3    H1 7158   1.692   1.281   2.550  1.5178 -1.1425  0.1945
 2384TIP3    H2 7159   1.594   1.207   2.462  0.4376  0.4888 -0.0098
 2385TIP3   OH2 7160   2.743   3.077   0.726 -0.0291  0.1899  0.2646
 2385TIP3    H1 7161   2.770   3.053   0.638 -0.0719 -0.6195  0.4700
 2385TIP3    H2 7162   2.661   3.125   0.715  1.3938  2.7076 -0.3813
 2386TIP3   OH2 7163   1.387   4.290   2.169 -0.4014 -0.3384  0.5770
 2386TIP3    H1 7164   1.350   4.358   2.112  0.9111  0.9882  1.2526
 2386TIP3    H2 7165   1.311   4.251   2.212 -1.1157  1.5653  1.1113
 2387TIP3   OH2 7166   3.427   3.463   1.506  0.2147  0.2410 -0.2526
 2387TIP3    H1 7167   3.473   3.536   1.465  1.0043  1.0754  1.9744
 2387TIP3    H2 7168   3.495   3.417   1.556 -0.8662 -0.0111  1.0508
 2388TIP3   OH2 7169   1.905   1.175   1.995  0.2444  0.1071  0.4091
 2388TIP3    H1 7170   1.954   1.125   2.060  1.6883  0.2173 -0.5383
 2388TIP3    H2 7171   1.948   1.154   1.912 -1.4158  0.1232 -0.4917
 2389TIP3   OH2 7172   0.222   4.930   5.057  0.0821  0.0202 -0.1486
 2389TIP3    H1 7173   0.130   4.905   5.052 -0.3244  0.7449  2.2022
 2389TIP3    H2 7174   0.266   4.852   5.092  0.4664 -0.4449 -1.5962
 2390TIP3   OH2 7175   6.225   3.428   4.705 -0.2081 -0.0725  0.5094
 2390TIP3    H1 7176   6.247   3.462   4.791 -1.5788  2.2172  0.0450
 2390TIP3    H2 7177   6.150   3.370   4.720  0.1342 -0.4029  0.9549
 2391TIP3   OH2 7178   0.870   1.568   4.727 -0.2869  0.1198 -0.4990
 2391TIP3    H1 7179   0.943   1.605   4.777  0.2770  1.0554 -1.9425
 2391TIP3    H2 7180   0.873   1.474   4.747 -0.6456  0.5553  1.8608
 2392TIP3   OH2 7181   5.092   5.603   1.921  0.8347 -0.1169  0.6979
 2392TIP3    H1 7182   5.024   5.664   1.893  1.4697 -0.0494 -0.7794
 2392TIP3    H2 7183   5.050   5.549   1.987 -0.8073 -0.3718 -0.4927
 2393TIP3   OH2 7184   5.002   3.649   3.954  0.1496  0.6107 -0.5816
 2393TIP3    H1 7185   5.023   3.736   3.920  1.5295  0.2173 -0.7821
 2393TIP3    H2 7186   4.909   3.638   3.933 -0.4051  2.5330  0.5794
 2394TIP3   OH2 7187   2.878   2.828   4.372  0.1283 -0.0394  0.4567
 2394TIP3    H1 7188   2.953   2.886   4.387  0.3064 -0.2802  0.5067
 2394TIP3    H2 7189   2.835   2.822   4.457 -0.6270  1.0258  0.1714
 2395TIP3   OH2 7190   3.706   5.212   4.585 -0.0718 -0.1272  0.2339
 2395TIP3    H1 7191   3.704   5.117   4.593 -0.0881 -0.1132  0.4063
 2395TIP3    H2 7192   3.735   5.229   4.495  1.7962 -0.2841  0.7709
 2396TIP3   OH2 7193   2.911   0.973   3.115  0.3387  0.1529 -0.6262
 2396TIP3    H1 7194   2.854   0.921   3.171 -1.4985  0.4758 -2.0890
 2396TIP3    H2 7195   2.936   1.048   3.169  1.4542 -1.2216  0.8556
 2397TIP3   OH2 7196   2.263   4.028   2.413 -0.0723 -0.6156 -0.0369
 2397TIP3    H1 7197   2.347   4.027   2.366  0.2110  1.5137  0.2921
 2397TIP3    H2 7198   2.270   4.103   2.472 -2.4813  0.0738 -0.5193
 2398TIP3   OH2 7199   1.971   2.064   1.243  0.0200  0.4665 -0.8502
 2398TIP3    H1 7200   1.879   2.052   1.221 -0.0713 -0.5615  0.0272
 2398TIP3    H2 7201   2.019   2.020   1.173 -0.2587 -2.5665  0.7138
 2399TIP3   OH2 7202   0.999   0.043   1.769  0.2885  0.9477 -0.6684
 2399TIP3    H1 7203   1.042  -0.040   1.791 -0.1028  1.0327  0.5146
 2399TIP3    H2 7204   1.039   0.069   1.686 -0.5688 -1.0856 -1.7889
 2400TIP3   OH2 7205   1.947   3.672   4.593 -0.4376 -0.2765 -0.4820
 2400TIP3    H1 7206   2.001   3.638   4.664 -0.0955 -2.8120 -1.8431
 2400TIP3    H2 7207   2.010   3.709   4.531 -0.7601  2.3820  0.6127
 2401TIP3   OH2 7208   3.543   2.070   3.168 -0.3472  0.5510 -0.7334
 2401TIP3    H1 7209   3.513   2.002   3.229  0.8482 -0.5267 -1.3098
 2401TIP3    H2 7210   3.476   2.139   3.174 -0.7608  0.0480  1.0620
 2402TIP3   OH2 7211   3.345   2.604   0.287  0.0095  0.3495 -0.4881
 2402TIP3    H1 7212   3.299   2.619   0.205 -1.3934  1.6572  0.4754
 2402TIP3    H2 7213   3.428   2.651   0.277 -0.0761  0.3626 -1.1924
 2403TIP3   OH2 7214   1.859   4.193   3.520 -0.0953 -0.6250  0.2770
 2403TIP3    H1 7215   1.883   4.281   3.547 -1.7317 -0.2122  0.5270
 2403TIP3    H2 7216   1.882   4.138   3.595 -0.9741 -0.0780  0.9647
 2404TIP3   OH2 7217   3.581   0.510   3.647 -0.2391  0.3367  0.4979
 2404TIP3    H1 7218   3.629   0.558   3.713 -0.1232  0.1335  0.5632
 2404TIP3    H2 7219   3.625   0.425   3.643 -2.0892 -0.7993  2.3409
 2405TIP3   OH2 7220   4.501   2.676   3.761  0.1940  0.2699  0.1587
 2405TIP3    H1 7221   4.518   2.655   3.853  0.5342  0.4983  0.1499
 2405TIP3    H2 7222   4.425   2.735   3.764 -0.1687 -0.1959  0.2472
 2406TIP3   OH2 7223   1.111   2.933   3.038  0.0037  0.0177 -0.0919
 2406TIP3    H1 7224   1.187   2.880   3.015  0.9453  0.9558  0.7433
 2406TIP3    H2 7225   1.121   3.013   2.986 -0.9867 -0.2686 -0.7562
 2407TIP3   OH2 7226   4.067   4.471   4.103 -0.2409 -0.1983  0.1815
 2407TIP3    H1 7227   4.015   4.543   4.139 -0.4056 -0.9699  1.5255
 2407TIP3    H2 7228   4.118   4.512   4.033  0.0029  1.3317  1.2050
 2408TIP3   OH2 7229   1.119   2.251   4.298 -0.0427  0.1380  0.4258
 2408TIP3    H1 7230   1.189   2.186   4.293  0.8094  0.9658  1.1446
 2408TIP3    H2 7231   1.045   2.204   4.336  0.6865 -0.3310  1.3223
 2409TIP3   OH2 7232   2.322   2.381   5.134 -0.3029  0.2914  0.0831
 2409TIP3    H1 7233   2.275   2.341   5.207 -3.5081  2.0640 -0.7782
 2409TIP3    H2 7234   2.307   2.475   5.145  2.3319  0.8860 -0.8728
 2410TIP3   OH2 7235   0.227   3.355   3.825 -0.4626 -0.4904 -0.0314
 2410TIP3    H1 7236   0.215   3.353   3.920 -0.9269  0.4769 -0.0590
 2410TIP3    H2 7237   0.288   3.428   3.810 -0.5158 -0.5349 -0.4854
 2411TIP3   OH2 7238  -0.032   4.097   0.114 -0.1824  0.4629  0.2551
 2411TIP3    H1 7239   0.018   4.069   0.037 -1.9932  1.8323 -1.5567
 2411TIP3    H2 7240   0.025   4.159   0.158  1.4820 -1.4590  0.9306
 2412TIP3   OH2 7241   4.879   0.081   1.474 -0.3680  0.1302  0.1157
 2412TIP3    H1 7242   4.828   0.075   1.393  0.3598  0.7338 -0.4000
 2412TIP3    H2 7243   4.876  -0.008   1.511 -2.0521  0.2201  0.2854
 2413TIP3   OH2 7244   3.136   2.537   1.164  0.3872 -0.3670 -0.3207
 2413TIP3    H1 7245   3.100   2.451   1.139 -0.9329  0.3956 -1.2095
 2413TIP3    H2 7246   3.129   2.589   1.083 -1.1203  1.2883  0.7996
 2414TIP3   OH2 7247   4.140   2.550   0.908 -0.4457 -0.1004  0.9143
 2414TIP3    H1 7248   4.129   2.592   0.993 -0.5232  3.0523 -0.4811
 2414TIP3    H2 7249   4.208   2.602   0.865 -1.2004 -0.8583 -1.3412
 2415TIP3   OH2 7250   2.520   0.668   0.372 -0.0008  0.4774 -0.4323
 2415TIP3    H1 7251   2.473   0.628   0.298 -1.3025  2.1010 -0.5393
 2415TIP3    H2 7252   2.550   0.752   0.338  1.9377  0.0199  0.0457
 2416TIP3   OH2 7253   2.085   3.956   3.774 -0.1899  0.0075 -0.6008
 2416TIP3    H1 7254   2.001   3.934   3.734  0.1810 -2.5172 -0.1931
 2416TIP3    H2 7255   2.147   3.895   3.734  0.7711 -0.4890  1.4982
 2417TIP3   OH2 7256   3.464   2.804   2.381 -1.0319 -0.2979 -0.0925
 2417TIP3    H1 7257   3.428   2.892   2.395  0.6568  0.2635  1.0183
 2417TIP3    H2 7258   3.551   2.820   2.344 -1.3053 -1.5721 -1.3598
 2418TIP3   OH2 7259   0.798   4.393   0.601 -0.1952  0.0693  0.0117
 2418TIP3    H1 7260   0.706   4.420   0.607  0.4659  2.5824  0.2420
 2418TIP3    H2 7261   0.834   4.449   0.532  1.0629 -1.2785 -0.4633
 2419TIP3   OH2 7262   2.856   2.351   1.801  0.4292  0.0157  0.0706
 2419TIP3    H1 7263   2.874   2.263   1.835 -1.4254  0.2726  1.8988
 2419TIP3    H2 7264   2.929   2.369   1.742  1.4433 -2.2990  0.5070
 2420TIP3   OH2 7265   0.815   1.953   1.343  0.0453  0.4686  0.1576
 2420TIP3    H1 7266   0.766   1.964   1.262 -2.4236 -0.7744  1.3628
 2420TIP3    H2 7267   0.775   1.877   1.385  3.5332 -1.1222  0.9665
 2421TIP3   OH2 7268   3.446   1.484   5.126 -0.0559  0.4094  0.5767
 2421TIP3    H1 7269   3.402   1.468   5.042 -0.5092 -1.8710  1.1818
 2421TIP3    H2 7270   3.526   1.530   5.103  0.2350 -0.9100 -1.2196
 2422TIP3   OH2 7271   0.391   0.897   0.239  0.4836  0.3927 -0.9180
 2422TIP3    H1 7272   0.445   0.871   0.314 -0.4375  0.9504 -0.0348
 2422TIP3    H2 7273   0.420   0.987   0.219  1.4640 -0.1254 -1.9356
 2423TIP3   OH2 7274   1.997   4.800   4.048  0.3580 -0.1489 -0.3885
 2423TIP3    H1 7275   1.954   4.884   4.069  0.9401 -0.0086  0.2387
 2423TIP3    H2 7276   2.031   4.768   4.131 -0.1224 -1.1746 -0.5675
 2424TIP3   OH2 7277   1.787   2.131   3.305  0.5112 -0.1223 -0.2686
 2424TIP3    H1 7278   1.768   2.103   3.395  2.4394 -0.6199  0.0210
 2424TIP3    H2 7279   1.756   2.221   3.301  0.2557 -0.1473  0.8491
 2425TIP3   OH2 7280   4.137   3.282   3.218  0.2529  0.2330 -0.0425
 2425TIP3    H1 7281   4.227   3.287   3.250  0.5254 -0.5436 -0.6500
 2425TIP3    H2 7282   4.126   3.190   3.193  0.4065  0.9167 -3.0827
 2426TIP3   OH2 7283   2.060   3.508   2.306  0.1640 -0.5221 -0.3646
 2426TIP3    H1 7284   1.970   3.531   2.283 -0.0985 -1.5151 -0.4037
 2426TIP3    H2 7285   2.075   3.425   2.261  1.0438 -0.4426 -0.2263
 2427TIP3   OH2 7286   5.000   0.612   1.455  0.0610 -0.0973 -0.2018
 2427TIP3    H1 7287   4.963   0.631   1.541  1.2865 -0.2341  0.3658
 2427TIP3    H2 7288   4.950   0.537   1.423 -0.8812  0.4000  0.0621
 2428TIP3   OH2 7289   3.580   3.429   4.551 -0.0167 -0.3255 -0.3514
 2428TIP3    H1 7290   3.555   3.431   4.644  1.4050  0.1002  0.0399
 2428TIP3    H2 7291   3.551   3.342   4.521  1.4197 -1.3535  1.0620
 2429TIP3   OH2 7292   0.411   0.761   2.571  0.3863 -0.6130  0.8476
 2429TIP3    H1 7293   0.431   0.682   2.521  0.0339 -1.4067  1.9283
 2429TIP3    H2 7294   0.451   0.831   2.521  0.8152 -1.4861 -0.0738
 2430TIP3   OH2 7295   6.287   5.122   1.807  0.2373 -0.0657 -0.3055
 2430TIP3    H1 7296   6.270   5.216   1.810 -1.2516 -0.3466  1.5962
 2430TIP3    H2 7297   6.260   5.089   1.892  1.5524 -2.1246 -0.5949
 2431TIP3   OH2 7298   6.240   5.390   2.252 -0.2844 -0.2259 -0.1774
 2431TIP3    H1 7299   6.171   5.457   2.251  0.7884  0.9125 -1.4374
 2431TIP3    H2 7300   6.304   5.424   2.314 -0.2000 -0.5839 -0.0702
 2432TIP3   OH2 7301   3.261   4.036   3.749 -0.6010 -0.4508 -0.1282
 2432TIP3    H1 7302   3.222   3.965   3.698 -1.5567  0.8867 -1.3336
 2432TIP3    H2 7303   3.190   4.068   3.805 -0.5202  0.3076 -0.4449
 2433TIP3   OH2 7304   4.028   0.954   2.671 -0.1529  0.2346 -0.4761
 2433TIP3    H1 7305   4.053   0.898   2.745 -1.2308  0.5641  0.1583
 2433TIP3    H2 7306   4.046   0.901   2.593 -0.2033 -0.6117  0.0750
 2434TIP3   OH2 7307   2.886   3.413   4.537 -0.4904  0.0216  0.1166
 2434TIP3    H1 7308   2.820   3.481   4.527 -0.8421 -0.2805  0.3783
 2434TIP3    H2 7309   2.866   3.349   4.469 -0.6759 -0.2378  0.4129
 2435TIP3   OH2 7310   1.565   3.335   3.957  0.6793  0.3423 -0.3220
 2435TIP3    H1 7311   1.597   3.376   3.876 -1.2748  0.5019 -1.0887
 2435TIP3    H2 7312   1.500   3.271   3.927 -0.8916  1.1606  1.1212
 2436TIP3   OH2 7313   4.977   1.951   1.991  0.2397 -0.5453 -0.2849
 2436TIP3    H1 7314   4.964   1.900   1.911 -0.3261 -3.8632  1.7301
 2436TIP3    H2 7315   5.071   1.943   2.009  0.3240  0.0054 -0.4431
 2437TIP3   OH2 7316   3.819   3.709   3.590  0.2250 -0.3193  0.1176
 2437TIP3    H1 7317   3.809   3.699   3.496 -1.8027 -2.5048  0.4595
 2437TIP3    H2 7318   3.819   3.804   3.605 -2.8712  0.1242 -1.8390
 2438TIP3   OH2 7319   2.880   3.332   0.821 -0.2939 -0.8568 -0.3618
 2438TIP3    H1 7320   2.835   3.257   0.860 -0.2842 -0.0502  1.3023
 2438TIP3    H2 7321   2.811   3.398   0.809  0.0608 -0.3720  0.2150
 2439TIP3   OH2 7322   4.804   0.190   3.848 -0.1271 -0.5947 -0.1669
 2439TIP3    H1 7323   4.802   0.103   3.807  0.7135 -0.4989 -0.4362
 2439TIP3    H2 7324   4.805   0.252   3.775  0.7117 -0.4072 -0.0082
 2440TIP3   OH2 7325   3.593   1.045   3.260 -0.2977  0.2027 -0.4912
 2440TIP3    H1 7326   3.574   0.962   3.218  0.1048  0.3060 -0.8939
 2440TIP3    H2 7327   3.509   1.074   3.296 -0.6038 -0.0062 -1.0176
 2441TIP3   OH2 7328   5.195   0.353   1.522  0.2116  0.1212  0.0894
 2441TIP3    H1 7329   5.115   0.349   1.468 -0.8576  0.0260  1.6196
 2441TIP3    H2 7330   5.163   0.353   1.612  1.9999 -1.0663  0.7763
 2442TIP3   OH2 7331   5.114   0.755   3.239  0.1819  0.1067 -0.3957
 2442TIP3    H1 7332   5.099   0.683   3.178 -0.1167  0.3213 -0.5810
 2442TIP3    H2 7333   5.031   0.803   3.240  0.7710  1.1814 -1.2308
 2443TIP3   OH2 7334   1.885   3.862   2.770 -0.2092  0.1162  0.3039
 2443TIP3    H1 7335   1.930   3.780   2.794 -1.0266 -0.3270  0.3618
 2443TIP3    H2 7336   1.852   3.897   2.853 -0.0296  0.4068  0.2541
 2444TIP3   OH2 7337   6.324   5.106   4.148 -0.8411 -0.4378  0.1776
 2444TIP3    H1 7338   6.274   5.096   4.067  1.1778 -0.6176 -1.1215
 2444TIP3    H2 7339   6.339   5.200   4.156 -0.9629 -0.4282  0.2982
 2445TIP3   OH2 7340   5.371   0.985   4.356  0.5130  0.4211  0.1673
 2445TIP3    H1 7341   5.393   0.901   4.315  1.2749  0.6306  0.1298
 2445TIP3    H2 7342   5.394   1.050   4.290 -0.1078  0.6630  0.1851
 2446TIP3   OH2 7343   2.372   3.650   3.173 -0.2112  0.1591  0.8913
 2446TIP3    H1 7344   2.437   3.690   3.231  0.8253 -1.2022  0.7197
 2446TIP3    H2 7345   2.298   3.630   3.230  0.6900 -0.9290  1.7398
 2447TIP3   OH2 7346   3.289   4.495   2.607 -0.2468 -0.1437 -0.2249
 2447TIP3    H1 7347   3.317   4.416   2.653 -0.5454  0.0312  0.2607
 2447TIP3    H2 7348   3.368   4.525   2.561 -0.1133 -0.6766 -0.3503
 2448TIP3   OH2 7349   1.645   2.756   2.188 -0.2305  0.3025 -0.6918
 2448TIP3    H1 7350   1.669   2.846   2.212 -0.7950  0.2473  0.1165
 2448TIP3    H2 7351   1.702   2.735   2.114  1.0719  0.7415  0.1463
 2449TIP3   OH2 7352   1.182   3.289   0.463 -0.1904 -0.2104 -0.1405
 2449TIP3    H1 7353   1.161   3.377   0.432  0.5651  0.1205  0.2578
 2449TIP3    H2 7354   1.134   3.280   0.545 -0.2457 -0.1624 -0.1675
 2450TIP3   OH2 7355   3.197   3.977   4.927 -0.2354 -0.1526  0.3610
 2450TIP3    H1 7356   3.166   3.888   4.948  2.2235 -1.1440  0.0830
 2450TIP3    H2 7357   3.268   3.993   4.989  1.9106  0.0194 -1.9684
 2451TIP3   OH2 7358   2.858   2.405   2.151  1.1448  0.1376 -0.1960
 2451TIP3    H1 7359   2.767   2.383   2.129  0.8877 -0.3854  1.2813
 2451TIP3    H2 7360   2.857   2.501   2.160 -0.0582 -0.0261  2.8030
 2452TIP3   OH2 7361   5.767   4.843   0.289  0.4297 -0.2536  0.2332
 2452TIP3    H1 7362   5.758   4.777   0.221 -0.6240  0.3623 -0.2526
 2452TIP3    H2 7363   5.787   4.924   0.242 -1.0079  0.3278  0.5607
 2453TIP3   OH2 7364   2.599   4.805   4.767 -0.1837  0.0182  0.0092
 2453TIP3    H1 7365   2.658   4.732   4.788 -0.6178 -0.2645  0.2697
 2453TIP3    H2 7366   2.559   4.827   4.851 -0.5217  0.1431 -0.1853
 2454TIP3   OH2 7367   6.160   5.183   0.143 -0.6615 -0.2280  0.3289
 2454TIP3    H1 7368   6.188   5.133   0.067 -1.8217  0.6644 -0.7257
 2454TIP3    H2 7369   6.081   5.229   0.114 -1.8457 -0.7957  2.4357
 2455TIP3   OH2 7370   4.039   0.025   2.035  0.0056  0.3228 -0.1901
 2455TIP3    H1 7371   3.971   0.092   2.029 -0.0261  0.1808 -2.3209
 2455TIP3    H2 7372   4.121   0.072   2.021 -0.0717 -0.0898 -2.5056
 2456TIP3   OH2 7373   4.212   3.648   3.361 -0.3385  0.3721  0.1068
 2456TIP3    H1 7374   4.259   3.645   3.445 -1.0068 -1.1527  0.4744
 2456TIP3    H2 7375   4.142   3.583   3.371 -2.2157  2.1857 -0.6140
 2457TIP3   OH2 7376   3.315   1.791   3.034 -0.3781 -0.0313  0.3561
 2457TIP3    H1 7377   3.406   1.767   3.049 -0.4255  0.3772  1.3387
 2457TIP3    H2 7378   3.301   1.775   2.940  1.8004  3.3601 -0.7655
 2458TIP3   OH2 7379   0.306   3.840   1.637 -0.2308  0.1436  0.3973
 2458TIP3    H1 7380   0.396   3.870   1.649 -0.1568 -0.0832  0.4018
 2458TIP3    H2 7381   0.314   3.747   1.614 -0.6532 -1.0468  4.4219
 2459TIP3   OH2 7382   5.895   2.263   1.589  0.4749 -0.5899  0.0629
 2459TIP3    H1 7383   5.852   2.309   1.661 -0.6854 -1.9206  0.2663
 2459TIP3    H2 7384   5.988   2.277   1.603  0.1749  1.3213  0.3419
 2460TIP3   OH2 7385   1.377   4.459   4.179 -0.2932  0.1229 -0.5013
 2460TIP3    H1 7386   1.331   4.543   4.172  0.9085  0.8703  0.3861
 2460TIP3    H2 7387   1.438   4.459   4.105  0.7086  0.6796  0.3067
 2461TIP3   OH2 7388   1.136   5.750   2.120  0.3077 -0.6860  0.0208
 2461TIP3    H1 7389   1.041   5.738   2.118  0.2680 -0.4255  0.2782
 2461TIP3    H2 7390   1.163   5.740   2.029  0.1167 -1.4145  0.0360
 2462TIP3   OH2 7391   0.274   2.850   4.308  0.0193 -0.1071  0.4988
 2462TIP3    H1 7392   0.292   2.931   4.356 -1.1328  0.0812  0.6217
 2462TIP3    H2 7393   0.340   2.788   4.341  1.9226  1.1718 -0.6972
 2463TIP3   OH2 7394   2.375   4.343   1.322  0.0696 -0.1745  0.4387
 2463TIP3    H1 7395   2.435   4.310   1.390  0.5909 -0.4538 -0.1488
 2463TIP3    H2 7396   2.426   4.409   1.276 -0.2283 -0.0992  0.2190
 2464TIP3   OH2 7397   3.409   4.709   5.132  0.4097  0.2214 -0.5878
 2464TIP3    H1 7398   3.462   4.784   5.162 -1.1140  1.0684  0.0742
 2464TIP3    H2 7399   3.430   4.639   5.194  1.2808  0.3013 -0.7676
 2465TIP3   OH2 7400   1.763   1.064   5.137 -0.0463  0.2921  0.5571
 2465TIP3    H1 7401   1.742   1.081   5.229 -1.2252  1.9145  0.0419
 2465TIP3    H2 7402   1.700   0.999   5.109  0.1903 -0.0607  0.8354
 2466TIP3   OH2 7403   4.663   3.733   0.220 -0.3634 -0.5709 -0.1813
 2466TIP3    H1 7404   4.690   3.660   0.277 -2.1117 -1.3219 -0.2305
 2466TIP3    H2 7405   4.638   3.690   0.138 -1.8727  0.0109 -0.0487
 2467TIP3   OH2 7406   4.851   1.816   4.293  0.1590  0.1083 -0.7620
 2467TIP3    H1 7407   4.759   1.791   4.287  0.0504  0.6142 -1.2537
 2467TIP3    H2 7408   4.885   1.765   4.366 -0.3969 -0.4318 -0.8739
 2468TIP3   OH2 7409   5.300   0.174   3.661 -0.5661  0.1915 -0.6602
 2468TIP3    H1 7410   5.345   0.224   3.593 -0.5313  0.8020 -0.1996
 2468TIP3    H2 7411   5.233   0.234   3.694 -0.4813 -0.0398 -0.0533
 2469TIP3   OH2 7412   5.827   5.539   3.360 -0.2314  0.6031  0.1551
 2469TIP3    H1 7413   5.838   5.626   3.322  0.1679  0.7685  0.6342
 2469TIP3    H2 7414   5.749   5.547   3.416 -1.5342  0.0385 -1.5099
 2470TIP3   OH2 7415   3.084   5.955   0.925  0.2077  0.0054  0.5549
 2470TIP3    H1 7416   3.173   5.973   0.957  0.8089 -1.5344 -0.1272
 2470TIP3    H2 7417   3.043   5.905   0.995 -0.2948  1.0575  1.0399
 2471TIP3   OH2 7418   0.011   5.587   3.531  0.2631 -0.3436  0.2957
 2471TIP3    H1 7419   0.091   5.635   3.550  0.1745 -0.3460  0.6982
 2471TIP3    H2 7420  -0.055   5.655   3.515  0.3516 -0.3419 -0.0701
 2472TIP3   OH2 7421   4.389   0.863   1.988  0.5778 -0.2501 -0.5714
 2472TIP3    H1 7422   4.370   0.813   2.068  0.9254 -2.3079 -1.7171
 2472TIP3    H2 7423   4.305   0.901   1.963  0.3050 -0.2309  0.3177
 2473TIP3   OH2 7424   2.000   4.779   3.129  0.3714 -0.8282  0.2098
 2473TIP3    H1 7425   1.993   4.856   3.073 -1.3633 -0.1892  1.2172
 2473TIP3    H2 7426   2.006   4.814   3.218 -1.8139 -1.7803  0.8143
 2474TIP3   OH2 7427   4.948   3.544   1.316 -0.2096 -0.2553  0.3714
 2474TIP3    H1 7428   4.886   3.472   1.326 -0.2212 -0.3824 -0.5327
 2474TIP3    H2 7429   4.895   3.623   1.329 -0.4838 -0.3739 -0.0067
 2475TIP3   OH2 7430   5.312   1.005   2.298  0.0094 -0.0015 -0.1236
 2475TIP3    H1 7431   5.389   1.014   2.355 -0.3017  0.5621  0.2225
 2475TIP3    H2 7432   5.332   0.930   2.243 -0.8686 -2.4711  2.6611
 2476TIP3   OH2 7433   2.892   4.846   0.664  0.1172  0.5818 -0.4022
 2476TIP3    H1 7434   2.900   4.938   0.636 -1.4681  0.5762 -0.9846
 2476TIP3    H2 7435   2.856   4.801   0.587 -1.0529 -0.1175  0.5251
 2477TIP3   OH2 7436   2.945   4.869   0.935  0.3291 -0.2051  0.0464
 2477TIP3    H1 7437   2.945   4.871   0.839 -0.1512 -0.3811  0.0443
 2477TIP3    H2 7438   2.967   4.779   0.958 -1.3119 -0.6344  0.0856
 2478TIP3   OH2 7439   0.437   4.107   4.321 -0.6438  0.1684 -0.1780
 2478TIP3    H1 7440   0.350   4.119   4.282 -0.5599 -1.4646 -0.9653
 2478TIP3    H2 7441   0.490   4.177   4.283 -1.5696  1.1166  0.2234
 2479TIP3   OH2 7442   3.607   0.937   4.375 -0.2751  0.1844 -0.3976
 2479TIP3    H1 7443   3.591   1.019   4.421  2.2849  1.0088 -0.8347
 2479TIP3    H2 7444   3.581   0.956   4.284  1.1453  0.8597 -0.6908
 2480TIP3   OH2 7445   4.696   3.980   4.116  0.5304 -0.0268 -0.1797
 2480TIP3    H1 7446   4.702   3.908   4.178  1.0280  0.1056 -0.0732
 2480TIP3    H2 7447   4.640   4.045   4.159 -2.7835 -1.6868 -1.5846
 2481TIP3   OH2 7448   2.078   5.028   4.298  0.4865 -0.2524 -0.0250
 2481TIP3    H1 7449   2.089   5.053   4.206 -1.3253 -0.4272 -0.3336
 2481TIP3    H2 7450   2.007   5.083   4.330 -0.1770 -1.4847  0.7245
 2482TIP3   OH2 7451   3.762   5.792   0.886 -0.2042 -0.1966 -0.3206
 2482TIP3    H1 7452   3.763   5.722   0.952 -0.0721  0.2831  0.1912
 2482TIP3    H2 7453   3.753   5.872   0.937 -1.6624  0.0866 -0.9772
 2483TIP3   OH2 7454   3.777   3.450   1.423  0.0319 -0.0808 -0.3366
 2483TIP3    H1 7455   3.716   3.524   1.414 -0.2416 -0.2588  0.0193
 2483TIP3    H2 7456   3.854   3.488   1.465  0.1585  0.1378 -0.7572
 2484TIP3   OH2 7457   4.380   2.937   1.002 -0.1483  0.0933  0.3488
 2484TIP3    H1 7458   4.293   2.969   0.981 -0.0422  0.8670  1.0372
 2484TIP3    H2 7459   4.380   2.931   1.097 -0.1203 -1.8628  0.2580
 2485TIP3   OH2 7460   4.753   3.444   2.466  0.7200  0.1482  0.2836
 2485TIP3    H1 7461   4.718   3.396   2.392 -0.7991  0.4669  0.7591
 2485TIP3    H2 7462   4.677   3.460   2.522  1.2436  2.6000  0.4025
 2486TIP3   OH2 7463   3.933   1.014   1.143  0.3514 -0.0023 -0.0219
 2486TIP3    H1 7464   3.975   1.030   1.058 -0.9557 -0.2788 -0.7531
 2486TIP3    H2 7465   3.952   1.093   1.194  1.6880 -0.1012 -0.3282
 2487TIP3   OH2 7466   5.772   2.479   3.903 -0.3762 -0.2463 -0.1007
 2487TIP3    H1 7467   5.735   2.414   3.843  0.1555  0.0548 -0.7668
 2487TIP3    H2 7468   5.842   2.433   3.949  1.4927  0.3787 -2.1326
 2488TIP3   OH2 7469   1.736   3.257   2.293 -0.8911 -0.4145  0.3699
 2488TIP3    H1 7470   1.783   3.225   2.370  0.9799 -0.0889 -0.5797
 2488TIP3    H2 7471   1.715   3.348   2.314 -0.8247 -0.4727  0.6937
 2489TIP3   OH2 7472   2.796   4.415   1.748  0.4725  0.4781 -0.1258
 2489TIP3    H1 7473   2.759   4.407   1.835 -2.0075 -0.6904 -1.2047
 2489TIP3    H2 7474   2.859   4.343   1.742  0.4265  0.3767  0.5538
 2490TIP3   OH2 7475   0.112   4.276   1.133 -0.3656 -0.0350 -0.3173
 2490TIP3    H1 7476   0.196   4.305   1.166 -0.6112 -1.3142  1.6119
 2490TIP3    H2 7477   0.133   4.225   1.054  0.5547  0.4642 -0.4075
 2491TIP3   OH2 7478   3.491   1.205   2.346  0.6140 -0.4598 -0.1450
 2491TIP3    H1 7479   3.405   1.231   2.313 -0.1751 -1.9290  0.6252
 2491TIP3    H2 7480   3.507   1.119   2.307 -0.0254 -1.9224  2.5441
 2492TIP3   OH2 7481   5.670   5.593   1.416 -0.1314 -0.5094  0.0896
 2492TIP3    H1 7482   5.717   5.647   1.352 -1.5687  1.9374  0.9494
 2492TIP3    H2 7483   5.598   5.554   1.366 -0.4502  0.3011 -0.1091
 2493TIP3   OH2 7484   5.799   2.330   2.060  0.4323  0.1387 -0.7207
 2493TIP3    H1 7485   5.823   2.419   2.085 -1.1920  0.5103 -0.4301
 2493TIP3    H2 7486   5.857   2.310   1.986  0.8876  1.3910 -0.7239
 2494TIP3   OH2 7487   5.982   4.202   4.110  0.1423 -0.5837  0.9532
 2494TIP3    H1 7488   5.912   4.208   4.045  0.2721 -0.9348  0.7803
 2494TIP3    H2 7489   6.062   4.191   4.058  0.6704  2.1689  1.0004
 2495TIP3   OH2 7490   6.048   0.070   1.801 -0.0366  0.2576  0.0187
 2495TIP3    H1 7491   5.980   0.087   1.866  1.2639  0.7664  1.2898
 2495TIP3    H2 7492   6.091   0.154   1.788  1.4258 -0.3695  0.5111
 2496TIP3   OH2 7493   4.116   4.983   4.520  0.0984 -0.3857 -0.6390
 2496TIP3    H1 7494   4.167   4.991   4.439  2.6310  0.7549  0.9478
 2496TIP3    H2 7495   4.156   4.910   4.566 -0.7839 -0.4936 -0.0203
 2497TIP3   OH2 7496   2.381   1.214   1.147 -0.3964 -0.2308  0.0019
 2497TIP3    H1 7497   2.329   1.232   1.069  0.1109  0.5321 -0.1672
 2497TIP3    H2 7498   2.319   1.224   1.220 -1.1318 -1.9673 -0.3251
 2498TIP3   OH2 7499   2.487   4.198   3.429  0.3077  0.1621  0.0252
 2498TIP3    H1 7500   2.566   4.154   3.399  0.1024  0.0641 -0.3797
 2498TIP3    H2 7501   2.494   4.287   3.395  0.3490  0.2189  0.1801
 2499TIP3   OH2 7502   3.871   3.544   3.044 -0.3100  0.3325  0.1073
 2499TIP3    H1 7503   3.907   3.629   3.068  1.4822  0.0687 -1.3512
 2499TIP3    H2 7504   3.858   3.499   3.127  1.7977  0.8770  0.8020
 2500TIP3   OH2 7505   2.997   1.414   5.137 -0.3191 -0.4990  0.5137
 2500TIP3    H1 7506   2.988   1.446   5.227  0.2046  1.1416  0.0233
 2500TIP3    H2 7507   3.004   1.493   5.085  1.0029 -1.4498 -0.8080
 2501TIP3   OH2 7508   5.862   1.725   5.137  0.0947  0.0589  0.0514
 2501TIP3    H1 7509   5.804   1.659   5.176 -0.0111 -0.0642 -0.3086
 2501TIP3    H2 7510   5.887   1.782   5.210  0.3545 -0.5009  0.4022
 2502TIP3   OH2 7511   0.614   2.616   2.647  0.4008 -0.2145 -0.2070
 2502TIP3    H1 7512   0.564   2.689   2.683  0.4723  0.2586 -1.0422
 2502TIP3    H2 7513   0.591   2.541   2.703 -2.4939 -0.4018 -1.4737
 2503TIP3   OH2 7514   2.719   5.931   3.721 -0.0722 -0.4176 -0.2717
 2503TIP3    H1 7515   2.671   5.850   3.702 -1.5141  0.2070  0.5998
 2503TIP3    H2 7516   2.738   5.967   3.634  0.3604 -1.5299 -0.6674
 2504TIP3   OH2 7517   3.782   0.914   3.431  0.1785 -0.2277  0.1499
 2504TIP3    H1 7518   3.732   0.972   3.374  0.8206  0.0971 -0.0897
 2504TIP3    H2 7519   3.751   0.935   3.520  0.6873  0.7634  0.0988
 2505TIP3   OH2 7520   6.296   5.739   3.948  0.0392 -0.2193  0.9531
 2505TIP3    H1 7521   6.325   5.828   3.926  0.1595 -0.4475  0.1562
 2505TIP3    H2 7522   6.213   5.729   3.902  1.0794 -1.2819 -0.8532
 2506TIP3   OH2 7523   0.524   0.878   1.020 -0.5234  0.0873 -0.2181
 2506TIP3    H1 7524   0.560   0.807   0.967  0.6804  0.0876  0.5355
 2506TIP3    H2 7525   0.437   0.848   1.045 -0.7154 -0.3411 -1.3570
 2507TIP3   OH2 7526   4.929   4.515   0.159 -0.0077 -0.1036 -0.2081
 2507TIP3    H1 7527   4.846   4.493   0.117  1.1399 -0.8571 -2.2118
 2507TIP3    H2 7528   4.951   4.438   0.211 -0.7176  0.2534  0.6536
 2508TIP3   OH2 7529   2.232   4.142   4.195  0.0457  0.2805  0.0823
 2508TIP3    H1 7530   2.148   4.154   4.150  0.3527 -0.3107 -0.6696
 2508TIP3    H2 7531   2.298   4.161   4.128  0.5088 -0.3519  0.3430
 2509TIP3   OH2 7532   0.195   3.320   2.865 -0.3666  0.6165  0.1907
 2509TIP3    H1 7533   0.246   3.285   2.938 -1.4429  0.8917  1.1022
 2509TIP3    H2 7534   0.236   3.404   2.845 -0.5944  0.9439  1.0636
 2510TIP3   OH2 7535   5.150   4.874   3.613  0.0875  0.3339  0.3312
 2510TIP3    H1 7536   5.067   4.886   3.659 -0.4310 -0.5721 -0.3201
 2510TIP3    H2 7537   5.211   4.843   3.680 -0.3711  0.0484  0.6183
 2511TIP3   OH2 7538   4.798   5.066   3.191 -0.2206  0.4852 -0.6485
 2511TIP3    H1 7539   4.858   5.068   3.117  1.1724 -1.5805  0.2984
 2511TIP3    H2 7540   4.832   4.996   3.247 -0.1929  2.9684  2.7891
 2512TIP3   OH2 7541   4.731   5.460   1.507 -0.2711 -0.0291 -1.0165
 2512TIP3    H1 7542   4.775   5.545   1.515 -0.4509  0.0357 -0.6965
 2512TIP3    H2 7543   4.642   5.483   1.477 -0.7239 -0.0014  0.2871
 2513TIP3   OH2 7544   0.500   0.732   2.044  0.1609 -0.2988  0.4703
 2513TIP3    H1 7545   0.578   0.716   1.991  0.7968 -0.2353  1.3772
 2513TIP3    H2 7546   0.459   0.808   2.002  0.0931 -0.8605 -0.5357
 2514TIP3   OH2 7547   5.505   3.084   4.483  0.3082  0.2448  0.2278
 2514TIP3    H1 7548   5.516   3.160   4.426  0.1711 -0.1499 -0.3287
 2514TIP3    H2 7549   5.493   3.121   4.571 -0.0758  0.8753 -0.0864
 2515TIP3   OH2 7550   1.216   0.100   1.159  0.0639  0.6385 -0.4696
 2515TIP3    H1 7551   1.214   0.008   1.183 -0.7884  0.8441  0.2648
 2515TIP3    H2 7552   1.294   0.134   1.203  0.1046  0.3846 -0.3438
 2516TIP3   OH2 7553   6.122   5.463   4.025 -0.6655  0.3620 -0.1076
 2516TIP3    H1 7554   6.077   5.518   3.961 -1.2196  1.2331  0.9873
 2516TIP3    H2 7555   6.078   5.482   4.108  0.3249 -0.3945  0.6189
 2517TIP3   OH2 7556   5.917   4.056   0.320 -0.5962 -0.4110 -0.5036
 2517TIP3    H1 7557   5.842   4.034   0.266 -2.1161  1.0586  0.8924
 2517TIP3    H2 7558   5.896   4.022   0.407 -0.0424  0.6809  0.0913
 2518TIP3   OH2 7559   1.152   5.507   4.852  0.1726  0.0857 -0.6869
 2518TIP3    H1 7560   1.164   5.519   4.758  0.8086 -0.6502 -0.7055
 2518TIP3    H2 7561   1.076   5.563   4.873 -0.5368 -0.4217 -1.7869
 2519TIP3   OH2 7562   2.594   4.689   3.745  0.2435 -0.0251  0.2529
 2519TIP3    H1 7563   2.639   4.742   3.811  1.7555 -0.9679  0.0327
 2519TIP3    H2 7564   2.636   4.711   3.662 -0.3646 -0.2244 -0.1196
 2520TIP3   OH2 7565   0.031   2.663   3.200 -0.3316 -0.5513  0.2129
 2520TIP3    H1 7566   0.040   2.584   3.147 -1.0931 -0.8082  0.4552
 2520TIP3    H2 7567   0.027   2.631   3.290  0.9522 -0.1197  0.4454
 2521TIP3   OH2 7568   3.580   0.011   1.778  0.2948  0.2991  0.3367
 2521TIP3    H1 7569   3.515  -0.024   1.717  0.9291 -0.5016  0.1005
 2521TIP3    H2 7570   3.531   0.071   1.834 -0.8425 -0.9552  0.7293
 2522TIP3   OH2 7571   0.831   1.185   0.311 -0.1837  0.2073 -0.6604
 2522TIP3    H1 7572   0.856   1.221   0.226 -0.2756  2.3168  0.1482
 2522TIP3    H2 7573   0.913   1.178   0.359  0.1956 -3.0034 -1.5355
 2523TIP3   OH2 7574   3.359   2.572   2.138  0.1212  0.5581 -0.7634
 2523TIP3    H1 7575   3.269   2.544   2.121 -0.0783  0.3993  0.4259
 2523TIP3    H2 7576   3.411   2.492   2.132  0.1218  0.5825 -1.0730
 2524TIP3   OH2 7577   1.316   1.635   3.663 -0.5961  0.0651  0.2229
 2524TIP3    H1 7578   1.314   1.726   3.636  0.9406 -0.1069 -0.5809
 2524TIP3    H2 7579   1.287   1.636   3.755 -0.9869  1.2916  0.0995
 2525TIP3   OH2 7580   2.187   3.336   0.090  0.1779  0.3510  0.1860
 2525TIP3    H1 7581   2.125   3.409   0.091 -0.1597  0.0783 -0.2406
 2525TIP3    H2 7582   2.189   3.305   0.181 -1.3876 -0.5216 -0.0351
 2526TIP3   OH2 7583   2.684   2.690   3.372  0.5999  0.0588 -0.6051
 2526TIP3    H1 7584   2.766   2.725   3.407  1.0176 -0.7297 -0.7776
 2526TIP3    H2 7585   2.705   2.601   3.345 -0.3424 -0.1970 -0.5455
 2527TIP3   OH2 7586   5.465   0.413   4.138 -0.1188  0.4374  0.1047
 2527TIP3    H1 7587   5.548   0.387   4.097  0.2339  1.7995 -0.0685
 2527TIP3    H2 7588   5.412   0.443   4.065 -0.8595 -0.5966  0.1910
 2528TIP3   OH2 7589   2.099   1.446   0.164 -0.3317 -0.3117  0.1163
 2528TIP3    H1 7590   2.077   1.536   0.139  0.0036 -0.2423  0.0669
 2528TIP3    H2 7591   2.044   1.428   0.240 -1.0648 -0.3831 -0.4180
 2529TIP3   OH2 7592   2.656   2.676   2.028  0.1366  0.1328  0.2852
 2529TIP3    H1 7593   2.569   2.636   2.018  0.7699 -1.1811 -0.1260
 2529TIP3    H2 7594   2.662   2.696   2.121  0.8547 -3.3315  1.1159
 2530TIP3   OH2 7595   3.713  -0.008   2.182 -0.2259  0.0974 -0.1914
 2530TIP3    H1 7596   3.735   0.074   2.227 -1.9635  0.4719  0.0766
 2530TIP3    H2 7597   3.618  -0.017   2.194 -0.1355 -1.7986 -0.4949
 2531TIP3   OH2 7598   5.513   2.304   0.555  0.1121 -0.5644 -0.3653
 2531TIP3    H1 7599   5.422   2.275   0.556 -0.1479  0.2356 -0.6615
 2531TIP3    H2 7600   5.515   2.377   0.494  0.7228  0.1528  0.4742
 2532TIP3   OH2 7601   3.789   5.379   0.308  0.3621 -0.1933 -0.4490
 2532TIP3    H1 7602   3.877   5.351   0.333  0.0827 -2.0511 -1.3874
 2532TIP3    H2 7603   3.755   5.423   0.386  1.0902 -1.9653  0.9522
 2533TIP3   OH2 7604   3.851   5.473   1.469  0.6999 -0.3241 -0.0261
 2533TIP3    H1 7605   3.796   5.534   1.420 -1.4000 -0.7177  1.6619
 2533TIP3    H2 7606   3.853   5.509   1.558 -2.2411 -3.4962  1.5553
 2534TIP3   OH2 7607   3.707   4.904   4.162  0.4410 -0.0687  0.0546
 2534TIP3    H1 7608   3.732   4.816   4.134  1.2882  0.6688 -1.6828
 2534TIP3    H2 7609   3.778   4.933   4.219  0.2710 -0.4089  0.4458
 2535TIP3   OH2 7610   0.759   1.846   3.791 -1.1065  0.1263 -0.2742
 2535TIP3    H1 7611   0.753   1.867   3.884 -0.4148 -1.3799  0.1308
 2535TIP3    H2 7612   0.780   1.930   3.749  3.4838  0.0962  1.4675
 2536TIP3   OH2 7613   0.743   5.135   0.299  1.1955  0.2725 -0.3081
 2536TIP3    H1 7614   0.790   5.215   0.325 -0.0928  1.0223 -0.1534
 2536TIP3    H2 7615   0.661   5.139   0.350 -0.3177  0.5060 -2.6082
 2537TIP3   OH2 7616   5.629   4.054   4.281  0.0243  0.4481 -0.2986
 2537TIP3    H1 7617   5.621   3.986   4.349 -0.7364 -1.1851 -1.9241
 2537TIP3    H2 7618   5.714   4.038   4.240  0.3441  1.2340  0.0268
 2538TIP3   OH2 7619   2.648   2.866   4.200  0.8278 -0.1477 -0.2479
 2538TIP3    H1 7620   2.557   2.869   4.228  1.0140 -1.0438  0.5026
 2538TIP3    H2 7621   2.699   2.870   4.281  1.3861 -2.2325 -0.4353
 2539TIP3   OH2 7622   2.080   4.079   2.003  0.1420 -0.1766 -0.1773
 2539TIP3    H1 7623   2.017   4.073   1.932  0.2667 -1.0158 -0.2241
 2539TIP3    H2 7624   2.031   4.120   2.075 -0.5529 -1.1088 -0.1073
 2540TIP3   OH2 7625   4.881   0.670   1.967 -0.1739  0.2821 -0.0892
 2540TIP3    H1 7626   4.807   0.623   2.006 -0.3707  0.6185 -0.0567
 2540TIP3    H2 7627   4.958   0.626   2.003 -0.3524  0.4885  0.5581
 2541TIP3   OH2 7628   3.146   1.619   2.080 -0.7095  0.0167  0.1486
 2541TIP3    H1 7629   3.099   1.656   2.155 -0.5723  0.4917  0.0007
 2541TIP3    H2 7630   3.116   1.670   2.005 -0.3073  0.0105 -0.0165
 2542TIP3   OH2 7631   1.930   0.190   1.318  0.2380 -1.1568  0.3874
 2542TIP3    H1 7632   1.847   0.189   1.366  0.2194 -1.3314  0.3500
 2542TIP3    H2 7633   1.997   0.192   1.386  0.1953  1.0145  0.4603
 2543TIP3   OH2 7634   3.069   4.020   1.779 -0.1573 -0.1218  0.7332
 2543TIP3    H1 7635   2.998   4.065   1.823  0.8047  1.8758  0.3599
 2543TIP3    H2 7636   3.110   3.967   1.848 -0.6972  0.3541  1.4327
 2544TIP3   OH2 7637   1.821   5.927   0.781  0.2508 -0.7622  0.1728
 2544TIP3    H1 7638   1.904   5.970   0.762 -0.9036  1.7490  0.4035
 2544TIP3    H2 7639   1.828   5.901   0.872 -0.7530  3.6320  1.7281
 2545TIP3   OH2 7640   4.524   5.082   2.665  0.6195  0.0835  0.0494
 2545TIP3    H1 7641   4.450   5.023   2.670  1.6677 -1.2020  1.2909
 2545TIP3    H2 7642   4.485   5.169   2.655 -1.1155 -0.3622  2.2339
 2546TIP3   OH2 7643   2.972   3.885   3.619 -0.0458  0.0927  0.0538
 2546TIP3    H1 7644   2.911   3.811   3.617 -0.4036  0.4045 -0.9446
 2546TIP3    H2 7645   3.024   3.875   3.539 -0.5875  1.3221 -0.4696
 2547TIP3   OH2 7646   2.311   2.723   0.130 -0.0976 -0.6037 -0.0202
 2547TIP3    H1 7647   2.302   2.722   0.225  0.9390  0.8789  0.1394
 2547TIP3    H2 7648   2.222   2.724   0.097 -0.4663 -0.7618  0.9447
 2548TIP3   OH2 7649   1.265   3.639   1.391 -0.5137  0.0210 -0.0524
 2548TIP3    H1 7650   1.173   3.616   1.403 -0.9478  2.1043  1.0245
 2548TIP3    H2 7651   1.264   3.725   1.350  1.0206 -1.1283 -2.7518
 2549TIP3   OH2 7652   6.069   0.771   4.067 -0.4076 -0.1651 -0.1799
 2549TIP3    H1 7653   6.000   0.726   4.114 -0.6861 -0.4996 -0.8913
 2549TIP3    H2 7654   6.150   0.741   4.107 -0.6320 -0.5927 -0.0450
 2550TIP3   OH2 7655   4.034   0.478   0.775 -0.3903 -0.4466 -0.4705
 2550TIP3    H1 7656   3.994   0.563   0.758 -0.6566 -0.2607  0.9759
 2550TIP3    H2 7657   3.960   0.420   0.795 -0.0522 -0.3586  1.1553
 2551TIP3   OH2 7658   0.287   5.846   1.694  0.0202  0.1689 -0.0312
 2551TIP3    H1 7659   0.301   5.847   1.788 -0.4839 -2.4461  0.1384
 2551TIP3    H2 7660   0.197   5.877   1.682  0.0810  0.4863  0.3278
 2552TIP3   OH2 7661   3.576   0.482   1.777  0.0399  0.1967  0.2139
 2552TIP3    H1 7662   3.559   0.553   1.838  0.2813 -0.0920  0.6272
 2552TIP3    H2 7663   3.494   0.471   1.729  0.8334  2.7010 -1.9584
 2553TIP3   OH2 7664   6.184   5.047   2.818  0.1140 -0.5488 -0.2273
 2553TIP3    H1 7665   6.224   4.987   2.881 -0.6352  0.8151  1.6454
 2553TIP3    H2 7666   6.127   5.103   2.871  1.0875  2.0978 -1.7929
 2554TIP3   OH2 7667   4.544   2.562   3.484  0.0262  0.4763 -0.3515
 2554TIP3    H1 7668   4.496   2.598   3.559 -1.2283  0.6077 -1.1967
 2554TIP3    H2 7669   4.576   2.640   3.438  0.8315  0.3942  0.0494
 2555TIP3   OH2 7670   2.866   2.559   4.331  0.1117 -0.9795  0.1828
 2555TIP3    H1 7671   2.870   2.655   4.332 -0.8448 -0.9213  1.1971
 2555TIP3    H2 7672   2.956   2.531   4.346  0.2535 -0.2244  0.8071
 2556TIP3   OH2 7673   1.710   0.173   4.261 -0.0970 -0.0124  0.0398
 2556TIP3    H1 7674   1.716   0.266   4.283  1.6710 -0.1861  0.3859
 2556TIP3    H2 7675   1.665   0.133   4.336  1.8591  0.1104  1.3301
 2557TIP3   OH2 7676   3.091   3.916   0.744 -0.0915 -0.0005 -0.0587
 2557TIP3    H1 7677   3.143   3.909   0.664 -1.1928 -0.0434 -0.7872
 2557TIP3    H2 7678   3.058   4.005   0.744 -1.0521 -0.3407 -0.2806
 2558TIP3   OH2 7679   2.173   1.332   4.215 -0.2962  0.1548 -1.0608
 2558TIP3    H1 7680   2.155   1.364   4.126  0.2935  1.6480 -0.6691
 2558TIP3    H2 7681   2.159   1.237   4.209 -1.2619  0.3496 -2.4896
 2559TIP3   OH2 7682   4.740   1.794   1.122 -0.5552  0.0146  0.2401
 2559TIP3    H1 7683   4.806   1.727   1.141  0.5634  0.8279 -0.6371
 2559TIP3    H2 7684   4.669   1.747   1.079 -0.2595 -0.7736  0.6023
 2560TIP3   OH2 7685   4.096   3.476   2.089  0.0661 -0.4365  0.0145
 2560TIP3    H1 7686   4.075   3.541   2.022 -0.5261 -0.3414  0.2881
 2560TIP3    H2 7687   4.190   3.464   2.082  0.1181  0.1403 -0.3264
 2561TIP3   OH2 7688   1.755   2.169   1.563  0.0984 -0.5249 -0.4724
 2561TIP3    H1 7689   1.767   2.097   1.625 -0.4756 -1.8636 -1.8544
 2561TIP3    H2 7690   1.733   2.126   1.481 -0.1990  1.2494 -1.3618
 2562TIP3   OH2 7691   3.451   2.905   3.485  0.3129  0.0039 -0.2858
 2562TIP3    H1 7692   3.427   2.870   3.399  1.8876  0.0153 -0.7551
 2562TIP3    H2 7693   3.436   2.999   3.478  0.2547 -0.0200 -0.4850
 2563TIP3   OH2 7694   3.058   0.801   2.118 -0.1523  0.0789  0.1440
 2563TIP3    H1 7695   3.083   0.803   2.210  0.1933 -1.0676  0.1025
 2563TIP3    H2 7696   2.964   0.787   2.118  0.1057 -2.1047  0.3851
 2564TIP3   OH2 7697   2.291   2.323   2.346  0.3258 -0.0505  0.2762
 2564TIP3    H1 7698   2.256   2.398   2.298 -0.6600 -1.4781 -1.3296
 2564TIP3    H2 7699   2.253   2.247   2.303  2.3706 -1.5531  0.9784
 2565TIP3   OH2 7700   4.418   5.015   3.013  0.2023 -0.0097  0.0636
 2565TIP3    H1 7701   4.493   5.074   3.008  0.8522 -0.7699  0.7770
 2565TIP3    H2 7702   4.450   4.937   3.057 -1.3364  0.1960  1.6648
 2566TIP3   OH2 7703   2.081   0.792   4.897 -0.1123  0.0164  0.1988
 2566TIP3    H1 7704   2.051   0.851   4.828 -1.5177  0.6981  1.3397
 2566TIP3    H2 7705   2.112   0.849   4.967  2.8418 -0.6756 -0.4278
 2567TIP3   OH2 7706   4.073   1.307   3.277  0.2105  0.0989 -0.3692
 2567TIP3    H1 7707   4.121   1.329   3.197 -0.9711 -2.1687 -1.8353
 2567TIP3    H2 7708   4.027   1.387   3.300  0.6990  0.8679 -1.9066
 2568TIP3   OH2 7709   3.786   5.577   0.505 -0.0265 -0.2281 -0.0649
 2568TIP3    H1 7710   3.846   5.544   0.571 -0.3257 -0.1168  0.2726
 2568TIP3    H2 7711   3.736   5.646   0.551 -1.7768 -1.6366  0.2706
 2569TIP3   OH2 7712   0.762   0.558   0.051  0.4366  0.2541  0.3406
 2569TIP3    H1 7713   0.799   0.508  -0.022  0.3161  1.6170 -0.6893
 2569TIP3    H2 7714   0.668   0.551   0.041  0.4042 -0.3236  0.9351
 2570TIP3   OH2 7715   3.058   0.063   3.257 -0.1128 -0.2463  0.2706
 2570TIP3    H1 7716   3.132   0.064   3.196 -0.1685  1.0093  0.1979
 2570TIP3    H2 7717   3.090   0.109   3.334 -0.5421 -0.4706  0.5862
 2571TIP3   OH2 7718   1.861   1.567   0.900 -0.6948  0.5844 -0.2044
 2571TIP3    H1 7719   1.833   1.480   0.929  0.0234  0.6105  0.6233
 2571TIP3    H2 7720   1.906   1.604   0.976  0.5275  0.9975 -1.1052
 2572TIP3   OH2 7721   4.936   5.314   1.098 -0.0734  0.1141  0.0050
 2572TIP3    H1 7722   5.029   5.339   1.101  0.3759 -1.4987  3.0307
 2572TIP3    H2 7723   4.906   5.324   1.188 -2.4950 -0.6929 -0.6523
 2573TIP3   OH2 7724   2.315   4.308   2.561  0.0502  0.5439 -0.0109
 2573TIP3    H1 7725   2.406   4.301   2.534  1.1911 -0.2651  3.5429
 2573TIP3    H2 7726   2.301   4.401   2.578  1.5871  0.3024  3.2143
 2574TIP3   OH2 7727   3.264   5.121   0.999  0.3019 -0.2041  0.0837
 2574TIP3    H1 7728   3.280   5.144   1.090  1.5826 -0.2292 -0.1119
 2574TIP3    H2 7729   3.172   5.096   0.996  0.0028  0.7110  1.1655
 2575TIP3   OH2 7730   5.328   3.881   4.318 -0.2741 -0.3248  0.4773
 2575TIP3    H1 7731   5.324   3.788   4.300  1.6694 -0.3737  0.0291
 2575TIP3    H2 7732   5.410   3.893   4.366 -0.0758  1.2453 -0.1779
 2576TIP3   OH2 7733   3.671   3.278   4.964  0.4228 -0.0106 -0.8170
 2576TIP3    H1 7734   3.714   3.238   5.039  0.1257  0.4832 -0.3739
 2576TIP3    H2 7735   3.734   3.342   4.931  0.1150  0.5831 -0.2798
 2577TIP3   OH2 7736   5.563   3.556   5.149  0.3120 -0.0662 -0.1945
 2577TIP3    H1 7737   5.621   3.610   5.095  0.5992 -0.2679 -0.0934
 2577TIP3    H2 7738   5.549   3.608   5.228  0.6773 -0.1787 -0.0500
 2578TIP3   OH2 7739   3.941   5.078   5.176 -0.3966 -0.4624 -0.4051
 2578TIP3    H1 7740   3.971   5.016   5.109 -1.7914 -0.0977 -1.4007
 2578TIP3    H2 7741   3.871   5.128   5.134  0.1780  1.3119  0.6001
 2579TIP3   OH2 7742   4.286   0.267   1.067 -0.1280  0.5841 -0.4147
 2579TIP3    H1 7743   4.312   0.187   1.020 -1.3391 -0.0792 -0.0069
 2579TIP3    H2 7744   4.191   0.270   1.057 -0.5809 -0.1276  2.7590
 2580TIP3   OH2 7745   2.241   3.405   4.138  0.2843  0.4181  0.0460
 2580TIP3    H1 7746   2.243   3.499   4.159  0.5711  0.1120  1.5155
 2580TIP3    H2 7747   2.154   3.376   4.163  0.1114  0.3347 -0.6413
 2581TIP3   OH2 7748   2.365   5.450   1.015 -0.4039  0.1417  0.1277
 2581TIP3    H1 7749   2.457   5.428   1.032 -0.7233 -0.6830  0.8507
 2581TIP3    H2 7750   2.332   5.481   1.100 -1.0711 -0.5781  0.1387
 2582TIP3   OH2 7751   0.677   5.094   3.299  0.4482 -0.3494 -0.1384
 2582TIP3    H1 7752   0.622   5.071   3.224  0.0678  0.8631 -0.2417
 2582TIP3    H2 7753   0.766   5.076   3.269  0.2480 -0.5351 -0.6344
 2583TIP3   OH2 7754   0.045   2.045   2.388 -0.4983  0.1243 -0.7193
 2583TIP3    H1 7755   0.103   2.121   2.385 -0.9403  0.4681 -0.7444
 2583TIP3    H2 7756   0.017   2.039   2.479 -0.8018  0.2536 -0.8024
 2584TIP3   OH2 7757   5.311   0.640   0.475 -0.5292 -0.5344 -0.0530
 2584TIP3    H1 7758   5.218   0.645   0.496 -0.0780  1.8101  1.7712
 2584TIP3    H2 7759   5.321   0.695   0.398 -0.3373  1.4149  1.2948
 2585TIP3   OH2 7760   1.295   2.157   1.406  0.5086  0.1802 -0.6860
 2585TIP3    H1 7761   1.211   2.148   1.362  0.1707 -0.2332  0.0074
 2585TIP3    H2 7762   1.339   2.073   1.391  0.2940 -0.0508 -0.0549
 2586TIP3   OH2 7763   2.327  -0.026   3.783 -0.3278  0.1359  0.0295
 2586TIP3    H1 7764   2.377   0.049   3.753  0.0182 -0.4908 -1.0276
 2586TIP3    H2 7765   2.330  -0.020   3.879  2.0738 -0.0520  0.0365
 2587TIP3   OH2 7766   0.050   2.949   4.743 -0.0965  0.2045  0.1497
 2587TIP3    H1 7767   0.088   2.886   4.682 -1.3264  0.8375 -1.3289
 2587TIP3    H2 7768   0.060   3.034   4.700 -1.0922  0.6535  0.7530
 2588TIP3   OH2 7769   1.477   1.455   4.489  0.5879 -0.1357 -0.2409
 2588TIP3    H1 7770   1.444   1.386   4.432  0.1887  0.0250 -0.2099
 2588TIP3    H2 7771   1.442   1.434   4.575 -2.1687  1.7586 -0.7808
 2589TIP3   OH2 7772   3.112   0.909   2.387 -0.2916 -0.7217  0.1924
 2589TIP3    H1 7773   3.176   0.844   2.415  0.0160 -0.6968 -0.4264
 2589TIP3    H2 7774   3.084   0.951   2.468  0.4040 -0.8041  0.4889
 2590TIP3   OH2 7775   5.783   4.429   0.380 -0.1846  0.3188 -0.6776
 2590TIP3    H1 7776   5.777   4.357   0.318  2.2815  0.2496 -0.9620
 2590TIP3    H2 7777   5.856   4.405   0.438 -0.6930  1.6060  0.5651
 2591TIP3   OH2 7778   2.468   4.734   2.678  0.0157 -0.2375  0.2200
 2591TIP3    H1 7779   2.459   4.826   2.656 -1.2577 -0.3169  0.3056
 2591TIP3    H2 7780   2.531   4.732   2.750  1.9299  0.3031 -1.3477
 2592TIP3   OH2 7781   0.487   2.658   4.345 -0.2892 -0.2013  0.3449
 2592TIP3    H1 7782   0.479   2.587   4.282 -1.9983 -1.0419  1.4223
 2592TIP3    H2 7783   0.531   2.618   4.420  0.8417  0.5244  0.0902
 2593TIP3   OH2 7784   2.117   5.618   1.122 -0.0664  0.1867 -0.4673
 2593TIP3    H1 7785   2.106   5.524   1.139  0.0892  0.1917 -0.3434
 2593TIP3    H2 7786   2.176   5.649   1.191  0.9764  0.1045 -1.2954
 2594TIP3   OH2 7787   2.764   1.666   2.829 -0.6418 -0.1449  0.7043
 2594TIP3    H1 7788   2.812   1.689   2.908  4.1461 -2.0533 -1.2380
 2594TIP3    H2 7789   2.766   1.745   2.775 -0.8115  0.1552  1.1407
 2595TIP3   OH2 7790   3.926   1.728   0.781 -0.0865 -0.1770 -0.1840
 2595TIP3    H1 7791   3.936   1.721   0.876 -1.5260  0.3316  0.0237
 2595TIP3    H2 7792   3.929   1.822   0.764  1.9092 -0.3248 -0.8766
 2596TIP3   OH2 7793   4.500   2.162   2.965  0.2589  0.1862 -0.2180
 2596TIP3    H1 7794   4.551   2.081   2.964  1.4982  0.9478 -1.3033
 2596TIP3    H2 7795   4.409   2.132   2.961  0.6199 -1.1708  0.6763
 2597TIP3   OH2 7796   3.300   1.440   0.703 -0.9672  0.7275 -0.1205
 2597TIP3    H1 7797   3.296   1.536   0.704 -1.2206  0.7157  0.3956
 2597TIP3    H2 7798   3.393   1.420   0.695 -0.9508  1.0174 -0.6890
 2598TIP3   OH2 7799   2.199   1.202   2.580 -0.1045  0.0111  0.1866
 2598TIP3    H1 7800   2.169   1.212   2.670 -0.9280  3.6109 -0.3471
 2598TIP3    H2 7801   2.283   1.247   2.577  0.0290 -0.2715 -0.8093
 2599TIP3   OH2 7802   1.667   1.502   3.101 -0.3998  0.4563  0.3701
 2599TIP3    H1 7803   1.751   1.457   3.101 -1.3687 -1.7110 -3.1889
 2599TIP3    H2 7804   1.606   1.438   3.136 -1.2210  0.2944 -1.2811
 2600TIP3   OH2 7805   6.168   1.582   4.250  0.2952  0.1002  0.3432
 2600TIP3    H1 7806   6.205   1.565   4.163 -0.1843  1.6138 -0.1960
 2600TIP3    H2 7807   6.237   1.557   4.311  0.7288 -0.7610 -0.4705
 2601TIP3   OH2 7808   5.694   0.642   4.140 -0.4253  0.2670 -0.0199
 2601TIP3    H1 7809   5.719   0.673   4.053  0.8306 -0.6985 -0.0308
 2601TIP3    H2 7810   5.719   0.550   4.140 -2.9026 -0.4601  0.4417
 2602TIP3   OH2 7811   3.437   4.141   1.311  0.0887 -0.4331 -0.2473
 2602TIP3    H1 7812   3.361   4.096   1.348  0.0236  0.3998  0.6616
 2602TIP3    H2 7813   3.438   4.113   1.219 -1.4989 -0.2228 -0.3652
 2603TIP3   OH2 7814   2.763   1.264   1.858 -0.0487  0.1142  0.8161
 2603TIP3    H1 7815   2.711   1.293   1.934 -0.7122 -1.6878  1.0971
 2603TIP3    H2 7816   2.704   1.272   1.784  1.2060  3.8274  0.0036
 2604TIP3   OH2 7817   2.651   5.324   1.051  0.3877 -0.4250  0.2631
 2604TIP3    H1 7818   2.735   5.321   1.097  0.4065  0.9315  0.3700
 2604TIP3    H2 7819   2.673   5.314   0.959  0.7092  0.1234  0.2730
 2605TIP3   OH2 7820   5.191   5.440   4.135 -0.0500  0.7650 -0.1262
 2605TIP3    H1 7821   5.116   5.498   4.152  1.2040  2.2161  0.6104
 2605TIP3    H2 7822   5.192   5.380   4.209  0.4921  1.8130  0.7344
 2606TIP3   OH2 7823   4.467   5.231   0.609 -0.4386 -0.5954 -0.1870
 2606TIP3    H1 7824   4.523   5.168   0.654  0.6065 -0.2546 -0.9643
 2606TIP3    H2 7825   4.518   5.258   0.533 -0.5433  1.6905  0.4753
 2607TIP3   OH2 7826   4.649   3.524   0.431 -0.1292 -0.2343 -0.2226
 2607TIP3    H1 7827   4.694   3.590   0.483  0.6443  0.6451 -1.9242
 2607TIP3    H2 7828   4.576   3.496   0.486  1.1610 -0.0591  1.6948
 2608TIP3   OH2 7829   0.647   0.303   4.476 -1.0614 -0.5002 -0.1153
 2608TIP3    H1 7830   0.607   0.345   4.400 -2.0711 -1.1256  0.0519
 2608TIP3    H2 7831   0.574   0.281   4.533 -0.3056  0.1499  1.1510
 2609TIP3   OH2 7832   5.544   5.480   1.655  0.3612  0.4646  0.2346
 2609TIP3    H1 7833   5.458   5.490   1.696 -0.4200  0.3857 -1.3398
 2609TIP3    H2 7834   5.555   5.385   1.647  1.6141  0.3518  2.4275
 2610TIP3   OH2 7835   6.034   2.888   1.979 -0.4278  0.1131  0.1584
 2610TIP3    H1 7836   5.970   2.843   2.034 -0.7200  0.0542 -0.2212
 2610TIP3    H2 7837   5.984   2.916   1.903 -0.1987  0.8968  0.2929
 2611TIP3   OH2 7838   0.426   4.703   4.272 -0.1376 -0.2009 -0.1810
 2611TIP3    H1 7839   0.368   4.631   4.296  1.2028 -1.3492 -0.2347
 2611TIP3    H2 7840   0.419   4.709   4.176 -0.0796 -0.4063 -0.1977
 2612TIP3   OH2 7841   5.519  -0.004   0.934 -0.0287 -0.2329  0.1653
 2612TIP3    H1 7842   5.537   0.003   1.027  1.9123 -0.2959 -0.1632
 2612TIP3    H2 7843   5.598   0.030   0.892 -0.4423 -1.1865 -1.4539
 2613TIP3   OH2 7844   2.733   3.459   3.293  0.2627 -0.4161  0.1748
 2613TIP3    H1 7845   2.653   3.445   3.344  0.1563 -1.6489 -0.2878
 2613TIP3    H2 7846   2.732   3.553   3.273 -1.8530 -0.6144 -1.0321
 2614TIP3   OH2 7847   2.872   2.430   1.333 -0.2352  0.2360  0.2247
 2614TIP3    H1 7848   2.937   2.385   1.387 -0.9585  0.3417  1.2072
 2614TIP3    H2 7849   2.892   2.402   1.243  0.1309 -1.0355  0.6792
 2615TIP3   OH2 7850   1.530   4.514   0.113 -0.1493 -0.3409 -0.4572
 2615TIP3    H1 7851   1.436   4.497   0.104 -0.7908  2.0637  0.8255
 2615TIP3    H2 7852   1.546   4.513   0.207  0.6593  1.1970 -0.5428
 2616TIP3   OH2 7853   5.432   0.864   3.594  0.5104 -0.0656  0.1783
 2616TIP3    H1 7854   5.378   0.897   3.666  0.7399 -1.8968  1.2626
 2616TIP3    H2 7855   5.408   0.771   3.587  1.9324 -0.3934 -0.7837
 2617TIP3   OH2 7856   1.037   1.136   4.236  0.1430 -0.7469 -0.3504
 2617TIP3    H1 7857   0.993   1.066   4.187 -0.7394  1.4376 -2.8825
 2617TIP3    H2 7858   0.989   1.139   4.319 -2.6196 -0.4493 -1.8310
 2618TIP3   OH2 7859   3.835   1.656   0.153 -0.3016  0.5878  0.0112
 2618TIP3    H1 7860   3.806   1.640   0.243 -1.5026 -1.6060 -0.6915
 2618TIP3    H2 7861   3.926   1.685   0.161 -0.3037  0.1745  1.9018
 2619TIP3   OH2 7862   1.293   4.652   2.903  0.1574  0.3643  0.2718
 2619TIP3    H1 7863   1.238   4.697   2.839 -0.2224 -0.2561  0.1538
 2619TIP3    H2 7864   1.354   4.600   2.850  0.6710  0.8142  0.4060
 2620TIP3   OH2 7865   0.762   4.700   3.793  0.3051 -0.0345  0.4316
 2620TIP3    H1 7866   0.737   4.792   3.802 -1.0378 -0.2793 -0.5318
 2620TIP3    H2 7867   0.822   4.699   3.719  0.0057  0.0183  0.1855
 2621TIP3   OH2 7868   6.004   2.945   4.614 -0.2835  0.5716  0.2694
 2621TIP3    H1 7869   6.029   2.854   4.629 -0.7865  0.4378  0.3016
 2621TIP3    H2 7870   6.065   2.996   4.668  0.5479  0.3066 -0.4001
 2622TIP3   OH2 7871   1.979   3.565   4.906 -0.1080  0.2637  0.1152
 2622TIP3    H1 7872   2.062   3.556   4.858 -0.6397  0.5412 -0.8970
 2622TIP3    H2 7873   1.968   3.659   4.918  0.3516  0.1682  1.4159
 2623TIP3   OH2 7874   3.064   4.605   2.919 -0.0457  0.1737 -0.2823
 2623TIP3    H1 7875   3.004   4.576   2.988 -0.0591 -0.0040 -0.3693
 2623TIP3    H2 7876   3.120   4.670   2.962 -0.6870  0.7730 -0.3541
 2624TIP3   OH2 7877   1.105   3.004   4.389 -0.2340 -0.1339  0.4002
 2624TIP3    H1 7878   1.057   3.084   4.411 -1.2860 -0.4861 -0.5715
 2624TIP3    H2 7879   1.043   2.950   4.342  1.1722 -0.5115 -1.1169
 2625TIP3   OH2 7880   1.283   1.096   1.164  0.0343 -0.4439 -0.7064
 2625TIP3    H1 7881   1.242   1.163   1.218  0.2940 -1.5003  0.8667
 2625TIP3    H2 7882   1.376   1.121   1.161 -0.1636  0.2523 -1.6910
 2626TIP3   OH2 7883   4.279   3.935   3.467 -0.1832 -0.5809 -0.1132
 2626TIP3    H1 7884   4.316   3.996   3.403 -1.8899 -1.4345 -2.0459
 2626TIP3    H2 7885   4.347   3.869   3.480 -0.0985 -0.8575 -1.7594
 2627TIP3   OH2 7886   4.952   1.697   4.518  0.5425  0.8215  0.9413
 2627TIP3    H1 7887   4.914   1.666   4.601 -3.0145 -0.2573 -0.8638
 2627TIP3    H2 7888   4.986   1.618   4.476  1.6530  1.2503  0.9965
 2628TIP3   OH2 7889   0.873   5.885   2.512  0.3387  0.3644 -0.2476
 2628TIP3    H1 7890   0.904   5.939   2.439  0.6066  0.2277 -0.2366
 2628TIP3    H2 7891   0.782   5.866   2.491 -0.3222  2.3166  0.6217
 2629TIP3   OH2 7892   4.149   0.821   2.426 -0.4250  0.2542 -0.1726
 2629TIP3    H1 7893   4.076   0.804   2.366  0.4822 -1.6976 -0.8061
 2629TIP3    H2 7894   4.227   0.818   2.371  0.4653 -1.9348  1.0663
 2630TIP3   OH2 7895   0.472   4.249   0.224 -0.4267  0.4258  0.3831
 2630TIP3    H1 7896   0.511   4.248   0.312  0.0394  1.2712  0.1898
 2630TIP3    H2 7897   0.505   4.329   0.183 -1.2015  0.4061 -0.3177
 2631TIP3   OH2 7898   3.066   4.877   1.314  0.0728 -0.5322  0.5448
 2631TIP3    H1 7899   2.986   4.838   1.279  0.0670 -0.3128  0.3201
 2631TIP3    H2 7900   3.137   4.837   1.263  0.0182  0.3755 -0.2580
 2632TIP3   OH2 7901   2.131   1.289   3.697 -0.0487 -0.0902  0.1528
 2632TIP3    H1 7902   2.108   1.311   3.607  0.2705 -0.8545 -0.1247
 2632TIP3    H2 7903   2.227   1.287   3.697 -0.0170  0.7519  0.7284
 2633TIP3   OH2 7904   5.754   0.833   2.071 -0.3961  0.3144  0.0562
 2633TIP3    H1 7905   5.849   0.830   2.060 -0.4762 -2.1692 -0.4847
 2633TIP3    H2 7906   5.735   0.925   2.086  2.1080  0.8570  0.3550
 2634TIP3   OH2 7907   4.964   5.323   4.405  0.2098 -0.6896 -0.2725
 2634TIP3    H1 7908   5.057   5.315   4.388  0.4248 -0.5030  0.7836
 2634TIP3    H2 7909   4.935   5.234   4.426  0.2180 -0.6884 -0.2570
 2635TIP3   OH2 7910   0.511   4.866   2.117  0.1988  0.6218 -0.6923
 2635TIP3    H1 7911   0.457   4.867   2.038  0.8060  1.2108 -1.1177
 2635TIP3    H2 7912   0.458   4.911   2.183 -0.6484 -0.5981 -0.5173
 2636TIP3   OH2 7913   4.438   4.216   1.334 -0.3637  0.2333 -0.2253
 2636TIP3    H1 7914   4.366   4.191   1.392  1.3830 -0.3870  1.8016
 2636TIP3    H2 7915   4.453   4.139   1.280  0.9547 -1.0072  1.7496
 2637TIP3   OH2 7916   1.338   0.648   5.087 -0.1882 -0.4856  0.3327
 2637TIP3    H1 7917   1.263   0.610   5.042 -0.7277  1.5660 -0.6069
 2637TIP3    H2 7918   1.374   0.576   5.139 -1.6127 -2.0211 -0.7195
 2638TIP3   OH2 7919   2.501   4.008   1.947 -0.6547 -0.2030  0.1443
 2638TIP3    H1 7920   2.489   4.011   2.042  0.1719 -2.5755  0.3874
 2638TIP3    H2 7921   2.508   3.915   1.927  0.4555  0.3045 -2.0933
 2639TIP3   OH2 7922   3.014   4.473   2.692 -0.2291  0.8134  0.7004
 2639TIP3    H1 7923   3.090   4.484   2.635  0.4218 -1.3437  1.0491
 2639TIP3    H2 7924   3.040   4.511   2.775  0.3999  0.2813  0.7530
 2640TIP3   OH2 7925   5.867   1.541   0.964 -0.1430 -0.0194  0.3502
 2640TIP3    H1 7926   5.772   1.538   0.966 -0.1954  1.0109 -0.2675
 2640TIP3    H2 7927   5.891   1.476   0.898 -0.5980  1.9717 -1.9248
 2641TIP3   OH2 7928   4.277   0.809   1.020 -0.2852 -0.3599 -0.1201
 2641TIP3    H1 7929   4.257   0.902   1.009  0.1803 -0.0802  1.1627
 2641TIP3    H2 7930   4.329   0.806   1.100 -0.5916 -1.7719  0.0408
 2642TIP3   OH2 7931   1.238   4.638   0.343  0.6590 -0.4588  0.9142
 2642TIP3    H1 7932   1.313   4.628   0.402  1.5106 -0.1497 -0.0919
 2642TIP3    H2 7933   1.191   4.554   0.349  1.1077 -0.6752  1.4973
 2643TIP3   OH2 7934   1.971   4.614   3.825  0.6432 -0.0931 -0.0070
 2643TIP3    H1 7935   2.019   4.580   3.901 -2.9887 -2.9154  1.3078
 2643TIP3    H2 7936   1.955   4.706   3.845  1.8377 -0.1520  1.4198
 2644TIP3   OH2 7937   3.374   2.657   3.952  0.2750  0.3122  0.2748
 2644TIP3    H1 7938   3.468   2.654   3.971  0.7123  1.4382 -1.5286
 2644TIP3    H2 7939   3.352   2.750   3.955 -0.3312  0.2397 -1.2652
 2645TIP3   OH2 7940   1.558   2.991   0.172  0.0021 -0.0334  0.0639
 2645TIP3    H1 7941   1.574   2.897   0.167  2.9925  0.4737 -1.4826
 2645TIP3    H2 7942   1.645   3.031   0.174 -0.9903  2.8687 -3.5613
 2646TIP3   OH2 7943   2.692   3.256   1.715  0.5838 -0.1670  0.4058
 2646TIP3    H1 7944   2.674   3.194   1.644 -1.2725 -0.6851  1.2602
 2646TIP3    H2 7945   2.781   3.287   1.697 -0.1566  0.5355 -2.7156
 2647TIP3   OH2 7946   3.179   1.612   3.189  0.0986  0.3425 -0.0427
 2647TIP3    H1 7947   3.215   1.529   3.157  0.3844  0.5410 -0.2454
 2647TIP3    H2 7948   3.231   1.679   3.145  1.5143  0.6469  1.9427
 2648TIP3   OH2 7949   0.604   2.854   2.980  0.5629  0.0092  0.8932
 2648TIP3    H1 7950   0.673   2.838   2.915 -1.0154  0.0697 -0.8888
 2648TIP3    H2 7951   0.633   2.932   3.026  1.0746  0.8324 -0.7379
 2649TIP3   OH2 7952   0.212   2.758   4.603 -0.4756  0.1161 -0.1824
 2649TIP3    H1 7953   0.305   2.753   4.581 -0.6855 -0.6450 -0.9750
 2649TIP3    H2 7954   0.168   2.778   4.520 -1.0439  0.1893  0.1261
 2650TIP3   OH2 7955   3.163   4.417   4.277  0.0431  0.3535 -0.8980
 2650TIP3    H1 7956   3.096   4.397   4.342  2.0088  0.0914  1.1729
 2650TIP3    H2 7957   3.211   4.335   4.267  0.9749  0.9168 -1.1703
 2651TIP3   OH2 7958   6.034   2.904   3.589 -0.4860 -0.8214 -0.2078
 2651TIP3    H1 7959   5.989   2.833   3.634 -0.1267 -0.4299  0.7954
 2651TIP3    H2 7960   6.059   2.965   3.659  2.7135 -1.6208 -0.4892
 2652TIP3   OH2 7961   3.251   1.014   4.914 -0.3112 -0.1137  0.1372
 2652TIP3    H1 7962   3.197   1.067   4.972  0.0597  0.1097  0.2744
 2652TIP3    H2 7963   3.291   0.948   4.971 -0.8870 -0.6455 -0.0537
 2653TIP3   OH2 7964   1.498   0.077   0.950  0.5143  0.2756  0.0846
 2653TIP3    H1 7965   1.501   0.122   1.035  0.4709  0.4157  0.0120
 2653TIP3    H2 7966   1.410   0.095   0.917  0.4288 -0.0264  0.1434
 2654TIP3   OH2 7967   5.539   3.791   2.480  0.4307  0.7559 -0.3154
 2654TIP3    H1 7968   5.537   3.874   2.432 -0.8029  0.6511 -0.4632
 2654TIP3    H2 7969   5.451   3.756   2.471  1.0221 -0.7432 -0.5220
 2655TIP3   OH2 7970   0.578   3.400   2.446 -0.1957 -0.5523  1.0731
 2655TIP3    H1 7971   0.651   3.357   2.400 -1.2250 -1.2332  0.0221
 2655TIP3    H2 7972   0.608   3.490   2.459  0.0187 -0.2201 -1.2659
 2656TIP3   OH2 7973   4.851   3.002   2.335  0.1381 -0.1156  0.8275
 2656TIP3    H1 7974   4.946   3.002   2.336  0.1549 -0.8698  0.3842
 2656TIP3    H2 7975   4.827   2.910   2.350 -0.4601 -0.3707 -1.2613
 2657TIP3   OH2 7976   5.366   2.680   4.355 -0.8788 -0.0587  0.6763
 2657TIP3    H1 7977   5.296   2.636   4.404  0.3485 -0.3136  2.3067
 2657TIP3    H2 7978   5.425   2.609   4.329 -1.3549  0.1151 -0.9665
 2658TIP3   OH2 7979   6.288   3.830   4.396  0.5470 -0.3583 -0.0885
 2658TIP3    H1 7980   6.288   3.897   4.465  2.7256  0.0713 -0.4345
 2658TIP3    H2 7981   6.230   3.761   4.429  0.0047  0.6994  1.2699
 2659TIP3   OH2 7982   1.388   4.422   3.421  0.5614  0.7251 -0.3369
 2659TIP3    H1 7983   1.469   4.468   3.400 -0.5386  1.8874 -2.3748
 2659TIP3    H2 7984   1.363   4.454   3.508  0.8041  2.6083 -0.9296
 2660TIP3   OH2 7985   0.955   5.966   0.089  0.1171  0.3626  1.0369
 2660TIP3    H1 7986   0.997   5.921   0.016 -1.1057 -2.1831  1.7986
 2660TIP3    H2 7987   0.891   5.903   0.122 -0.4842  2.0499  3.2971
 2661TIP3   OH2 7988   2.542   3.782   2.676 -0.1008 -0.9063  0.0430
 2661TIP3    H1 7989   2.474   3.792   2.742 -0.0061  1.5341 -0.1569
 2661TIP3    H2 7990   2.517   3.703   2.628 -1.2070 -1.6623  1.7473
 2662TIP3   OH2 7991   0.046   4.915   1.050 -0.1337  0.1852  0.3052
 2662TIP3    H1 7992   0.134   4.924   1.085  0.3132 -0.6457 -0.5508
 2662TIP3    H2 7993  -0.008   4.889   1.125  0.4537  0.1948  0.7336
 2663TIP3   OH2 7994   2.439   4.194   4.013 -0.4931 -0.5096 -0.3362
 2663TIP3    H1 7995   2.530   4.165   4.020 -0.6072 -0.5023  1.6425
 2663TIP3    H2 7996   2.419   4.188   3.920  0.9573 -2.3026 -0.5888
 2664TIP3   OH2 7997   2.718   0.264   2.417  0.5052 -0.0576  0.0048
 2664TIP3    H1 7998   2.649   0.207   2.452 -0.1211 -0.4017 -1.6862
 2664TIP3    H2 7999   2.763   0.209   2.353  0.5899  1.0125 -0.8758
 2665TIP3   OH2 8000   5.202   3.644   1.577  0.0207 -0.0720 -0.0506
 2665TIP3    H1 8001   5.199   3.740   1.581  1.8675  0.0385 -0.5928
 2665TIP3    H2 8002   5.127   3.616   1.630  0.1702  1.6504  1.1610
 2666TIP3   OH2 8003   2.237   1.165   0.143  0.5062 -0.4755 -1.3931
 2666TIP3    H1 8004   2.272   1.247   0.109 -1.6129  0.6872 -0.9162
 2666TIP3    H2 8005   2.158   1.190   0.191  1.0213 -2.5595  0.6987
 2667TIP3   OH2 8006   5.242   5.031   4.166  0.5743 -0.0539  0.0108
 2667TIP3    H1 8007   5.280   4.944   4.170 -1.1124 -0.8068  0.8856
 2667TIP3    H2 8008   5.149   5.016   4.150  0.0093  1.4919  1.5177
 2668TIP3   OH2 8009   0.155   2.984   3.517  0.7228  0.0280  0.0567
 2668TIP3    H1 8010   0.103   2.929   3.575 -0.9313  0.1167 -1.2802
 2668TIP3    H2 8011   0.238   2.937   3.507 -0.3948 -1.9057 -0.5303
 2669TIP3   OH2 8012   0.915   3.781   1.506 -0.1994 -0.0519 -0.3680
 2669TIP3    H1 8013   0.843   3.773   1.444 -1.4536  1.7793  0.7399
 2669TIP3    H2 8014   0.958   3.695   1.505 -1.6662 -0.8213 -1.9279
 2670TIP3   OH2 8015   0.845   2.025   0.437 -0.6630  0.2667  0.1014
 2670TIP3    H1 8016   0.929   1.980   0.428 -0.3728  0.8994 -0.4828
 2670TIP3    H2 8017   0.847   2.060   0.527  0.2547  1.3248 -0.2974
 2671TIP3   OH2 8018   2.593   1.604   3.679  0.4237  0.0117  0.8029
 2671TIP3    H1 8019   2.570   1.656   3.601 -2.4941  0.5077  1.8804
 2671TIP3    H2 8020   2.605   1.670   3.748 -0.5271 -0.5961  1.5566
 2672TIP3   OH2 8021   3.046   5.562   0.391  0.1543  0.5722  0.3238
 2672TIP3    H1 8022   2.960   5.519   0.392  0.6640 -0.4818 -0.2026
 2672TIP3    H2 8023   3.097   5.512   0.328  1.1729  1.1805  0.6503
 2673TIP3   OH2 8024   1.482   5.764   0.967  0.2130  0.5439 -0.3904
 2673TIP3    H1 8025   1.399   5.725   0.939  0.2591 -0.7613  1.1687
 2673TIP3    H2 8026   1.542   5.747   0.895 -0.8617  1.5810 -1.5794
 2674TIP3   OH2 8027   3.050   5.197   4.012 -0.3353  0.4062  0.8446
 2674TIP3    H1 8028   3.101   5.222   4.089 -0.7227 -1.7399  1.8924
 2674TIP3    H2 8029   3.100   5.126   3.972 -0.8242  0.5670 -0.0826
 2675TIP3   OH2 8030   3.937   3.232   2.700  0.1283  0.1394  0.2121
 2675TIP3    H1 8031   3.942   3.210   2.793  1.1845 -2.3858 -0.3608
 2675TIP3    H2 8032   3.857   3.190   2.669 -0.5473  1.4816  0.0511
 2676TIP3   OH2 8033   2.742   2.734   3.979  0.2985 -0.0477 -0.3152
 2676TIP3    H1 8034   2.724   2.787   4.057  1.8486 -1.1362  0.8386
 2676TIP3    H2 8035   2.665   2.678   3.969 -0.3372  0.7931 -0.1663
 2677TIP3   OH2 8036   0.849   1.432   3.492 -0.2056  0.0958 -0.1724
 2677TIP3    H1 8037   0.896   1.357   3.456 -0.7373  0.9550 -2.9148
 2677TIP3    H2 8038   0.917   1.494   3.517  0.1952 -0.7632  0.9495
 2678TIP3   OH2 8039   1.609   0.800   2.758  0.1014 -0.4439 -0.7143
 2678TIP3    H1 8040   1.580   0.776   2.846 -0.4218  1.1833 -0.4089
 2678TIP3    H2 8041   1.550   0.870   2.731  1.6202  0.6355 -1.4376
 2679TIP3   OH2 8042   2.484   4.284   2.329 -0.0597  0.6342 -0.3689
 2679TIP3    H1 8043   2.538   4.349   2.374  1.5816  0.4070 -1.8802
 2679TIP3    H2 8044   2.420   4.335   2.280 -0.5212  0.9627  0.5608
 2680TIP3   OH2 8045   3.873   4.734   2.876  0.5243  0.2952 -0.5321
 2680TIP3    H1 8046   3.928   4.811   2.862 -0.9031  1.3560 -0.5186
 2680TIP3    H2 8047   3.910   4.667   2.819 -1.1476  2.4758 -4.6236
 2681TIP3   OH2 8048   2.847   5.172   3.833  0.4662  0.2405 -0.0402
 2681TIP3    H1 8049   2.865   5.091   3.785  0.2141  0.2031 -0.0706
 2681TIP3    H2 8050   2.900   5.165   3.913  0.5197  0.0900 -0.0892
 2682TIP3   OH2 8051   0.073   4.571   1.062  0.0567  0.5091 -0.5677
 2682TIP3    H1 8052   0.077   4.475   1.064 -1.0398  0.4229  2.7007
 2682TIP3    H2 8053   0.159   4.597   1.027  0.5154 -1.6311 -1.2136
 2683TIP3   OH2 8054   6.160   0.758   0.283  0.2559 -0.3063  0.0120
 2683TIP3    H1 8055   6.083   0.719   0.325 -0.5857 -0.1026 -1.3018
 2683TIP3    H2 8056   6.217   0.683   0.264  0.7995 -0.3832  1.7233
 2684TIP3   OH2 8057   0.558   5.461   2.411  0.1997 -0.0863 -0.1308
 2684TIP3    H1 8058   0.588   5.415   2.489 -0.8005 -1.3398 -0.4389
 2684TIP3    H2 8059   0.630   5.520   2.388  0.9663 -0.5210  1.0751
 2685TIP3   OH2 8060   1.659   3.715   4.865  0.1820 -0.1523  0.0620
 2685TIP3    H1 8061   1.713   3.678   4.934  0.7841 -0.7877 -0.7248
 2685TIP3    H2 8062   1.681   3.808   4.864  1.1417 -0.3763 -0.1327
 2686TIP3   OH2 8063   2.943   2.560   2.431 -0.4776  0.6618 -0.1068
 2686TIP3    H1 8064   3.035   2.584   2.420 -0.6681  2.1974  1.3216
 2686TIP3    H2 8065   2.944   2.464   2.440  1.0667  0.7356  0.8021
 2687TIP3   OH2 8066   3.329   0.505   4.897  0.0003  0.1494 -0.1043
 2687TIP3    H1 8067   3.379   0.523   4.977  0.2409 -1.1873  0.0745
 2687TIP3    H2 8068   3.374   0.556   4.829  1.0860 -0.3210  0.2277
 2688TIP3   OH2 8069   1.617   3.989   1.057  0.4496  0.1122  0.4357
 2688TIP3    H1 8070   1.629   4.002   0.963 -1.4961  1.4325  0.3207
 2688TIP3    H2 8071   1.611   3.894   1.067 -0.2392 -0.0123 -0.9138
 2689TIP3   OH2 8072   4.425   2.350   3.343  0.1902  0.2981  0.4928
 2689TIP3    H1 8073   4.451   2.425   3.396  0.7630  0.0463  0.5774
 2689TIP3    H2 8074   4.432   2.380   3.252 -0.0724  0.4972  0.5355
 2690TIP3   OH2 8075   4.626   1.221   3.379 -0.8008  0.0907  0.4839
 2690TIP3    H1 8076   4.702   1.264   3.341  0.8614 -1.5898  1.7439
 2690TIP3    H2 8077   4.561   1.219   3.309  1.0878 -0.3061 -1.3282
 2691TIP3   OH2 8078   4.653   5.435   4.642 -0.0477 -0.3193 -0.2944
 2691TIP3    H1 8079   4.606   5.405   4.564  1.1357  0.1924 -1.2320
 2691TIP3    H2 8080   4.611   5.518   4.665  0.6236  0.3594 -1.3921
 2692TIP3   OH2 8081   0.263   2.805   3.985  0.6340  0.3556  0.2441
 2692TIP3    H1 8082   0.297   2.725   4.024 -0.1873 -0.8947 -1.4862
 2692TIP3    H2 8083   0.248   2.864   4.059 -1.8964 -2.2631  2.0370
 2693TIP3   OH2 8084   5.992   2.956   2.915 -0.7523 -0.0564 -0.0935
 2693TIP3    H1 8085   5.962   2.965   3.006 -0.3292 -1.0909  0.1560
 2693TIP3    H2 8086   5.941   2.884   2.879 -1.0036  0.4226 -0.7297
 2694TIP3   OH2 8087   3.410   5.762   4.367  0.2079 -0.4753  0.0303
 2694TIP3    H1 8088   3.360   5.777   4.287 -0.2434  1.6649  0.6640
 2694TIP3    H2 8089   3.476   5.832   4.368  0.1145 -0.3760  1.5827
 2695TIP3   OH2 8090   0.607   0.263   5.170  0.3722  0.0013  0.3750
 2695TIP3    H1 8091   0.632   0.335   5.112 -1.4236  0.1218 -0.3002
 2695TIP3    H2 8092   0.630   0.295   5.258  1.0403  0.7410 -0.0477
 2696TIP3   OH2 8093   4.337   5.615   0.015  0.4758  0.1011 -0.0405
 2696TIP3    H1 8094   4.330   5.691  -0.043  0.4410 -1.3105 -1.9478
 2696TIP3    H2 8095   4.373   5.651   0.097 -0.8535  2.4035 -0.3747
 2697TIP3   OH2 8096   6.236   5.498   5.135  0.5218 -0.1847 -0.4000
 2697TIP3    H1 8097   6.251   5.577   5.083 -0.5406  1.0114  1.0151
 2697TIP3    H2 8098   6.165   5.452   5.090 -0.8421  1.1696  0.2639
 2698TIP3   OH2 8099   2.205   0.826   0.409 -0.0893  0.1034 -0.3963
 2698TIP3    H1 8100   2.199   0.731   0.412  1.3841 -0.0309 -0.8219
 2698TIP3    H2 8101   2.186   0.849   0.318  0.0660  0.1766 -0.4104
 2699TIP3   OH2 8102   3.623   5.787   1.942 -0.0999  0.2696 -0.4497
 2699TIP3    H1 8103   3.640   5.705   1.988 -0.0122  0.9983  0.8625
 2699TIP3    H2 8104   3.530   5.783   1.919 -0.0704 -0.2344 -0.4819
 2700TIP3   OH2 8105   5.435   2.479   2.559  0.0890 -0.0660  0.6815
 2700TIP3    H1 8106   5.498   2.504   2.627  0.7664 -0.2806  0.1445
 2700TIP3    H2 8107   5.387   2.560   2.541 -0.4247 -0.1083  1.7278
 2701TIP3   OH2 8108   5.012   3.535   1.009  0.1058 -0.3325  0.5779
 2701TIP3    H1 8109   5.006   3.496   1.096 -0.9656 -0.3888  0.4931
 2701TIP3    H2 8110   4.973   3.470   0.951 -0.6086  0.3599  0.2749
 2702TIP3   OH2 8111   2.827   1.049   1.113  0.3917 -0.5764  0.3602
 2702TIP3    H1 8112   2.852   0.993   1.187 -1.1564 -0.3500  1.1140
 2702TIP3    H2 8113   2.731   1.048   1.115  0.3261  1.2702 -0.2504
 2703TIP3   OH2 8114   2.959   5.863   3.250  0.0194 -0.2440  0.1392
 2703TIP3    H1 8115   2.887   5.867   3.187  0.2755  0.8600 -0.1113
 2703TIP3    H2 8116   3.034   5.832   3.199  0.2534  0.7550 -0.1424
 2704TIP3   OH2 8117   3.684   1.988   0.748 -0.4580  0.0828  0.0868
 2704TIP3    H1 8118   3.683   2.080   0.775 -1.3001  0.4231 -1.0017
 2704TIP3    H2 8119   3.599   1.976   0.704  0.2052 -0.8328 -0.9831
 2705TIP3   OH2 8120   4.144   4.675   2.530 -0.3946  0.0968 -0.0134
 2705TIP3    H1 8121   4.087   4.651   2.603  0.3021  0.6174  0.7245
 2705TIP3    H2 8122   4.148   4.771   2.534  0.4307  0.0744 -0.1189
 2706TIP3   OH2 8123   0.448   4.752   4.997  0.2461 -0.3815  0.6356
 2706TIP3    H1 8124   0.456   4.810   4.921 -1.0136 -2.1467 -0.9332
 2706TIP3    H2 8125   0.531   4.764   5.044 -0.1883  3.0997  0.7985
 2707TIP3   OH2 8126   5.215   4.220   3.962 -0.4173  0.0795  0.3971
 2707TIP3    H1 8127   5.266   4.188   4.037 -0.5773  0.4956  0.6852
 2707TIP3    H2 8128   5.128   4.236   3.997 -0.5672  0.0196  0.0568
 2708TIP3   OH2 8129   1.177   0.630   1.345  0.0035  0.4337 -0.0541
 2708TIP3    H1 8130   1.230   0.560   1.307 -0.7937 -0.1911 -0.0381
 2708TIP3    H2 8131   1.240   0.698   1.368  1.1359 -1.2440  2.1740
 2709TIP3   OH2 8132   3.525   3.349   0.342 -0.1073 -0.3120  0.2362
 2709TIP3    H1 8133   3.592   3.386   0.400 -0.8029  1.1690  0.1442
 2709TIP3    H2 8134   3.444   3.392   0.369 -0.3721  0.7881 -2.1104
 2710TIP3   OH2 8135   1.323   0.272   2.005 -0.2323 -0.2185 -0.0274
 2710TIP3    H1 8136   1.292   0.349   2.053 -1.5185 -0.2852 -0.6969
 2710TIP3    H2 8137   1.287   0.198   2.054  0.9293 -0.4189  0.5647
 2711TIP3   OH2 8138   4.852   3.416   0.239  0.5643 -0.4544  0.9806
 2711TIP3    H1 8139   4.780   3.440   0.298 -0.3036 -0.8009  0.0832
 2711TIP3    H2 8140   4.831   3.461   0.157  0.4318 -1.9340  0.1720
 2712TIP3   OH2 8141   1.003   4.728   3.325 -0.1813 -0.3429  0.3712
 2712TIP3    H1 8142   1.012   4.709   3.418  2.8384  0.7480  0.4025
 2712TIP3    H2 8143   1.086   4.699   3.286 -0.8598  0.3788 -1.7710
 2713TIP3   OH2 8144   2.452   5.306   4.820  0.0379  0.3842 -0.0701
 2713TIP3    H1 8145   2.463   5.334   4.729  0.5523 -0.8352 -0.4050
 2713TIP3    H2 8146   2.465   5.211   4.817 -1.6027  0.0854  1.0140
 2714TIP3   OH2 8147   5.985   1.544   3.328  0.1723 -0.0660  0.0541
 2714TIP3    H1 8148   5.927   1.503   3.392 -0.1523 -0.4841 -0.5057
 2714TIP3    H2 8149   6.069   1.552   3.374 -0.6716  1.8576  1.3734
 2715TIP3   OH2 8150   3.129   5.505   3.329 -0.0468 -0.1198  0.4992
 2715TIP3    H1 8151   3.036   5.520   3.347 -0.3317 -0.9322 -0.2148
 2715TIP3    H2 8152   3.135   5.411   3.312  0.7038  0.1155 -0.6522
 2716TIP3   OH2 8153   6.019   1.928   0.867 -0.3892  0.3032 -0.5338
 2716TIP3    H1 8154   5.995   2.007   0.916  0.0148  0.5670 -0.7548
 2716TIP3    H2 8155   5.939   1.905   0.819 -0.1758  1.2669 -1.3891
 2717TIP3   OH2 8156   6.147   0.404   3.176  0.3427 -0.2874  0.3172
 2717TIP3    H1 8157   6.234   0.366   3.185  0.1514 -0.9315 -0.4723
 2717TIP3    H2 8158   6.100   0.344   3.118  0.4552  1.8510 -2.1626
 2718TIP3   OH2 8159   1.993   5.221   0.646 -0.4116  0.7017 -0.3518
 2718TIP3    H1 8160   1.901   5.246   0.657 -0.6549 -0.4957  0.4384
 2718TIP3    H2 8161   2.041   5.283   0.701 -0.9924 -0.3862  1.4639
 2719TIP3   OH2 8162   0.329   4.397   3.845 -0.0389  0.1960  0.2417
 2719TIP3    H1 8163   0.256   4.371   3.788  0.1447 -0.5776  0.3519
 2719TIP3    H2 8164   0.329   4.493   3.840  0.3475  0.1399 -1.5221
 2720TIP3   OH2 8165   0.915   2.364   2.949 -0.5855 -0.3436 -0.2766
 2720TIP3    H1 8166   0.947   2.445   2.989  1.9909 -1.5342  0.2826
 2720TIP3    H2 8167   0.829   2.350   2.989  0.4963  0.2074  2.4563
 2721TIP3   OH2 8168   1.948   4.662   5.069 -0.3681  0.0620 -0.4006
 2721TIP3    H1 8169   1.890   4.736   5.086 -1.1298 -0.6413  0.1491
 2721TIP3    H2 8170   1.909   4.617   4.994 -1.6418 -1.4596  1.0810
 2722TIP3   OH2 8171   3.240   5.258   4.232  0.0217  0.2071  0.3406
 2722TIP3    H1 8172   3.255   5.247   4.326 -0.8924 -1.4083  0.3438
 2722TIP3    H2 8173   3.292   5.189   4.191 -0.1050  0.4774 -0.2965
 2723TIP3   OH2 8174   5.388   1.606   0.106  0.1140  0.2275 -0.3398
 2723TIP3    H1 8175   5.375   1.601   0.201  0.8070 -1.2257 -0.2837
 2723TIP3    H2 8176   5.450   1.536   0.087 -1.8727 -1.1682 -2.1831
 2724TIP3   OH2 8177   6.224   4.717   4.052 -0.5634  0.5439  0.1955
 2724TIP3    H1 8178   6.202   4.783   3.987 -1.0383 -0.9978 -1.2734
 2724TIP3    H2 8179   6.282   4.762   4.114 -0.0101  2.0200 -1.3380
 2725TIP3   OH2 8180   3.068   0.164   0.337 -0.0033  0.6257 -0.2006
 2725TIP3    H1 8181   3.163   0.157   0.351  0.0240  1.2689 -0.0478
 2725TIP3    H2 8182   3.048   0.095   0.274  0.3800 -0.2877  0.6355
 2726TIP3   OH2 8183   0.228   5.297   3.210 -0.0863 -0.0172  0.2144
 2726TIP3    H1 8184   0.276   5.379   3.195 -0.0639  0.0001  0.3838
 2726TIP3    H2 8185   0.139   5.316   3.178 -0.2706  0.3035  0.8927
 2727TIP3   OH2 8186   3.366   3.276   3.869 -0.3296  0.2288  0.5918
 2727TIP3    H1 8187   3.409   3.250   3.788 -0.4533 -0.6556  0.7994
 2727TIP3    H2 8188   3.433   3.324   3.918 -0.5951  1.7738 -0.5108
 2728TIP3   OH2 8189   0.659   0.723   4.070 -0.4936  0.0509  0.4827
 2728TIP3    H1 8190   0.723   0.680   4.013 -2.1593 -1.1253 -0.5680
 2728TIP3    H2 8191   0.696   0.810   4.086  1.8532 -0.9061  0.7643
 2729TIP3   OH2 8192   5.801   3.455   0.269  0.5266 -0.5765  0.6208
 2729TIP3    H1 8193   5.783   3.390   0.201  0.5866  1.5561 -1.5725
 2729TIP3    H2 8194   5.883   3.427   0.309  1.2884 -1.1087 -1.2300
 2730TIP3   OH2 8195   2.251   3.044   3.159  0.3164  0.7176 -0.1575
 2730TIP3    H1 8196   2.270   2.994   3.080  1.1351  3.0398 -1.5407
 2730TIP3    H2 8197   2.324   3.025   3.218 -0.5402 -1.4071  0.3074
 2731TIP3   OH2 8198   3.726   1.696   2.675 -0.4695  0.2508  0.0907
 2731TIP3    H1 8199   3.760   1.784   2.691 -2.0083  1.1292 -1.3150
 2731TIP3    H2 8200   3.777   1.664   2.601  0.9265 -0.5836  1.3358
 2732TIP3   OH2 8201   1.289   5.495   2.313  0.5353 -0.2532  0.3073
 2732TIP3    H1 8202   1.356   5.497   2.245 -0.0477  2.3278 -0.3197
 2732TIP3    H2 8203   1.212   5.460   2.269  0.4809  0.3164 -0.0715
 2733TIP3   OH2 8204   5.252   5.769   2.123 -0.2287  0.6955 -0.1133
 2733TIP3    H1 8205   5.225   5.806   2.207 -0.8482  1.5964 -0.6846
 2733TIP3    H2 8206   5.190   5.698   2.107  1.6723 -1.4757  1.5382
 2734TIP3   OH2 8207   2.187   2.268   2.817  0.0592  0.2589  0.0081
 2734TIP3    H1 8208   2.105   2.307   2.846 -0.2704 -0.0075 -0.5524
 2734TIP3    H2 8209   2.233   2.246   2.898 -0.8609 -0.5130  0.3481
 2735TIP3   OH2 8210   2.523   3.094   2.116 -0.7266  0.1932  0.4190
 2735TIP3    H1 8211   2.466   3.025   2.152 -0.2428  0.2722  1.3629
 2735TIP3    H2 8212   2.534   3.156   2.188  0.5647  0.1745  0.2569
 2736TIP3   OH2 8213   6.118   3.057   2.364  0.4319 -0.6951 -0.1664
 2736TIP3    H1 8214   6.084   3.146   2.352  0.2739 -0.5361  1.2657
 2736TIP3    H2 8215   6.183   3.066   2.434 -0.1744 -1.8490  0.5517
 2737TIP3   OH2 8216   2.749   0.472   1.713  0.4236  0.2579  0.2547
 2737TIP3    H1 8217   2.671   0.421   1.693  0.8705 -0.1397 -0.5546
 2737TIP3    H2 8218   2.764   0.458   1.807  0.3184 -0.7975  0.1250
 2738TIP3   OH2 8219   0.805   4.789   1.584  0.2791  0.6239  0.5594
 2738TIP3    H1 8220   0.855   4.709   1.568 -1.2133  0.1506 -2.4150
 2738TIP3    H2 8221   0.861   4.859   1.551 -0.5351  0.1828 -1.9460
 2739TIP3   OH2 8222   1.848   1.370   2.512  0.4689 -0.6248  0.1003
 2739TIP3    H1 8223   1.832   1.461   2.535  0.8227 -0.4590 -0.3027
 2739TIP3    H2 8224   1.939   1.368   2.483  0.3146 -1.0058 -0.3715
 2740TIP3   OH2 8225   5.954   1.016   2.245 -0.2718 -0.0893  0.6659
 2740TIP3    H1 8226   6.048   1.010   2.262  0.1741 -0.7620 -1.6723
 2740TIP3    H2 8227   5.929   1.103   2.276  1.3427  0.4860  0.4263
 2741TIP3   OH2 8228   0.062   5.006   3.002 -0.4476 -0.9604  0.4429
 2741TIP3    H1 8229   0.005   5.047   3.067 -1.4187  0.6624 -1.3630
 2741TIP3    H2 8230   0.130   5.071   2.984 -0.0383 -1.4985 -0.0075
 2742TIP3   OH2 8231   2.221   5.377   5.044 -0.4542 -0.2967 -0.3525
 2742TIP3    H1 8232   2.186   5.369   4.955  1.7998  0.5547 -1.4068
 2742TIP3    H2 8233   2.316   5.365   5.033 -0.2122 -1.1933  2.1112
 2743TIP3   OH2 8234   5.316   5.275   3.209  0.0192  0.1425  0.6662
 2743TIP3    H1 8235   5.306   5.232   3.124 -2.1578  0.1078  0.8837
 2743TIP3    H2 8236   5.305   5.368   3.190  2.3963  0.4484  0.5378
 2744TIP3   OH2 8237   4.487   3.486   1.409 -0.7296  0.5334 -0.1653
 2744TIP3    H1 8238   4.430   3.529   1.346 -0.8886 -0.0201 -0.4065
 2744TIP3    H2 8239   4.448   3.399   1.420  0.6032 -0.2006 -1.0560
 2745TIP3   OH2 8240   1.881   2.993   4.758 -0.0669  0.5281  0.0446
 2745TIP3    H1 8241   1.909   3.081   4.730 -0.1930  0.3095 -0.7924
 2745TIP3    H2 8242   1.792   3.007   4.792  0.4249  0.9482  1.2030
 2746TIP3   OH2 8243   1.855   5.269   5.018 -0.1495 -0.0146 -0.3019
 2746TIP3    H1 8244   1.882   5.351   5.058 -3.0159  0.3656  1.0680
 2746TIP3    H2 8245   1.878   5.279   4.925  0.2361  1.9969 -0.0345
 2747TIP3   OH2 8246   1.883   0.025   0.399  0.6096  0.4554  0.0680
 2747TIP3    H1 8247   1.827   0.059   0.469  0.5791  0.0549  0.2372
 2747TIP3    H2 8248   1.957  -0.016   0.444  0.4572 -0.0373 -0.1220
 2748TIP3   OH2 8249   4.256   1.675   0.829 -0.5313  0.4043  0.4190
 2748TIP3    H1 8250   4.166   1.697   0.804 -1.3102 -2.2159  0.5275
 2748TIP3    H2 8251   4.310   1.710   0.759 -1.8672  0.2115 -0.7497
 2749TIP3   OH2 8252   4.276   3.812   0.902 -0.0015 -0.3777  0.0231
 2749TIP3    H1 8253   4.262   3.721   0.878 -0.1524 -0.1936 -0.6143
 2749TIP3    H2 8254   4.370   3.827   0.888  0.0262 -0.4344  0.1424
 2750TIP3   OH2 8255   2.395   3.759   2.904  0.3161 -0.4900  0.0208
 2750TIP3    H1 8256   2.388   3.715   2.989  0.6264 -0.6127 -0.0132
 2750TIP3    H2 8257   2.315   3.811   2.897  0.7703  0.3383  0.8474
 2751TIP3   OH2 8258   5.266   1.460   4.759 -0.4479 -0.2603 -0.3291
 2751TIP3    H1 8259   5.174   1.439   4.742 -0.4658 -0.1738 -0.3389
 2751TIP3    H2 8260   5.307   1.375   4.777 -0.2629 -0.4518 -1.5373
 2752TIP3   OH2 8261   3.537   3.202   3.216  0.4021 -0.1807 -0.0289
 2752TIP3    H1 8262   3.499   3.281   3.177  1.4592  1.0782  1.3430
 2752TIP3    H2 8263   3.621   3.191   3.171  1.1115  0.6216  1.0364
 2753TIP3   OH2 8264   1.123   2.191   4.907  0.2794  0.6185  0.3231
 2753TIP3    H1 8265   1.058   2.222   4.844  0.4793 -0.6663 -0.5514
 2753TIP3    H2 8266   1.208   2.212   4.867  0.4524 -1.7180 -0.7543
 2754TIP3   OH2 8267   4.234   1.588   4.852 -0.6242 -0.0887  0.0611
 2754TIP3    H1 8268   4.282   1.529   4.794  1.2954  2.0252 -0.6178
 2754TIP3    H2 8269   4.218   1.666   4.800 -2.7208  0.2365  1.0742
 2755TIP3   OH2 8270   3.263   1.823   4.805  0.2413  0.0325  0.2576
 2755TIP3    H1 8271   3.214   1.844   4.885  0.2695 -1.1725  0.6008
 2755TIP3    H2 8272   3.197   1.787   4.746 -0.0176  1.9916 -0.7309
 2756TIP3   OH2 8273   2.999   0.884   0.049  0.4011  0.7066  0.0773
 2756TIP3    H1 8274   2.958   0.827  -0.016  0.4534 -0.5433  1.0993
 2756TIP3    H2 8275   3.078   0.917   0.006 -0.6300  1.5897 -1.2250
 2757TIP3   OH2 8276   3.860   2.821   3.641 -0.5899  0.0865 -0.2574
 2757TIP3    H1 8277   3.892   2.733   3.621 -0.6184 -0.0159  0.1377
 2757TIP3    H2 8278   3.765   2.811   3.646 -1.0615  0.8960 -4.1065
 2758TIP3   OH2 8279   5.278   0.073   0.415  0.2385 -0.2743 -0.1911
 2758TIP3    H1 8280   5.320   0.109   0.337  1.6206 -2.1764 -0.4118
 2758TIP3    H2 8281   5.260  -0.018   0.392 -3.5878  0.2563  0.1306
 2759TIP3   OH2 8282   2.874   2.619   5.038 -0.3702 -0.0171  0.0541
 2759TIP3    H1 8283   2.966   2.591   5.039 -0.7150 -1.1939  0.7577
 2759TIP3    H2 8284   2.869   2.681   4.965  0.9498 -0.0294 -0.0799
 2760TIP3   OH2 8285   3.776   3.375   3.752  0.2063  0.0486 -0.5538
 2760TIP3    H1 8286   3.839   3.388   3.823  0.0910 -0.6049 -0.3283
 2760TIP3    H2 8287   3.824   3.325   3.686  0.3145  0.6567 -0.9510
 2761TIP3   OH2 8288   4.446   2.183   1.585  0.4450  0.3715  0.5309
 2761TIP3    H1 8289   4.464   2.190   1.491 -1.1118 -0.5513  0.1296
 2761TIP3    H2 8290   4.523   2.138   1.620  0.7090  0.0154 -0.4478
 2762TIP3   OH2 8291   5.426   5.645   4.447  0.3415  0.7768 -0.7785
 2762TIP3    H1 8292   5.410   5.623   4.355  0.4299  2.1196 -1.1301
 2762TIP3    H2 8293   5.400   5.566   4.495 -1.0668  0.5611 -1.8387
 2763TIP3   OH2 8294   4.088   4.571   3.415  0.1529 -0.5855 -0.6999
 2763TIP3    H1 8295   4.144   4.631   3.464 -0.5568 -0.4702 -0.0231
 2763TIP3    H2 8296   4.038   4.628   3.356 -2.4066 -0.1207  1.7075
 2764TIP3   OH2 8297   5.862   4.355   3.063 -0.1283  0.1381  0.3847
 2764TIP3    H1 8298   5.865   4.262   3.042 -1.3355 -0.0134  0.7681
 2764TIP3    H2 8299   5.934   4.368   3.125 -0.6018 -0.7792  1.1554
 2765TIP3   OH2 8300   3.004   0.521   2.838 -0.0275 -0.2283 -0.0026
 2765TIP3    H1 8301   2.941   0.458   2.802 -0.8073  1.1081 -1.0481
 2765TIP3    H2 8302   3.012   0.497   2.930  2.8754 -4.5030 -1.0575
 2766TIP3   OH2 8303   2.144   2.208   1.423 -0.0224  0.4206 -0.0874
 2766TIP3    H1 8304   2.119   2.180   1.511  0.5490  1.3283  0.3767
 2766TIP3    H2 8305   2.101   2.145   1.364  0.6848 -1.0116  0.8799
 2767TIP3   OH2 8306   5.380   3.986   3.323 -0.1104 -0.2158 -1.1615
 2767TIP3    H1 8307   5.469   4.020   3.313 -0.3755  0.7980 -0.2590
 2767TIP3    H2 8308   5.391   3.907   3.376  0.1260  0.7505  0.2908
 2768TIP3   OH2 8309   0.874   3.328   0.367 -0.0604 -0.5907 -0.1911
 2768TIP3    H1 8310   0.915   3.265   0.427 -0.0701  0.3892  0.8862
 2768TIP3    H2 8311   0.856   3.405   0.422  0.0286  0.3878 -1.4848
 2769TIP3   OH2 8312   5.828   5.861   4.543  0.3148 -0.0161  0.7397
 2769TIP3    H1 8313   5.787   5.847   4.629 -0.3623  2.2331  0.8308
 2769TIP3    H2 8314   5.910   5.905   4.563 -0.4105  1.6342  0.1913
 2770TIP3   OH2 8315   3.486   5.698   2.227  0.2062 -0.0743 -0.4941
 2770TIP3    H1 8316   3.423   5.628   2.210  0.3122  0.1404 -1.8685
 2770TIP3    H2 8317   3.447   5.776   2.188  0.1629  0.6317  0.8926
 2771TIP3   OH2 8318   4.642   0.288   0.447 -0.4132  0.5222 -0.2420
 2771TIP3    H1 8319   4.581   0.288   0.521  0.4904  0.6402  0.5116
 2771TIP3    H2 8320   4.585   0.285   0.370 -1.3643  0.2599  0.4505
 2772TIP3   OH2 8321   0.954   5.365   4.996 -0.1442  0.0265 -0.4914
 2772TIP3    H1 8322   0.981   5.417   5.072 -0.0954 -0.4770 -0.1585
 2772TIP3    H2 8323   1.020   5.384   4.930  1.1599 -1.2989  0.3620
 2773TIP3   OH2 8324   3.811   1.570   4.376 -0.4551  0.1015 -0.4391
 2773TIP3    H1 8325   3.888   1.539   4.424  0.4110  0.3022 -1.6640
 2773TIP3    H2 8326   3.844   1.639   4.319 -1.8505  1.3203  0.1762
 2774TIP3   OH2 8327   0.439   2.705   0.954 -0.0344  0.6336  0.2464
 2774TIP3    H1 8328   0.475   2.632   0.903 -0.3155  1.7068 -1.5863
 2774TIP3    H2 8329   0.347   2.681   0.969 -0.2986  0.8632 -0.9028
 2775TIP3   OH2 8330   3.050   1.317   0.382 -0.2733  0.0866 -0.3666
 2775TIP3    H1 8331   3.023   1.252   0.316 -1.9080 -0.3169  0.6484
 2775TIP3    H2 8332   3.087   1.389   0.330 -2.2861  0.1583 -1.8332
 2776TIP3   OH2 8333   0.922   1.648   1.184  0.5212 -0.7885 -0.2885
 2776TIP3    H1 8334   0.979   1.613   1.115 -1.1268 -1.4475 -1.3589
 2776TIP3    H2 8335   0.870   1.715   1.140  0.2096 -0.4371  0.5970
 2777TIP3   OH2 8336   0.721   4.266   0.958  0.4115  0.0423  0.1099
 2777TIP3    H1 8337   0.716   4.234   1.048  3.0565 -1.1904 -0.1036
 2777TIP3    H2 8338   0.631   4.292   0.938 -0.5652 -1.0361  2.5853
 2778TIP3   OH2 8339   5.419   0.930   2.709 -0.1727  0.7087  0.7476
 2778TIP3    H1 8340   5.486   0.924   2.777 -0.2101 -1.6196  0.6522
 2778TIP3    H2 8341   5.337   0.915   2.755 -0.3323  0.5594  0.4133
 2779TIP3   OH2 8342   1.130   0.190   3.280  0.2193  0.3073 -0.3135
 2779TIP3    H1 8343   1.214   0.231   3.261 -0.2011  0.7179 -1.4251
 2779TIP3    H2 8344   1.092   0.173   3.193 -0.9402  0.3543  0.1637
 2780TIP3   OH2 8345   1.232   4.567   2.289  0.6627  0.3972 -0.1133
 2780TIP3    H1 8346   1.245   4.538   2.199 -2.6570  0.3193 -0.7195
 2780TIP3    H2 8347   1.242   4.662   2.285  1.8297  0.2837 -0.2419
 2781TIP3   OH2 8348   2.839   3.726   4.728 -0.0159 -0.0363 -0.0570
 2781TIP3    H1 8349   2.816   3.633   4.724 -0.6493  0.1147 -0.1071
 2781TIP3    H2 8350   2.899   3.733   4.802  0.7501 -0.6277 -0.6052
 2782TIP3   OH2 8351   0.356   3.469   0.989 -0.0024 -0.0434 -0.0981
 2782TIP3    H1 8352   0.358   3.406   1.062 -1.7525  0.0197  0.0419
 2782TIP3    H2 8353   0.448   3.489   0.973  0.4580 -0.4382  1.7681
 2783TIP3   OH2 8354   3.894   3.930   2.190  0.1667  0.4801 -0.4433
 2783TIP3    H1 8355   3.920   3.915   2.099  0.3736  0.7741 -0.4357
 2783TIP3    H2 8356   3.921   4.020   2.208 -1.8744  1.2241 -0.7865
 2784TIP3   OH2 8357   5.005   1.444   3.483  0.1875  0.0714  0.0792
 2784TIP3    H1 8358   4.924   1.477   3.444 -0.8341 -2.5353 -0.1831
 2784TIP3    H2 8359   5.071   1.455   3.415 -0.6698 -0.7040 -0.9069
 2785TIP3   OH2 8360   0.766   3.361   5.149  0.0735  0.7871 -0.3440
 2785TIP3    H1 8361   0.709   3.306   5.095 -0.9480  1.3556  0.1122
 2785TIP3    H2 8362   0.744   3.338   5.239  0.6728  0.9206 -0.1597
 2786TIP3   OH2 8363   2.780   2.142   2.743  0.3411  0.1735 -0.5991
 2786TIP3    H1 8364   2.811   2.052   2.750  1.4869  0.7062  3.5133
 2786TIP3    H2 8365   2.790   2.164   2.650  3.6031 -2.6942 -1.1011
 2787TIP3   OH2 8366   4.523   3.426   2.646 -0.6102 -0.0043 -0.2123
 2787TIP3    H1 8367   4.563   3.471   2.720 -0.4512  0.6483 -0.6912
 2787TIP3    H2 8368   4.429   3.437   2.659 -0.5645  0.8666 -0.5662
 2788TIP3   OH2 8369   4.651   0.862   3.235  0.7437 -0.1475  0.5047
 2788TIP3    H1 8370   4.746   0.871   3.227  0.5907  1.3425  0.1348
 2788TIP3    H2 8371   4.618   0.876   3.146  0.0885  1.0127  0.9080
 2789TIP3   OH2 8372   4.961   4.851   1.490  0.5998 -0.1563 -1.0631
 2789TIP3    H1 8373   5.036   4.801   1.457  0.7386 -0.3471 -0.4725
 2789TIP3    H2 8374   4.954   4.925   1.431  0.0844 -1.1217 -2.2566
 2790TIP3   OH2 8375   5.308   2.209   2.097 -0.2786  0.0230 -0.1236
 2790TIP3    H1 8376   5.289   2.116   2.084 -2.7212  0.3120  0.8852
 2790TIP3    H2 8377   5.241   2.239   2.159  1.0623  2.2449  0.3608
 2791TIP3   OH2 8378   6.294   1.339   2.884  0.1831 -0.3402  0.0527
 2791TIP3    H1 8379   6.337   1.401   2.825  0.1025  0.2039  0.5624
 2791TIP3    H2 8380   6.305   1.254   2.841  0.2083  0.0350 -0.7024
 2792TIP3   OH2 8381   2.030   0.474   2.949 -0.0111 -0.3757  0.0571
 2792TIP3    H1 8382   2.053   0.445   3.037  0.2022 -2.0897 -0.5313
 2792TIP3    H2 8383   1.941   0.507   2.958 -0.3200 -1.3400  0.7605
 2793TIP3   OH2 8384   2.259   4.752   3.196 -0.0514  0.3775 -0.4439
 2793TIP3    H1 8385   2.186   4.732   3.137 -0.2705  0.4728 -0.2078
 2793TIP3    H2 8386   2.217   4.779   3.278  0.2562 -1.2689  0.2858
 2794TIP3   OH2 8387   1.572   3.885   0.359  0.4830  0.0237  0.5249
 2794TIP3    H1 8388   1.523   3.921   0.285  2.0917 -0.8761 -1.0604
 2794TIP3    H2 8389   1.638   3.951   0.379  0.8306 -0.2628  0.3309
 2795TIP3   OH2 8390   1.206   5.754   2.610 -0.3652 -0.1676 -0.5264
 2795TIP3    H1 8391   1.220   5.821   2.543 -1.3969  1.0034  0.4012
 2795TIP3    H2 8392   1.131   5.704   2.578 -1.0664  0.5979 -0.1050
 2796TIP3   OH2 8393   2.765   0.184   1.721 -0.1594  0.3287  0.2911
 2796TIP3    H1 8394   2.798   0.224   1.640 -2.4068  0.6889 -0.5137
 2796TIP3    H2 8395   2.772   0.254   1.786  1.8403 -0.0181  0.5073
 2797TIP3   OH2 8396   4.058   2.324   3.924  0.4424  0.6788  0.6132
 2797TIP3    H1 8397   4.133   2.385   3.918  0.8341  0.1192 -0.4332
 2797TIP3    H2 8398   4.048   2.290   3.835 -1.4680  1.2054  0.5833
 2798TIP3   OH2 8399   0.352   4.031   2.453 -0.1672 -0.0057 -0.1269
 2798TIP3    H1 8400   0.373   4.015   2.362  0.1443 -0.2150 -0.0204
 2798TIP3    H2 8401   0.263   3.998   2.464 -0.2138  0.0438 -0.3594
 2799TIP3   OH2 8402   5.355   5.570   2.808 -0.7813  1.0038  0.8208
 2799TIP3    H1 8403   5.317   5.543   2.725  0.1857 -0.3712  0.7910
 2799TIP3    H2 8404   5.354   5.666   2.805 -0.2231  0.9865 -1.0331
 2800TIP3   OH2 8405   4.963   5.148   1.624  0.1310  0.2364 -0.0383
 2800TIP3    H1 8406   4.964   5.225   1.681 -0.2430  1.3781 -1.4757
 2800TIP3    H2 8407   4.877   5.108   1.638  0.0233  0.5367  0.1698
 2801TIP3   OH2 8408   2.307   3.307   4.725 -0.0067 -0.1376  0.5093
 2801TIP3    H1 8409   2.253   3.291   4.648  2.0818 -0.9364 -0.8836
 2801TIP3    H2 8410   2.303   3.224   4.774 -1.4120  0.4031  1.3538
 2802TIP3   OH2 8411   3.990   2.105   1.146  0.3529 -0.3083 -0.3251
 2802TIP3    H1 8412   3.915   2.064   1.102  0.3815 -1.9548  1.0493
 2802TIP3    H2 8413   3.965   2.197   1.153 -0.3944 -0.3189 -2.1657
 2803TIP3   OH2 8414   6.232   5.701   3.249  0.2617  0.1759 -0.2155
 2803TIP3    H1 8415   6.307   5.752   3.216  0.3354  1.4335  1.7350
 2803TIP3    H2 8416   6.211   5.742   3.333 -1.5401 -1.2555  0.0763
 2804TIP3   OH2 8417   4.866   3.511   3.532 -0.1030  0.1741  0.3540
 2804TIP3    H1 8418   4.873   3.605   3.549  0.0607  0.2750 -0.2273
 2804TIP3    H2 8419   4.946   3.474   3.567 -0.9124  0.0009  2.1087
 2805TIP3   OH2 8420   4.664   3.360   3.479 -0.1669 -0.1151  0.8302
 2805TIP3    H1 8421   4.735   3.423   3.490 -0.1068  0.2494 -1.1268
 2805TIP3    H2 8422   4.628   3.348   3.566  1.7515  0.3378  1.7287
 2806TIP3   OH2 8423   0.463   5.371   2.144 -0.1844 -0.1599  0.2675
 2806TIP3    H1 8424   0.428   5.304   2.086 -0.0109  0.7384 -0.9427
 2806TIP3    H2 8425   0.543   5.332   2.180 -1.0019 -1.2290  0.9647
 2807TIP3   OH2 8426   3.341   3.479   1.838 -0.1419  0.2212 -0.2828
 2807TIP3    H1 8427   3.284   3.542   1.881  1.2840 -0.0053  2.1574
 2807TIP3    H2 8428   3.425   3.525   1.830  0.1788 -0.4610 -0.9434
 2808TIP3   OH2 8429   3.177   3.224   2.781  0.2452  0.1179 -0.1553
 2808TIP3    H1 8430   3.108   3.210   2.846 -0.2658  0.1661 -0.6882
 2808TIP3    H2 8431   3.202   3.136   2.754 -0.5220  0.1205 -0.9170
 2809TIP3   OH2 8432   0.215   4.829   2.146 -0.2672  0.2230 -0.0066
 2809TIP3    H1 8433   0.260   4.899   2.193  0.8708  0.7177 -1.7477
 2809TIP3    H2 8434   0.214   4.857   2.055 -1.3726 -1.2353 -0.4895
 2810TIP3   OH2 8435   4.167   0.671   1.311  0.2545  0.1337 -0.4493
 2810TIP3    H1 8436   4.259   0.644   1.315  0.2364 -0.5486 -3.0046
 2810TIP3    H2 8437   4.142   0.655   1.221 -1.3669  3.7251 -0.7856
 2811TIP3   OH2 8438   4.491   5.818   3.001 -0.6940 -0.2923  0.2039
 2811TIP3    H1 8439   4.530   5.749   2.948 -3.2627 -1.1414 -0.7423
 2811TIP3    H2 8440   4.487   5.782   3.089 -2.4959 -1.6433 -0.3814
 2812TIP3   OH2 8441   0.502   3.239   3.478  0.5944  0.2153 -0.6353
 2812TIP3    H1 8442   0.548   3.323   3.469  0.9716  0.1981  0.8551
 2812TIP3    H2 8443   0.415   3.263   3.511  0.8786  0.0095  0.2958
 2813TIP3   OH2 8444   0.631   3.190   1.475  0.1170 -0.9585  0.0166
 2813TIP3    H1 8445   0.569   3.211   1.545 -0.0112 -1.5588  0.0920
 2813TIP3    H2 8446   0.578   3.145   1.409  0.0154  0.5496 -0.9791
 2814TIP3   OH2 8447   3.498   0.796   3.181 -0.8130  0.4601  0.1947
 2814TIP3    H1 8448   3.417   0.768   3.223 -1.1459  0.5139 -0.4066
 2814TIP3    H2 8449   3.539   0.715   3.150 -2.0539  0.6057 -2.0542
 2815TIP3   OH2 8450   0.321   5.562   1.670 -0.5723 -0.0050  0.8400
 2815TIP3    H1 8451   0.297   5.654   1.678  2.9267  1.1872 -0.4919
 2815TIP3    H2 8452   0.316   5.544   1.577  1.0658 -0.3806  0.7930
 2816TIP3   OH2 8453   1.963   0.851   4.386  0.2245  0.2844  0.3431
 2816TIP3    H1 8454   1.926   0.815   4.305  0.2491 -0.6713  0.7416
 2816TIP3    H2 8455   2.058   0.842   4.374  0.2269  0.1119  0.4857
 2817TIP3   OH2 8456   5.413   4.016   0.112 -0.0184  0.1538 -0.1357
 2817TIP3    H1 8457   5.378   4.075   0.045 -4.1090 -0.9378  0.7715
 2817TIP3    H2 8458   5.423   3.932   0.066 -1.1109 -0.1581  0.1813
 2818TIP3   OH2 8459   5.170   1.747   2.526  0.0736 -0.0771 -0.1818
 2818TIP3    H1 8460   5.210   1.712   2.447 -0.2821  0.0269 -0.4074
 2818TIP3    H2 8461   5.096   1.689   2.544 -0.0045  0.0538 -0.0773
 2819TIP3   OH2 8462   3.316   0.077   0.440 -0.7486 -0.2721  0.0277
 2819TIP3    H1 8463   3.313   0.142   0.511 -0.2381 -1.3030  1.0370
 2819TIP3    H2 8464   3.402   0.036   0.448 -0.1233  0.5158 -2.0927
 2820TIP3   OH2 8465   0.133   0.283   4.824 -0.3376 -0.0006  0.2316
 2820TIP3    H1 8466   0.208   0.342   4.830  1.6615 -2.3068 -0.4745
 2820TIP3    H2 8467   0.122   0.250   4.914  0.1430 -0.4120  0.1393
 2821TIP3   OH2 8468   5.300   5.291   3.530 -0.4839  0.2698  0.0488
 2821TIP3    H1 8469   5.219   5.242   3.513 -0.3326  0.5071 -1.5297
 2821TIP3    H2 8470   5.356   5.271   3.454  0.3844  1.2330  0.4173
 2822TIP3   OH2 8471   0.514   0.029   1.835  0.4690 -0.0265 -0.4793
 2822TIP3    H1 8472   0.593   0.063   1.793  0.2271  2.3792  0.8323
 2822TIP3    H2 8473   0.481   0.102   1.887 -2.0126 -1.3191 -0.0782
 2823TIP3   OH2 8474   4.850   0.045   4.376 -0.0876  0.5241  0.4091
 2823TIP3    H1 8475   4.778   0.084   4.426 -0.4974  0.5661 -0.2013
 2823TIP3    H2 8476   4.869   0.109   4.307 -2.2271 -1.1718 -1.9668
 2824TIP3   OH2 8477   1.577   0.515   2.723  0.4047  0.4038  0.0094
 2824TIP3    H1 8478   1.617   0.595   2.689  1.4386  0.1480  0.5614
 2824TIP3    H2 8479   1.620   0.444   2.676  0.2021  0.1385  0.2170
 2825TIP3   OH2 8480   2.336   1.884   1.408 -0.1741 -0.0611 -0.3831
 2825TIP3    H1 8481   2.242   1.864   1.410 -0.5298  1.4856  1.1704
 2825TIP3    H2 8482   2.352   1.914   1.319 -1.3804  0.4825 -0.4440
 2826TIP3   OH2 8483   3.797   0.045   2.649  0.9073 -0.2345 -0.5548
 2826TIP3    H1 8484   3.737   0.119   2.659  0.6593 -0.4563 -0.4019
 2826TIP3    H2 8485   3.763  -0.003   2.574  0.5160 -0.7149 -0.0799
 2827TIP3   OH2 8486   1.045   1.705   2.887  0.5110  0.6088  0.2029
 2827TIP3    H1 8487   1.103   1.630   2.879  1.5735  1.4010  0.2507
 2827TIP3    H2 8488   1.040   1.741   2.799 -1.7260 -0.7358 -0.2781
 2828TIP3   OH2 8489   4.999   1.657   2.852 -0.2591  0.0206 -0.0602
 2828TIP3    H1 8490   4.922   1.642   2.798 -0.2139 -1.1556  0.1778
 2828TIP3    H2 8491   4.964   1.681   2.938 -0.3773 -0.8392  0.1402
 2829TIP3   OH2 8492   4.907   2.427   2.448 -0.2950  0.2363 -0.1284
 2829TIP3    H1 8493   4.907   2.332   2.464  0.3363  0.4096  0.9593
 2829TIP3    H2 8494   4.949   2.436   2.362  0.0273 -0.4467 -0.0527
 2830TIP3   OH2 8495   5.534   1.385   5.002  0.1515 -0.0182  0.2635
 2830TIP3    H1 8496   5.458   1.366   4.947  0.4950 -0.9447  0.0797
 2830TIP3    H2 8497   5.498   1.405   5.088 -0.4251  1.8785 -0.3629
 2831TIP3   OH2 8498   0.127   4.766   1.513  0.2659 -1.3232 -0.0340
 2831TIP3    H1 8499   0.051   4.791   1.565 -0.6766  2.4607 -2.8296
 2831TIP3    H2 8500   0.200   4.814   1.551  0.8525 -3.0256  1.1232
 2832TIP3   OH2 8501   5.036   1.531   0.926  0.0486 -0.0606 -0.1370
 2832TIP3    H1 8502   5.073   1.476   0.857 -0.5378 -0.3144 -0.2549
 2832TIP3    H2 8503   5.048   1.621   0.894 -0.9792 -0.2060 -0.9647
 2833TIP3   OH2 8504   2.366   0.454   0.144 -1.4479  0.1307  0.2995
 2833TIP3    H1 8505   2.359   0.529   0.085  0.4371 -0.4330 -0.7327
 2833TIP3    H2 8506   2.427   0.394   0.100 -0.4802 -0.6225  2.5144
 2834TIP3   OH2 8507   0.898   3.302   2.834  0.2084  0.2731 -0.5759
 2834TIP3    H1 8508   0.856   3.298   2.748  0.1222  2.3346 -0.6809
 2834TIP3    H2 8509   0.854   3.234   2.885 -0.4959 -0.2588 -1.8336
 2835TIP3   OH2 8510   0.358   1.119   2.215 -0.5117 -0.1355  0.2775
 2835TIP3    H1 8511   0.338   1.208   2.246 -0.0844 -0.3083  1.0728
 2835TIP3    H2 8512   0.333   1.120   2.123  0.6175  1.1668 -0.0427
 2836TIP3   OH2 8513   6.267   4.872   1.638 -0.5113  0.0714 -0.0787
 2836TIP3    H1 8514   6.180   4.834   1.624 -0.7242  0.9383 -1.2548
 2836TIP3    H2 8515   6.250   4.961   1.668 -0.0610  0.5451 -1.1716
 2837TIP3   OH2 8516   0.197   0.523   3.151  0.2362 -0.0762  0.2297
 2837TIP3    H1 8517   0.136   0.596   3.138 -1.3037 -1.3176  0.2892
 2837TIP3    H2 8518   0.284   0.563   3.140 -0.5515  1.7606  0.2633
 2838TIP3   OH2 8519   3.105   5.522   5.013 -0.0144  0.0823  0.1836
 2838TIP3    H1 8520   3.138   5.586   4.950 -0.3402 -1.5945 -1.8037
 2838TIP3    H2 8521   3.044   5.468   4.963 -1.8416 -0.1411  2.4498
 2839TIP3   OH2 8522   5.133   4.764   1.036  0.2902 -0.5457  0.1153
 2839TIP3    H1 8523   5.068   4.718   0.984  0.9507 -0.5765 -0.6991
 2839TIP3    H2 8524   5.123   4.856   1.011  1.8111 -0.7699 -1.4394
 2840TIP3   OH2 8525   4.970   4.030   2.233  0.0061  0.0826 -0.3676
 2840TIP3    H1 8526   4.986   4.001   2.143  0.2936  0.2459 -0.3710
 2840TIP3    H2 8527   4.878   4.007   2.249  0.3442 -1.2182 -0.2073
 2841TIP3   OH2 8528   0.888   3.239   1.340 -0.1852 -0.1285  0.2088
 2841TIP3    H1 8529   0.809   3.216   1.389  0.8673 -1.4286  1.3510
 2841TIP3    H2 8530   0.960   3.215   1.397  1.0866  2.8309 -0.0053
 2842TIP3   OH2 8531   3.724   3.940   2.881 -0.1242  0.5092  0.9558
 2842TIP3    H1 8532   3.703   3.974   2.794  0.8844 -0.1804  0.4249
 2842TIP3    H2 8533   3.652   3.880   2.900  1.0676 -1.6273 -0.7321
 2843TIP3   OH2 8534   4.871   5.547   4.523  0.0041  0.1272  0.2008
 2843TIP3    H1 8535   4.890   5.475   4.464 -1.2625  1.4191 -1.8910
 2843TIP3    H2 8536   4.808   5.511   4.586  1.8278 -1.4288  1.2698
 2844TIP3   OH2 8537   1.313   2.983   4.840  0.7830 -0.3646  0.6800
 2844TIP3    H1 8538   1.231   2.955   4.799  1.5710 -1.1382 -0.4173
 2844TIP3    H2 8539   1.286   3.020   4.924 -0.8657  1.0912 -0.4304
 2845TIP3   OH2 8540   1.298   3.144   4.509 -0.2453  0.1334 -0.1390
 2845TIP3    H1 8541   1.233   3.167   4.576  0.5442 -0.8708  1.0281
 2845TIP3    H2 8542   1.252   3.086   4.449 -1.0187  1.1988 -0.6162
 2846TIP3   OH2 8543   2.964   5.375   4.842 -0.0375 -0.2486  0.4397
 2846TIP3    H1 8544   2.933   5.341   4.926  0.2296  0.1088  0.6886
 2846TIP3    H2 8545   2.885   5.381   4.788 -0.5721  1.4289  1.3302
 2847TIP3   OH2 8546   5.512   3.473   1.987 -0.6521 -0.2312  0.4569
 2847TIP3    H1 8547   5.479   3.472   1.898  0.1704  2.0176  0.0501
 2847TIP3    H2 8548   5.460   3.541   2.031 -0.4642 -0.7090  1.4454
 2848TIP3   OH2 8549   5.839   2.961   1.143  0.2453  0.3727 -1.0008
 2848TIP3    H1 8550   5.812   2.877   1.180 -0.3762  0.5280 -1.0905
 2848TIP3    H2 8551   5.935   2.958   1.144  0.3106 -1.4421 -3.4915
 2849TIP3   OH2 8552   4.894   5.365   1.791 -0.4719  0.0432 -0.3602
 2849TIP3    H1 8553   4.812   5.356   1.742 -0.5458 -0.4691 -0.1507
 2849TIP3    H2 8554   4.866   5.377   1.882 -0.3256  0.5572 -0.3803
 2850TIP3   OH2 8555   0.316   2.060   1.050 -0.2435  0.2380 -0.1973
 2850TIP3    H1 8556   0.352   2.148   1.060 -0.7498  0.5534 -1.0480
 2850TIP3    H2 8557   0.366   2.022   0.978  0.2575 -0.3330  0.4401
 2851TIP3   OH2 8558   4.158   3.985   4.861  0.5465 -0.0298  0.5274
 2851TIP3    H1 8559   4.147   4.077   4.837  0.4765  0.2063  1.4207
 2851TIP3    H2 8560   4.244   3.982   4.903  0.3394 -0.2765  0.9368
 2852TIP3   OH2 8561   2.419   5.953   0.357  0.0558  0.2110 -0.2129
 2852TIP3    H1 8562   2.387   6.029   0.310 -1.9487  0.2335  1.0798
 2852TIP3    H2 8563   2.350   5.933   0.421  0.9943 -2.0451  0.1918
 2853TIP3   OH2 8564   4.519   3.888   0.806 -0.2423 -0.7261 -0.1199
 2853TIP3    H1 8565   4.530   3.887   0.711 -2.7065  0.8773 -0.5098
 2853TIP3    H2 8566   4.597   3.932   0.839  0.6308 -1.2684 -1.3853
 2854TIP3   OH2 8567   2.739   3.977   0.541 -0.0680  0.3088  0.3413
 2854TIP3    H1 8568   2.746   3.883   0.556  0.2119  0.4178  0.9405
 2854TIP3    H2 8569   2.813   3.997   0.484 -0.7181  0.0044 -0.6212
 2855TIP3   OH2 8570   3.589   2.138   0.402 -0.6231 -0.5105 -0.0786
 2855TIP3    H1 8571   3.660   2.186   0.444 -0.8980  0.4332 -0.6614
 2855TIP3    H2 8572   3.515   2.199   0.402 -1.2246 -1.2236 -0.1130
 2856TIP3   OH2 8573   4.280   5.646   4.300  0.7374 -0.0369 -0.2084
 2856TIP3    H1 8574   4.376   5.643   4.294  0.8464  0.7041  0.7951
 2856TIP3    H2 8575   4.263   5.661   4.393 -0.3572 -0.1173 -0.3839
 2857TIP3   OH2 8576   3.388   5.442   2.262  0.1002  0.0806  0.5363
 2857TIP3    H1 8577   3.357   5.458   2.351  0.7027 -0.5415  0.8605
 2857TIP3    H2 8578   3.458   5.378   2.272  0.2106  0.0512 -0.3817
 2858TIP3   OH2 8579   5.592   4.856   2.501 -0.3306  0.6466  0.2464
 2858TIP3    H1 8580   5.542   4.780   2.530  2.0960 -0.9877  0.4504
 2858TIP3    H2 8581   5.526   4.922   2.480 -2.4391 -0.3878  3.0341
 2859TIP3   OH2 8582   2.360   5.970   4.502  0.5905 -0.2581  0.0783
 2859TIP3    H1 8583   2.332   6.046   4.451  0.6859 -0.7149 -0.6682
 2859TIP3    H2 8584   2.314   5.896   4.462 -0.1535 -0.5057  1.3199
 2860TIP3   OH2 8585   3.158   2.228   1.814  0.4178  0.5022  0.0644
 2860TIP3    H1 8586   3.167   2.305   1.758  1.6063  0.1201 -0.2967
 2860TIP3    H2 8587   3.193   2.256   1.899  2.7548 -0.1710 -0.5962
 2861TIP3   OH2 8588   0.939   3.199   4.436  0.3708  0.4855 -0.4886
 2861TIP3    H1 8589   0.850   3.233   4.425  0.0536 -0.4277 -0.8481
 2861TIP3    H2 8590   0.995   3.276   4.430 -0.2819  0.8845 -1.9503
 2862TIP3   OH2 8591   0.239   4.611   4.571 -0.5387  0.7117 -0.0137
 2862TIP3    H1 8592   0.231   4.539   4.634 -1.3771 -1.4568 -2.4216
 2862TIP3    H2 8593   0.326   4.648   4.588  0.0030 -0.9663  1.1975
 2863TIP3   OH2 8594   1.237   1.386   3.935  0.3156 -0.1048  0.2566
 2863TIP3    H1 8595   1.243   1.482   3.934  1.0109 -0.1093  1.4444
 2863TIP3    H2 8596   1.229   1.361   3.843  2.1367  0.9929 -0.2701
 2864TIP3   OH2 8597   0.077   1.435   2.535  0.1489 -0.3987  0.8991
 2864TIP3    H1 8598  -0.019   1.430   2.539  0.1658 -1.5196  0.4611
 2864TIP3    H2 8599   0.104   1.461   2.623 -0.5964  0.9202  0.7583
 2865TIP3   OH2 8600   4.167   1.983   1.493  0.0694  0.1391 -0.4390
 2865TIP3    H1 8601   4.139   1.892   1.479 -0.2872 -0.0101  1.0615
 2865TIP3    H2 8602   4.180   2.017   1.405 -0.1992 -1.2413 -1.0518
 2866TIP3   OH2 8603   5.072   5.839   5.024 -0.6542 -0.5277  0.4947
 2866TIP3    H1 8604   5.114   5.894   5.090  1.4717 -0.3462 -0.8842
 2866TIP3    H2 8605   5.004   5.894   4.987 -0.2564  0.2434  0.8882
 2867TIP3   OH2 8606   1.509   4.895   4.278  0.6545 -0.3356 -0.1501
 2867TIP3    H1 8607   1.550   4.821   4.322  0.3819 -0.3953  0.0083
 2867TIP3    H2 8608   1.441   4.856   4.223  1.1315 -0.2804 -0.7856
 2868TIP3   OH2 8609   0.662   4.733   2.990  0.9105  0.1768  0.1479
 2868TIP3    H1 8610   0.691   4.722   3.080 -0.2545  0.4470  0.5626
 2868TIP3    H2 8611   0.733   4.694   2.938  0.9902 -1.2003  1.2135
 2869TIP3   OH2 8612   1.383   3.191   0.110  0.2426  0.0181 -0.3453
 2869TIP3    H1 8613   1.306   3.178   0.166 -0.6244 -0.4003 -1.5900
 2869TIP3    H2 8614   1.435   3.111   0.123  1.2781  0.9425  1.6533
 2870TIP3   OH2 8615   1.647   1.782   3.705 -0.0084  0.5591  0.1174
 2870TIP3    H1 8616   1.663   1.687   3.707 -0.1087  0.5463  0.6621
 2870TIP3    H2 8617   1.636   1.806   3.798  0.6701  1.2181  0.0345
 2871TIP3   OH2 8618   0.815   5.596   2.377  0.0167 -0.2712 -0.0558
 2871TIP3    H1 8619   0.906   5.605   2.405  1.1721 -0.6973 -3.2748
 2871TIP3    H2 8620   0.788   5.685   2.355  0.7375 -0.4766 -1.9372
 2872TIP3   OH2 8621   3.859   2.308   2.600  0.1736  0.2425  0.0950
 2872TIP3    H1 8622   3.897   2.376   2.546  2.1416 -1.1807 -0.4122
 2872TIP3    H2 8623   3.772   2.292   2.562 -0.0377  1.9169 -0.1970
 2873TIP3   OH2 8624   2.943   1.992   2.983  0.0273  0.0313 -0.3633
 2873TIP3    H1 8625   2.917   1.905   3.014 -2.1525  0.2652 -1.3807
 2873TIP3    H2 8626   2.999   1.974   2.907 -0.0708 -0.4816 -0.3186
 2874TIP3   OH2 8627   2.970   2.177   3.819 -0.8607 -0.6078 -0.3311
 2874TIP3    H1 8628   3.008   2.187   3.906 -0.5579  1.5636 -0.6640
 2874TIP3    H2 8629   2.996   2.089   3.791  1.8137 -0.1367  0.4531
 2875TIP3   OH2 8630   3.837   2.593   1.820  0.0639  0.2955 -0.0988
 2875TIP3    H1 8631   3.874   2.650   1.753 -0.0690 -0.0394 -0.4585
 2875TIP3    H2 8632   3.905   2.528   1.838 -0.6534 -0.8439 -1.3870
 2876TIP3   OH2 8633   0.329   4.247   4.083 -0.5244  0.5085  0.5163
 2876TIP3    H1 8634   0.351   4.315   4.147  1.8487 -0.8850  1.2827
 2876TIP3    H2 8635   0.336   4.292   3.998 -0.4623  1.5718  1.0586
 2877TIP3   OH2 8636   5.335   1.709   4.817 -0.5188 -0.4575 -0.7844
 2877TIP3    H1 8637   5.260   1.763   4.792  0.1592 -0.4786 -3.0052
 2877TIP3    H2 8638   5.312   1.621   4.789 -1.0888 -1.1912  1.7107
 2878TIP3   OH2 8639   0.573   3.786   0.130 -0.3216 -0.2133 -0.2442
 2878TIP3    H1 8640   0.502   3.790   0.065  0.9377 -1.4382 -1.7750
 2878TIP3    H2 8641   0.652   3.809   0.081  0.3874  1.1855  1.4404
 2879TIP3   OH2 8642   4.762   0.772   0.519 -0.6231  0.9452 -0.3704
 2879TIP3    H1 8643   4.740   0.769   0.426  2.8897  0.0030 -1.3295
 2879TIP3    H2 8644   4.788   0.863   0.534  2.5510  0.3696 -1.4983
 2880TIP3   OH2 8645   1.677   3.283   3.695 -0.2066 -0.1978  0.4465
 2880TIP3    H1 8646   1.696   3.244   3.609  1.8321  1.4360  0.1055
 2880TIP3    H2 8647   1.746   3.251   3.752  0.4090  1.3838  0.6219
 2881TIP3   OH2 8648   5.933   5.976   0.168 -0.2668  0.0926  0.6241
 2881TIP3    H1 8649   6.013   5.985   0.221  0.3343 -1.5067  0.0442
 2881TIP3    H2 8650   5.872   5.928   0.223  0.6648 -2.3548 -0.3449
 2882TIP3   OH2 8651   1.747   4.783   2.050 -0.6021  0.2360 -0.1234
 2882TIP3    H1 8652   1.769   4.705   2.000  0.2797  0.1569  0.3802
 2882TIP3    H2 8653   1.656   4.769   2.077 -0.9387  0.0725 -1.2914
 2883TIP3   OH2 8654   1.200   5.797   1.860 -0.2306  0.3332 -0.5212
 2883TIP3    H1 8655   1.186   5.885   1.898  2.2280  0.6559 -0.2215
 2883TIP3    H2 8656   1.230   5.814   1.771 -1.3014 -0.2973 -1.0226
 2884TIP3   OH2 8657   1.048   4.231   2.875  0.4021 -0.0671 -0.0624
 2884TIP3    H1 8658   0.992   4.184   2.937  0.7371 -0.8513 -0.3499
 2884TIP3    H2 8659   1.128   4.249   2.925  1.4782 -2.4345 -0.8113
 2885TIP3   OH2 8660   1.049   2.694   4.297 -0.4425  0.0223  0.1720
 2885TIP3    H1 8661   0.987   2.761   4.268  0.4844  0.4757 -0.8129
 2885TIP3    H2 8662   1.006   2.611   4.275  0.6108  0.2986 -3.6983
 2886TIP3   OH2 8663   5.068   0.996   3.733 -0.3613  0.0027 -0.2164
 2886TIP3    H1 8664   5.009   0.998   3.808  0.3848  0.4244  0.3793
 2886TIP3    H2 8665   5.011   0.993   3.656 -1.1245 -1.2961  0.3852
 2887TIP3   OH2 8666   2.266   3.152   0.566 -0.1542 -0.2190 -0.5954
 2887TIP3    H1 8667   2.330   3.223   0.577 -0.1279 -0.4448  0.7908
 2887TIP3    H2 8668   2.280   3.094   0.640 -1.5035 -0.6493 -0.6473
 2888TIP3   OH2 8669   0.799   2.960   5.012  0.4140  0.7336 -0.0984
 2888TIP3    H1 8670   0.846   3.038   5.045  0.0751  0.5713  0.8003
 2888TIP3    H2 8671   0.771   2.914   5.091 -1.0828  0.7111 -0.6105
 2889TIP3   OH2 8672   5.490   5.542   1.188  0.0966  0.1656 -0.1289
 2889TIP3    H1 8673   5.579   5.561   1.159  1.4563 -3.5636  1.0211
 2889TIP3    H2 8674   5.445   5.511   1.110  0.1643  0.8639 -0.4552
 2890TIP3   OH2 8675   1.838   3.006   3.766  0.1556 -0.1204 -0.1246
 2890TIP3    H1 8676   1.830   2.989   3.860  1.6325  0.6423  0.1689
 2890TIP3    H2 8677   1.762   2.963   3.728 -0.4794 -0.4492  1.4153
 2891TIP3   OH2 8678   4.944   1.950   2.618  0.4191  0.0948  0.0086
 2891TIP3    H1 8679   4.964   2.032   2.572  2.9323 -1.4236 -1.9225
 2891TIP3    H2 8680   5.016   1.891   2.594 -1.8154 -3.0607  0.3694
 2892TIP3   OH2 8681   0.099   0.945   4.976  0.0921  0.2086  0.2009
 2892TIP3    H1 8682   0.156   0.971   4.904 -0.6153 -1.4208 -0.9959
 2892TIP3    H2 8683   0.111   0.851   4.984 -0.6359  0.1998  1.5404
 2893TIP3   OH2 8684   3.618   3.807   2.050  0.0566 -0.1388  0.4935
 2893TIP3    H1 8685   3.658   3.793   2.135 -1.1761 -0.9164  0.9745
 2893TIP3    H2 8686   3.552   3.738   2.043 -2.1554  1.8640  0.3560
 2894TIP3   OH2 8687   2.809   5.317   4.425 -0.5234  0.4635 -0.1653
 2894TIP3    H1 8688   2.865   5.322   4.502 -0.2375 -0.1566 -0.3219
 2894TIP3    H2 8689   2.840   5.239   4.378 -2.0180 -0.3690  0.1525
 2895TIP3   OH2 8690   5.673   5.875   4.343  0.5007 -0.0597 -0.3456
 2895TIP3    H1 8691   5.726   5.846   4.270  0.4406 -0.0183 -0.4062
 2895TIP3    H2 8692   5.732   5.874   4.418  0.5966  0.0244 -0.4197
 2896TIP3   OH2 8693   4.643   4.154   2.995  0.7190  0.0773  0.2450
 2896TIP3    H1 8694   4.592   4.143   2.914  2.8127 -1.6390 -0.9531
 2896TIP3    H2 8695   4.608   4.234   3.035 -1.8288 -0.1804 -1.2374
 2897TIP3   OH2 8696   1.942   1.667   3.884  0.4875 -0.1955  0.1048
 2897TIP3    H1 8697   1.999   1.692   3.956  0.4180  0.6733 -0.1365
 2897TIP3    H2 8698   1.938   1.744   3.828 -2.0647  0.3136  0.8466
 2898TIP3   OH2 8699   1.027   0.416   1.826 -0.1071  0.4100 -0.2633
 2898TIP3    H1 8700   1.086   0.469   1.772 -0.6614 -0.3453 -1.6901
 2898TIP3    H2 8701   1.083   0.381   1.895  1.1656 -0.2906 -1.5847
 2899TIP3   OH2 8702   1.601   3.256   2.622  0.2681 -0.8216 -0.1988
 2899TIP3    H1 8703   1.655   3.191   2.666 -1.2598 -0.0011  3.2432
 2899TIP3    H2 8704   1.511   3.231   2.642 -0.4229  1.1996 -0.4939
 2900TIP3   OH2 8705   0.015   2.690   4.916 -0.1182  0.2906 -0.4463
 2900TIP3    H1 8706   0.090   2.748   4.911 -1.1557  1.5743 -1.9248
 2900TIP3    H2 8707  -0.033   2.704   4.835 -2.1285 -0.2634  0.5603
 2901TIP3   OH2 8708   5.102   3.260   4.026  0.6756 -0.1676 -0.1225
 2901TIP3    H1 8709   5.012   3.239   4.049  0.8676  0.3820  1.2308
 2901TIP3    H2 8710   5.154   3.190   4.067  0.9811  0.5284  0.7351
 2902TIP3   OH2 8711   0.935   0.834   0.239  0.3521 -0.5186  0.2846
 2902TIP3    H1 8712   0.915   0.897   0.170 -0.6228 -0.6216  0.4656
 2902TIP3    H2 8713   1.002   0.877   0.292  0.8669 -0.2986 -0.5185
 2903TIP3   OH2 8714   3.967   5.255   2.612 -0.6580  0.6534  0.0816
 2903TIP3    H1 8715   3.921   5.217   2.687  0.4121 -0.5633  0.1585
 2903TIP3    H2 8716   4.038   5.307   2.651 -1.0049  1.2511 -0.0689
 2904TIP3   OH2 8717   2.652   5.100   0.807  0.1673  0.6321  0.3968
 2904TIP3    H1 8718   2.614   5.143   0.731  0.7019  1.6496  0.6849
 2904TIP3    H2 8719   2.644   5.007   0.788 -0.2484  0.8597 -0.6295
 2905TIP3   OH2 8720   2.863   1.818   1.371  0.4268  0.2697  0.6017
 2905TIP3    H1 8721   2.884   1.903   1.332 -1.0919  1.4717  2.1936
 2905TIP3    H2 8722   2.770   1.825   1.394  0.4656 -1.5313  1.5157
 2906TIP3   OH2 8723   3.918   1.309   0.162  0.4558 -0.2306 -0.3104
 2906TIP3    H1 8724   3.939   1.252   0.235  1.8367 -0.5476 -0.9267
 2906TIP3    H2 8725   3.831   1.280   0.132 -1.1242  1.2374  2.4365
 2907TIP3   OH2 8726   1.508   1.199   1.307 -0.3210  0.5792 -0.2742
 2907TIP3    H1 8727   1.508   1.119   1.360 -2.6980  1.4902  1.2721
 2907TIP3    H2 8728   1.574   1.255   1.347  0.0766  0.0957 -0.2418
 2908TIP3   OH2 8729   5.896   5.948   0.597 -0.3206  0.0559 -0.1731
 2908TIP3    H1 8730   5.981   5.915   0.625 -0.4773 -0.2245 -0.0231
 2908TIP3    H2 8731   5.878   6.023   0.655  0.8832  1.6116 -1.7158
 2909TIP3   OH2 8732   4.919   5.766   0.457 -0.3641  0.1882  0.5863
 2909TIP3    H1 8733   4.965   5.682   0.464 -0.3413  0.0851 -0.5272
 2909TIP3    H2 8734   4.829   5.742   0.434 -0.5610  0.4487  1.0793
 2910TIP3   OH2 8735   0.577   2.471   0.582 -0.0617  0.2392  0.2827
 2910TIP3    H1 8736   0.544   2.472   0.672 -0.4584 -1.1597  0.1841
 2910TIP3    H2 8737   0.525   2.403   0.539  1.4541 -0.4692 -0.4824
 2911TIP3   OH2 8738   0.319   1.625   4.097 -0.3501 -0.1883 -0.1214
 2911TIP3    H1 8739   0.232   1.657   4.073 -0.0923 -0.2455 -1.1813
 2911TIP3    H2 8740   0.379   1.685   4.053  0.1456 -0.7381 -0.1934
 2912TIP3   OH2 8741   2.585   5.688   5.138 -0.5857  0.3222  0.3003
 2912TIP3    H1 8742   2.554   5.634   5.066  0.2846 -0.6732  0.6541
 2912TIP3    H2 8743   2.634   5.759   5.095  0.4345 -0.5926 -0.0903
 2913TIP3   OH2 8744   2.467   1.181   2.372  0.2271  0.2923  0.1442
 2913TIP3    H1 8745   2.502   1.244   2.435 -0.6911  0.8863  0.0806
 2913TIP3    H2 8746   2.416   1.234   2.310  0.8662 -0.3091 -0.9450
 2914TIP3   OH2 8747   1.715   3.698   3.059 -0.1875  0.0825 -0.0833
 2914TIP3    H1 8748   1.627   3.685   3.094 -0.4226 -1.3723 -1.1218
 2914TIP3    H2 8749   1.708   3.779   3.008 -1.3636 -0.7571 -1.3509
 2915TIP3   OH2 8750   5.479   0.142   0.221 -0.4204  0.0586  0.2060
 2915TIP3    H1 8751   5.540   0.209   0.189 -0.5631  0.8122  1.4464
 2915TIP3    H2 8752   5.461   0.088   0.145  1.5791 -0.0139 -0.2869
 2916TIP3   OH2 8753   0.070   0.853   2.054  0.3759  0.6249  0.4942
 2916TIP3    H1 8754   0.043   0.922   1.992  0.2298 -0.3440 -0.5571
 2916TIP3    H2 8755   0.002   0.853   2.121 -1.1811 -0.3983 -1.0195
 2917TIP3   OH2 8756   5.665   0.999   2.561  0.3472 -0.1799  0.1420
 2917TIP3    H1 8757   5.698   1.079   2.602 -0.8728  1.6254 -2.1682
 2917TIP3    H2 8758   5.588   0.976   2.613 -0.1199  0.9949 -0.0111
 2918TIP3   OH2 8759   1.468   2.659   4.948 -0.1438  0.3452  0.3884
 2918TIP3    H1 8760   1.529   2.688   5.015 -0.2063  0.0995  0.5507
 2918TIP3    H2 8761   1.500   2.573   4.920 -0.4928  0.1504  0.5756
 2919TIP3   OH2 8762   1.461   3.941   3.988 -0.3266 -0.9313  0.6842
 2919TIP3    H1 8763   1.483   3.902   3.903 -2.8511  1.4157 -1.2338
 2919TIP3    H2 8764   1.467   4.035   3.973 -1.9958 -0.4169  2.7705
 2920TIP3   OH2 8765   2.036   2.735   0.022  0.4356  0.9415  0.0385
 2920TIP3    H1 8766   1.971   2.765  -0.042 -1.3534 -0.6029  1.0267
 2920TIP3    H2 8767   1.994   2.750   0.107  1.9567  1.1577  0.7824
 2921TIP3   OH2 8768   1.055   3.168   3.314  0.5695 -0.3501  0.0008
 2921TIP3    H1 8769   0.961   3.189   3.319  0.4253 -1.0172  0.1808
 2921TIP3    H2 8770   1.085   3.211   3.234 -0.2435 -1.4244 -0.9258
 2922TIP3   OH2 8771   1.237   1.648   1.602 -0.4682  0.2572  0.4717
 2922TIP3    H1 8772   1.168   1.690   1.552 -0.4964  0.3271  0.5682
 2922TIP3    H2 8773   1.235   1.692   1.687  0.9179  1.5866 -0.1241
 2923TIP3   OH2 8774   0.675   2.269   3.787 -0.2550 -0.3651 -0.6714
 2923TIP3    H1 8775   0.624   2.324   3.728 -0.1813  0.3243 -0.0971
 2923TIP3    H2 8776   0.728   2.330   3.838 -0.0265 -0.9751 -0.1617
 2924TIP3   OH2 8777   2.229   2.496   0.414  0.7641  0.1534  0.3786
 2924TIP3    H1 8778   2.209   2.488   0.320  2.8457 -0.1812 -0.0960
 2924TIP3    H2 8779   2.182   2.574   0.442 -1.4729 -0.8135 -0.4519
 2925TIP3   OH2 8780   5.025   3.172   4.705  0.1243 -0.1194  0.6693
 2925TIP3    H1 8781   5.083   3.109   4.661  1.1795  0.9456  0.4686
 2925TIP3    H2 8782   5.080   3.249   4.719 -1.5448  1.3548 -0.4877
 2926TIP3   OH2 8783   0.174   5.063   3.895  0.1644  0.3294  0.2024
 2926TIP3    H1 8784   0.199   5.025   3.980 -0.1314 -0.6237 -0.1328
 2926TIP3    H2 8785   0.255   5.099   3.861  0.4613 -0.0425  0.5051
 2927TIP3   OH2 8786   0.538   1.098   5.120 -0.4239 -0.1624  0.1707
 2927TIP3    H1 8787   0.474   1.170   5.121  0.3081  0.4999  0.5052
 2927TIP3    H2 8788   0.518   1.050   5.040 -1.2874  0.0794  0.2218
 2928TIP3   OH2 8789   4.318   5.885   4.950  1.2548  0.5494  0.7363
 2928TIP3    H1 8790   4.312   5.971   4.992 -0.1712  0.4700  0.7380
 2928TIP3    H2 8791   4.385   5.839   5.000  1.4881  1.3899  1.2201
 2929TIP3   OH2 8792   1.721   5.345   0.660  0.2022  0.3331  0.2743
 2929TIP3    H1 8793   1.765   5.400   0.596  2.4194 -1.2708  0.3139
 2929TIP3    H2 8794   1.663   5.289   0.607 -0.2449  1.0481 -0.0023
 2930TIP3   OH2 8795   5.217   3.721   0.895  0.0008  0.4953  0.0277
 2930TIP3    H1 8796   5.305   3.683   0.892 -0.1117  0.2226  0.1580
 2930TIP3    H2 8797   5.160   3.647   0.918 -0.3535  0.5153 -0.7756
 2931TIP3   OH2 8798   5.204   1.166   4.039  0.2654 -0.6111 -0.6954
 2931TIP3    H1 8799   5.253   1.205   4.112 -0.3718 -0.2510 -0.4443
 2931TIP3    H2 8800   5.264   1.103   4.000  0.3761 -1.3220  0.5795
 2932TIP3   OH2 8801   6.194   4.038   3.919 -0.1673 -0.1098 -0.1299
 2932TIP3    H1 8802   6.253   4.078   3.984  0.5353 -1.0074 -0.1837
 2932TIP3    H2 8803   6.144   3.974   3.970 -0.3889 -0.0447 -0.2695
 2933TIP3   OH2 8804   3.417   1.551   1.826  0.3315 -0.0950  0.1888
 2933TIP3    H1 8805   3.463   1.620   1.779 -1.1067 -0.3127 -1.6618
 2933TIP3    H2 8806   3.401   1.588   1.913  1.8704  0.8570  0.1045
 2934TIP3   OH2 8807   4.697   4.018   5.119 -0.3636 -0.4647  0.2072
 2934TIP3    H1 8808   4.711   3.982   5.207  0.7825  0.1894  0.3169
 2934TIP3    H2 8809   4.666   4.107   5.135  1.2418  0.1695 -0.0066
 2935TIP3   OH2 8810   2.363   2.889   2.137 -0.3837 -0.3293 -0.0115
 2935TIP3    H1 8811   2.403   2.814   2.093 -0.2177 -0.0627 -0.3194
 2935TIP3    H2 8812   2.269   2.873   2.130 -0.4806  0.8326 -2.5266
 2936TIP3   OH2 8813   0.150   1.202   1.540 -0.2730 -0.2710  0.2083
 2936TIP3    H1 8814   0.138   1.270   1.473 -0.1693 -1.0919 -0.6821
 2936TIP3    H2 8815   0.062   1.187   1.574 -0.5723 -0.8138 -0.7550
 2937TIP3   OH2 8816   1.401   3.588   4.913 -0.4943  0.3253  0.0973
 2937TIP3    H1 8817   1.434   3.500   4.893 -1.0690  0.1818 -0.2363
 2937TIP3    H2 8818   1.480   3.640   4.927 -0.1491 -0.3531  0.7819
 2938TIP3   OH2 8819   4.758   1.659   2.741  0.1035  0.4445  0.1724
 2938TIP3    H1 8820   4.743   1.753   2.749  0.7956  0.5939 -0.1499
 2938TIP3    H2 8821   4.718   1.634   2.657  0.8828  0.6810 -0.2871
 2939TIP3   OH2 8822   0.982   3.874   4.101  0.3494 -0.3778  0.2840
 2939TIP3    H1 8823   0.931   3.902   4.178 -0.1499 -0.6717  0.0627
 2939TIP3    H2 8824   1.000   3.955   4.054 -1.5936 -0.4443 -0.6641
 2940TIP3   OH2 8825   1.642   3.848   3.784  0.0717 -0.1568 -1.1585
 2940TIP3    H1 8826   1.698   3.909   3.736  0.2812 -0.0282 -0.7534
 2940TIP3    H2 8827   1.692   3.767   3.785  0.8214  0.2968  0.2798
 2941TIP3   OH2 8828   5.038   1.336   3.922 -0.1307 -0.2405 -0.2927
 2941TIP3    H1 8829   5.087   1.370   3.847  0.1805  0.5441  0.2486
 2941TIP3    H2 8830   5.089   1.260   3.951 -0.4918 -0.8104 -1.1359
 2942TIP3   OH2 8831   3.385   4.079   4.753 -0.1157  0.4417 -0.4174
 2942TIP3    H1 8832   3.302   4.063   4.798 -0.5218  1.1638 -0.8805
 2942TIP3    H2 8833   3.441   4.005   4.777 -1.2673 -0.6537 -0.9997
 2943TIP3   OH2 8834   0.945   2.062   2.938 -0.4339 -0.2451 -0.4263
 2943TIP3    H1 8835   0.964   2.068   2.845 -1.5698  0.2384 -0.6491
 2943TIP3    H2 8836   0.963   2.149   2.973  1.2725 -0.7765  0.0863
 2944TIP3   OH2 8837   4.523   2.982   4.654 -0.0681 -0.2678 -0.0110
 2944TIP3    H1 8838   4.599   2.925   4.664  2.0243  2.0486 -1.5125
 2944TIP3    H2 8839   4.498   2.974   4.562 -1.6207 -0.9022  0.4369
 2945TIP3   OH2 8840   1.784   4.246   0.825 -0.2411 -0.0543  0.1567
 2945TIP3    H1 8841   1.868   4.264   0.868 -0.0853 -0.4969  0.0434
 2945TIP3    H2 8842   1.774   4.315   0.760 -0.8544  1.0899  1.4288
 2946TIP3   OH2 8843   3.630   3.317   2.809  0.3313  0.1185  0.3028
 2946TIP3    H1 8844   3.605   3.369   2.733  1.8068  0.6918  0.1698
 2946TIP3    H2 8845   3.616   3.226   2.783 -2.4417  0.3640  0.5889
 2947TIP3   OH2 8846   0.321   2.440   0.097  0.5286  0.4157  0.6022
 2947TIP3    H1 8847   0.378   2.486   0.034  1.5146 -0.4349  0.8454
 2947TIP3    H2 8848   0.376   2.369   0.131  0.4660  1.5427  3.3254
 2948TIP3   OH2 8849   5.943   3.427   2.001 -0.5219 -0.7516 -0.8585
 2948TIP3    H1 8850   5.887   3.473   1.939 -0.3613  0.9856  0.2328
 2948TIP3    H2 8851   6.032   3.443   1.968 -0.4460  0.0398 -0.2918
 2949TIP3   OH2 8852   4.489   1.162   2.294 -0.3407 -0.9376 -0.0598
 2949TIP3    H1 8853   4.406   1.181   2.251 -1.0310  0.5699  1.7485
 2949TIP3    H2 8854   4.544   1.126   2.226 -1.9598 -0.4491 -1.7138
 2950TIP3   OH2 8855   4.194   4.290   1.867 -0.0579  0.5638  0.2452
 2950TIP3    H1 8856   4.127   4.231   1.834 -1.1641  1.5210  0.7067
 2950TIP3    H2 8857   4.277   4.251   1.839 -0.6853 -1.6745  1.2874
 2951TIP3   OH2 8858   1.030   3.754   1.167  0.1850  0.3845  0.3908
 2951TIP3    H1 8859   0.955   3.720   1.216  0.3430  1.8944  1.7468
 2951TIP3    H2 8860   1.050   3.838   1.208  0.8271  1.3776 -1.7972
 2952TIP3   OH2 8861   1.865   2.050   5.012  0.3193 -0.6288  0.5757
 2952TIP3    H1 8862   1.907   2.081   5.092  2.3065 -2.0190  0.1232
 2952TIP3    H2 8863   1.934   2.004   4.964 -0.5088  1.0617 -2.4818
 2953TIP3   OH2 8864   0.108   2.038   3.616 -0.4917  0.1304 -0.2208
 2953TIP3    H1 8865   0.049   1.967   3.641 -0.0181 -0.3005 -0.3138
 2953TIP3    H2 8866   0.057   2.089   3.553 -0.9784  0.1047  0.1398
 2954TIP3   OH2 8867   5.076   2.612   1.365 -0.5852  0.1301  0.0305
 2954TIP3    H1 8868   5.032   2.681   1.317 -1.2908 -0.5269 -0.3000
 2954TIP3    H2 8869   5.145   2.581   1.307  0.0474  0.8763  0.3763
 2955TIP3   OH2 8870   2.042   5.386   1.257 -0.2521  0.2950  0.5760
 2955TIP3    H1 8871   2.100   5.311   1.262  0.4309  0.8648  1.3492
 2955TIP3    H2 8872   1.960   5.356   1.298 -0.0963 -0.1333  0.5726
 2956TIP3   OH2 8873   0.669   1.696   2.224  0.7952  0.5665  0.7351
 2956TIP3    H1 8874   0.613   1.768   2.195  0.1080  0.0187  0.6676
 2956TIP3    H2 8875   0.723   1.675   2.147  0.3835  0.4353  0.4797
 2957TIP3   OH2 8876   5.292   3.983   1.353 -0.0419 -1.0094  0.3499
 2957TIP3    H1 8877   5.353   3.925   1.309 -0.5497 -0.9432 -0.4619
 2957TIP3    H2 8878   5.323   4.071   1.332 -0.2669 -0.9766  0.1613
 2958TIP3   OH2 8879   6.259   4.270   4.872  0.9071 -0.5061  0.1458
 2958TIP3    H1 8880   6.210   4.230   4.945  0.7135 -1.1273 -0.3124
 2958TIP3    H2 8881   6.202   4.259   4.796  0.3845  1.5902  0.1768
 2959TIP3   OH2 8882   1.755   5.874   1.598  0.3453  0.1377 -0.3671
 2959TIP3    H1 8883   1.837   5.895   1.553  0.3469 -0.6574 -0.7538
 2959TIP3    H2 8884   1.780   5.817   1.670 -0.0703 -2.1714 -1.9348
 2960TIP3   OH2 8885   3.348   0.395   0.906  0.4015 -0.5820  0.0471
 2960TIP3    H1 8886   3.404   0.473   0.909  2.2260 -1.6975 -2.0895
 2960TIP3    H2 8887   3.268   0.422   0.950  1.1272  2.3615 -0.2055
 2961TIP3   OH2 8888   0.653   2.698   1.964  0.4683 -0.8862  0.0100
 2961TIP3    H1 8889   0.736   2.650   1.962  0.2548 -1.2524 -1.2934
 2961TIP3    H2 8890   0.588   2.635   1.932 -0.3558 -0.6534  1.1536
 2962TIP3   OH2 8891   1.813   5.194   1.753  0.1525  0.2937 -0.4628
 2962TIP3    H1 8892   1.830   5.155   1.667  3.0790  1.5703 -0.5643
 2962TIP3    H2 8893   1.853   5.281   1.748  0.1410  0.5028  2.0952
 2963TIP3   OH2 8894   0.477   5.610   5.132  0.5326 -0.0356  0.9757
 2963TIP3    H1 8895   0.572   5.604   5.142  0.8129  1.3311 -0.5598
 2963TIP3    H2 8896   0.457   5.554   5.057  0.3832  1.0717  0.1720
 2964TIP3   OH2 8897   0.419   1.625   1.066  0.1870  0.6968 -0.1718
 2964TIP3    H1 8898   0.344   1.617   1.007  0.8530 -1.3931 -0.8307
 2964TIP3    H2 8899   0.493   1.641   1.008  0.7658 -0.8131  0.1073
 2965TIP3   OH2 8900   3.722   1.640   3.331 -0.5383 -0.4154 -0.1982
 2965TIP3    H1 8901   3.794   1.580   3.312  0.9016  0.6079  1.6526
 2965TIP3    H2 8902   3.751   1.688   3.409 -2.2321  1.6962 -0.7724
 2966TIP3   OH2 8903   1.704   3.310   4.709  0.7508 -0.0251  0.9952
 2966TIP3    H1 8904   1.653   3.390   4.701  2.8344  1.4017  1.2991
 2966TIP3    H2 8905   1.672   3.255   4.637  0.0369  1.5039  0.0798
 2967TIP3   OH2 8906   2.279   3.114   1.651 -0.1247  0.1533  0.1122
 2967TIP3    H1 8907   2.233   3.196   1.670  0.8967  1.1804 -1.5571
 2967TIP3    H2 8908   2.257   3.095   1.560  1.2554 -0.3101 -0.1506
 2968TIP3   OH2 8909   3.516   1.118   2.626 -0.2060 -0.5397  0.1687
 2968TIP3    H1 8910   3.568   1.179   2.677  2.4487 -1.7941 -0.8082
 2968TIP3    H2 8911   3.535   1.140   2.535 -1.2689 -1.1720 -0.2310
 2969TIP3   OH2 8912   2.082   1.093   4.905 -0.2329  0.1514  0.1156
 2969TIP3    H1 8913   2.002   1.125   4.862 -0.4210 -1.3335 -0.7123
 2969TIP3    H2 8914   2.142   1.168   4.903 -0.6726  0.5176 -1.6542
 2970TIP3   OH2 8915   2.183   0.855   4.109  0.3047 -0.1660 -0.5678
 2970TIP3    H1 8916   2.103   0.829   4.064 -0.0677 -1.4019  0.7461
 2970TIP3    H2 8917   2.154   0.920   4.173  0.7649  1.2549 -1.7487
 2971TIP3   OH2 8918   3.322   3.212   0.895  0.4151  0.0284  0.0468
 2971TIP3    H1 8919   3.315   3.145   0.963  0.7150 -0.5295 -0.4554
 2971TIP3    H2 8920   3.415   3.235   0.894  0.2715  0.6065  0.3676
 2972TIP3   OH2 8921   4.225   3.794   4.551 -0.4559  0.0636 -0.0336
 2972TIP3    H1 8922   4.295   3.839   4.504 -0.6558  2.2941  1.6396
 2972TIP3    H2 8923   4.150   3.799   4.492 -1.1308  4.1347  0.8431
 2973TIP3   OH2 8924   1.837   3.875   4.080  0.5856 -0.8384  0.2729
 2973TIP3    H1 8925   1.754   3.923   4.088  0.8892 -0.6318  2.8669
 2973TIP3    H2 8926   1.847   3.831   4.164  3.5823 -0.0655  0.4274
 2974TIP3   OH2 8927   4.375   1.000   3.964 -0.5961 -0.3726 -0.0380
 2974TIP3    H1 8928   4.280   0.994   3.962 -0.7399  1.4130 -0.4316
 2974TIP3    H2 8929   4.401   1.005   3.872 -0.2397  0.2676  0.0873
 2975TIP3   OH2 8930   2.698   5.440   0.780 -0.1191  0.0569 -0.4092
 2975TIP3    H1 8931   2.646   5.520   0.777  0.8254  0.7035 -0.1412
 2975TIP3    H2 8932   2.788   5.471   0.790  0.3773 -1.0016 -1.3560
 2976TIP3   OH2 8933   5.692   4.299   3.410  0.6898  0.6440 -0.1193
 2976TIP3    H1 8934   5.685   4.213   3.368  1.1269 -0.4410  1.9105
 2976TIP3    H2 8935   5.786   4.316   3.416  0.6050  1.2392 -0.4660
 2977TIP3   OH2 8936   0.188   0.034   0.800  0.3651  0.0003  0.2224
 2977TIP3    H1 8937   0.123   0.093   0.839 -0.4476 -0.8085  0.1319
 2977TIP3    H2 8938   0.148   0.007   0.717  1.2429  0.2259 -0.2857
 2978TIP3   OH2 8939   6.347   2.338   2.812 -0.6652  0.3685  0.2047
 2978TIP3    H1 8940   6.362   2.323   2.718 -2.0133 -0.0727  0.0356
 2978TIP3    H2 8941   6.334   2.250   2.848 -1.2674  0.6080  0.5912
 2979TIP3   OH2 8942   5.449   3.576   3.943  0.0840  0.1706 -0.0962
 2979TIP3    H1 8943   5.516   3.642   3.959 -0.3074 -0.0973  3.4867
 2979TIP3    H2 8944   5.372   3.607   3.990  0.0376 -2.9440  2.2383
 2980TIP3   OH2 8945   0.220   1.333   4.228 -0.4144 -0.4146 -0.0684
 2980TIP3    H1 8946   0.131   1.310   4.255 -0.5537 -1.0583 -1.0326
 2980TIP3    H2 8947   0.260   1.372   4.306 -1.3792 -0.5681  0.5132
 2981TIP3   OH2 8948   1.749   2.857   2.924 -0.5783  0.0924  0.0453
 2981TIP3    H1 8949   1.821   2.837   2.864 -0.9281 -1.5879  0.1359
 2981TIP3    H2 8950   1.674   2.810   2.888 -0.9722 -0.3610  1.3990
 2982TIP3   OH2 8951   3.499   5.368   2.838  0.1457  0.2540  0.8879
 2982TIP3    H1 8952   3.553   5.347   2.763 -2.0232 -0.9427 -0.4501
 2982TIP3    H2 8953   3.561   5.379   2.910  2.1794 -0.1422 -0.7110
 2983TIP3   OH2 8954   6.245   4.137   3.075  0.2376  0.1129 -0.2316
 2983TIP3    H1 8955   6.334   4.111   3.096  0.7962  1.2794 -1.0031
 2983TIP3    H2 8956   6.193   4.057   3.084  1.1052 -0.2880  1.5479
 2984TIP3   OH2 8957   0.412   5.223   2.470  0.3046  0.0606  0.1626
 2984TIP3    H1 8958   0.414   5.313   2.438 -0.4957  0.5060  1.3035
 2984TIP3    H2 8959   0.368   5.229   2.555 -0.3041 -1.4906 -0.0168
 2985TIP3   OH2 8960   2.927   0.390   0.733  0.0283 -0.2798  0.0278
 2985TIP3    H1 8961   2.908   0.382   0.640  1.8904  0.5533 -0.4614
 2985TIP3    H2 8962   2.996   0.326   0.750 -1.4836 -1.7030  1.2807
 2986TIP3   OH2 8963   5.159   2.365   0.313 -0.1143 -0.0351 -0.4711
 2986TIP3    H1 8964   5.232   2.325   0.266  0.6795  0.3100  0.4171
 2986TIP3    H2 8965   5.081   2.333   0.269  0.5423 -1.3420 -0.7371
 2987TIP3   OH2 8966   1.265   4.790   0.680 -0.0959  0.2198 -0.3632
 2987TIP3    H1 8967   1.210   4.846   0.625  0.7082  1.4389  0.0339
 2987TIP3    H2 8968   1.215   4.708   0.688 -0.5492  0.2670 -2.2941
 2988TIP3   OH2 8969   3.124   5.223   3.228 -0.1420  0.0037 -0.5096
 2988TIP3    H1 8970   3.109   5.223   3.323  0.6270  2.9461 -0.2841
 2988TIP3    H2 8971   3.039   5.244   3.190 -0.4397 -1.1236 -0.4878
 2989TIP3   OH2 8972   1.513   0.465   1.428  0.0859  0.0607 -0.3205
 2989TIP3    H1 8973   1.571   0.517   1.484 -0.9678 -0.2340  1.0898
 2989TIP3    H2 8974   1.560   0.458   1.345  1.2601  1.3296  0.2057
 2990TIP3   OH2 8975   2.893   0.862   4.234 -0.0337 -0.2911  0.0665
 2990TIP3    H1 8976   2.809   0.827   4.265 -0.6175  0.6292 -0.4425
 2990TIP3    H2 8977   2.933   0.789   4.187  0.0064 -1.1141  1.3109
 2991TIP3   OH2 8978   2.380   0.828   1.808 -0.6098  0.1153 -0.1368
 2991TIP3    H1 8979   2.454   0.771   1.788 -0.3321 -0.4142  2.1459
 2991TIP3    H2 8980   2.328   0.829   1.728  0.1126 -2.2221 -0.7085
 2992TIP3   OH2 8981   1.837   3.225   2.040  0.1534  0.0478 -0.1498
 2992TIP3    H1 8982   1.788   3.254   2.117  0.5551 -0.2124  0.2055
 2992TIP3    H2 8983   1.928   3.250   2.058 -0.0857  2.3188 -1.6622
 2993TIP3   OH2 8984   4.999   4.476   4.636  0.0615  0.0820 -0.6384
 2993TIP3    H1 8985   5.023   4.385   4.657  0.6121 -0.3019 -2.7133
 2993TIP3    H2 8986   5.061   4.529   4.687  0.3154 -0.7304 -0.0806
 2994TIP3   OH2 8987   2.343   0.041   1.404  0.1279  0.1082  0.3918
 2994TIP3    H1 8988   2.272   0.017   1.344  1.8692  0.6921 -2.0526
 2994TIP3    H2 8989   2.385  -0.042   1.427  0.0597 -0.0345 -0.0005
 2995TIP3   OH2 8990   3.263   3.609   5.008  0.0742  0.3143 -0.2603
 2995TIP3    H1 8991   3.321   3.534   4.992  0.8208  1.1893 -1.8834
 2995TIP3    H2 8992   3.249   3.608   5.102  0.1384 -1.8109 -0.2210
 2996TIP3   OH2 8993   2.611   3.738   2.221 -0.5525  0.1105  0.5240
 2996TIP3    H1 8994   2.639   3.656   2.181  0.1342  0.3734  0.4564
 2996TIP3    H2 8995   2.518   3.747   2.197 -0.2344  0.1141 -0.7575
 2997TIP3   OH2 8996   2.216   5.188   2.582 -0.7529  0.4479  0.0645
 2997TIP3    H1 8997   2.303   5.206   2.547 -0.0484 -1.0965  0.9554
 2997TIP3    H2 8998   2.170   5.144   2.511 -0.4562  0.3112 -0.0418
 2998TIP3   OH2 8999   3.698   2.585   3.035 -0.2027 -0.1931  0.1009
 2998TIP3    H1 9000   3.719   2.537   3.115 -1.7243  1.1492  1.3664
 2998TIP3    H2 9001   3.775   2.571   2.979  0.2687 -2.3811  1.1726
 2999TIP3   OH2 9002   5.164   4.137   3.426 -0.2790  0.0818 -0.3708
 2999TIP3    H1 9003   5.206   4.055   3.398 -1.0757 -0.3023 -0.4957
 2999TIP3    H2 9004   5.165   4.133   3.521 -0.1692 -0.0006 -0.3751
 3000TIP3   OH2 9005   0.618   3.506   4.905 -0.0603  0.4714 -0.6087
 3000TIP3    H1 9006   0.615   3.550   4.990  1.1846  0.9812 -0.8091
 3000TIP3    H2 9007   0.641   3.575   4.843  0.7569 -0.2258 -1.1075
 3001TIP3   OH2 9008   3.005   2.138   4.980  0.0906 -0.2688  0.5832
 3001TIP3    H1 9009   2.992   2.085   4.902 -1.6683  1.2402 -0.2363
 3001TIP3    H2 9010   3.089   2.181   4.966  1.6626 -2.8662  1.3649
 3002TIP3   OH2 9011   2.037   0.112   2.226  0.3766  0.2529  0.3358
 3002TIP3    H1 9012   1.996   0.039   2.272  1.3265 -0.2695  0.3717
 3002TIP3    H2 9013   2.001   0.190   2.267 -0.7231 -0.1834  0.2377
 3003TIP3   OH2 9014   4.790   2.282   2.177  0.2602 -0.0670  0.0310
 3003TIP3    H1 9015   4.720   2.343   2.197  0.8243  1.0113 -1.1042
 3003TIP3    H2 9016   4.755   2.228   2.105  1.0384  1.4344 -1.5545
 3004TIP3   OH2 9017   1.217   5.891   4.843 -0.1302  0.0998  0.0469
 3004TIP3    H1 9018   1.250   5.970   4.801 -2.0227 -0.1604 -2.1046
 3004TIP3    H2 9019   1.211   5.827   4.772  0.0637 -1.5768  1.4732
 3005TIP3   OH2 9020   1.053   0.164   0.742 -0.3852  0.1788 -0.8455
 3005TIP3    H1 9021   1.045   0.114   0.824 -0.7728  1.3421 -0.1529
 3005TIP3    H2 9022   0.984   0.129   0.686 -0.4803 -0.2497 -0.4677
 3006TIP3   OH2 9023   2.830   5.944   0.125  0.1979  0.2118 -0.6269
 3006TIP3    H1 9024   2.828   6.026   0.174 -1.5920  0.8440 -1.6518
 3006TIP3    H2 9025   2.837   5.876   0.192 -0.9441  1.0959  0.4278
 3007TIP3   OH2 9026   1.781   2.983   4.446  0.6388  0.2793  0.4758
 3007TIP3    H1 9027   1.787   2.939   4.531 -0.9114  1.7457  1.4243
 3007TIP3    H2 9028   1.706   3.042   4.455  0.5694  0.6582 -1.8550
 3008TIP3   OH2 9029   0.582   2.134   2.697  0.0538  0.5536  0.0254
 3008TIP3    H1 9030   0.499   2.088   2.687 -0.2540  1.0945  0.0356
 3008TIP3    H2 9031   0.646   2.079   2.653 -0.1481 -0.3241  0.7946
 3009TIP3   OH2 9032   5.738   0.244   1.603  0.2984 -0.4707 -0.1912
 3009TIP3    H1 9033   5.786   0.311   1.651  0.6236 -1.3500  0.7542
 3009TIP3    H2 9034   5.805   0.190   1.562  0.0814 -0.9260  0.0461
 3010TIP3   OH2 9035   2.679   1.200   0.640  0.5690  0.2957 -0.3786
 3010TIP3    H1 9036   2.702   1.287   0.672  0.5130  0.4064 -0.6337
 3010TIP3    H2 9037   2.748   1.143   0.674  0.5288  0.4170 -0.0945
 3011TIP3   OH2 9038   5.413   5.680   4.925  0.2210 -0.2457  0.2146
 3011TIP3    H1 9039   5.362   5.656   4.847 -0.3788 -3.0257  1.3379
 3011TIP3    H2 9040   5.349   5.720   4.984  0.0235 -0.8521  0.4137
 3012TIP3   OH2 9041   3.508   3.438   3.049  0.4512  0.0121 -0.3304
 3012TIP3    H1 9042   3.430   3.429   2.994 -0.5093  1.1442  0.7834
 3012TIP3    H2 9043   3.579   3.453   2.987 -0.1068 -1.5489 -1.4049
 3013TIP3   OH2 9044   2.129   3.168   0.323 -0.5731  0.4481 -0.2927
 3013TIP3    H1 9045   2.101   3.078   0.304 -0.6402  0.0391  1.5527
 3013TIP3    H2 9046   2.192   3.159   0.394 -0.9509  1.9056  0.2636
 3014TIP3   OH2 9047   5.197   0.111   5.141 -0.1939  0.1950 -0.4609
 3014TIP3    H1 9048   5.137   0.160   5.197  0.1189 -1.0194  0.9850
 3014TIP3    H2 9049   5.184   0.148   5.054 -2.8731  0.1247 -0.1582
 3015TIP3   OH2 9050   3.794   3.470   2.079  0.2045 -0.1356  0.1421
 3015TIP3    H1 9051   3.876   3.503   2.117  0.5077 -0.9663  0.2239
 3015TIP3    H2 9052   3.819   3.387   2.038 -0.4715 -0.0804 -0.3898
 3016TIP3   OH2 9053   1.845   5.817   4.122 -0.5316 -0.3160  0.2587
 3016TIP3    H1 9054   1.772   5.763   4.152 -0.7260  1.4469  3.3799
 3016TIP3    H2 9055   1.803   5.893   4.082 -0.3538 -0.4459 -0.1760
 3017TIP3   OH2 9056   0.856   4.154   0.750 -0.1030  0.3980  0.3735
 3017TIP3    H1 9057   0.789   4.170   0.816 -2.5656  0.8783 -2.0701
 3017TIP3    H2 9058   0.866   4.238   0.705  0.6234 -0.2025 -0.6390
 3018TIP3   OH2 9059   0.822   1.976   2.675  0.4601 -0.3072 -0.0775
 3018TIP3    H1 9060   0.807   1.888   2.640 -0.8463 -0.5679  1.0442
 3018TIP3    H2 9061   0.916   1.990   2.667  0.2422  0.0905 -4.6393
 3019TIP3   OH2 9062   2.959   3.717   1.655 -0.3551  0.1007  0.2126
 3019TIP3    H1 9063   3.045   3.684   1.629 -0.1452  1.5210 -1.0603
 3019TIP3    H2 9064   2.935   3.778   1.585 -2.0555  0.3206  0.9377
 3020TIP3   OH2 9065   0.268   5.919   1.977  0.5659 -0.1923 -0.0209
 3020TIP3    H1 9066   0.237   5.986   1.917  1.3673 -0.8321 -1.1759
 3020TIP3    H2 9067   0.261   5.959   2.064  0.1230  1.0214 -0.6050
 3021TIP3   OH2 9068   5.317   1.538   0.353 -0.3639  0.0683 -0.3032
 3021TIP3    H1 9069   5.232   1.560   0.392 -0.1010 -0.2069  0.4378
 3021TIP3    H2 9070   5.371   1.509   0.427 -0.0997 -1.2173 -0.9747
 3022TIP3   OH2 9071   3.388   4.131   2.193 -0.0130  0.4257 -0.0012
 3022TIP3    H1 9072   3.427   4.125   2.106 -2.3792  1.1558 -1.2084
 3022TIP3    H2 9073   3.373   4.040   2.218 -0.9659  0.2220 -1.2070
 3023TIP3   OH2 9074   5.671   3.397   1.293 -0.2119  0.0479 -0.1261
 3023TIP3    H1 9075   5.606   3.347   1.244  0.7563 -2.1394  0.7062
 3023TIP3    H2 9076   5.640   3.395   1.383 -0.0850  0.8793 -0.0514
 3024TIP3   OH2 9077   3.894   4.172   0.754  0.0071 -0.1789  0.2055
 3024TIP3    H1 9078   3.863   4.180   0.844  0.3401 -0.0842  0.3146
 3024TIP3    H2 9079   3.986   4.146   0.762 -0.0562 -0.5126 -0.1121
 3025TIP3   OH2 9080   3.988   3.889   3.822  0.0472  0.2815  0.1742
 3025TIP3    H1 9081   3.915   3.938   3.859 -0.3477 -0.4131  0.3292
 3025TIP3    H2 9082   4.003   3.929   3.737 -1.1973 -0.2130 -0.3116
 3026TIP3   OH2 9083   5.635   2.469   1.420  0.1104 -0.0544  0.2325
 3026TIP3    H1 9084   5.613   2.376   1.418  0.8194 -0.3756 -4.3219
 3026TIP3    H2 9085   5.717   2.474   1.469 -0.5238 -1.6063  1.5177
 3027TIP3   OH2 9086   4.897   5.737   1.317 -0.6142  0.3010  0.1537
 3027TIP3    H1 9087   4.933   5.668   1.261  1.3841 -0.6522  2.4537
 3027TIP3    H2 9088   4.911   5.817   1.268 -0.2875 -0.6218 -1.3304
 3028TIP3   OH2 9089   5.733   5.289   1.351 -0.7913  0.4566 -0.4787
 3028TIP3    H1 9090   5.677   5.276   1.274 -2.0269  2.3391  0.0250
 3028TIP3    H2 9091   5.822   5.285   1.317 -1.2201 -1.5098 -1.4976
 3029TIP3   OH2 9092   5.791   2.380   2.866 -0.2115  0.4702  0.5222
 3029TIP3    H1 9093   5.776   2.301   2.917 -0.0377  1.1469  1.6504
 3029TIP3    H2 9094   5.883   2.375   2.840 -0.5209 -0.2888 -0.4694
 3030TIP3   OH2 9095   4.694   5.095   5.077  0.3317  0.0249  0.1444
 3030TIP3    H1 9096   4.636   5.033   5.032  0.4621 -0.3117  0.4337
 3030TIP3    H2 9097   4.771   5.044   5.100 -0.1107 -0.0552  1.5534
 3031TIP3   OH2 9098   5.177   2.416   5.072  0.3130  0.1103  0.4205
 3031TIP3    H1 9099   5.245   2.369   5.121  0.1343 -0.3593  0.2213
 3031TIP3    H2 9100   5.096   2.369   5.093  0.0523  0.6444  0.6258
 3032TIP3   OH2 9101   5.020   0.849   4.487 -0.3734  0.0337 -0.1232
 3032TIP3    H1 9102   4.955   0.898   4.538 -1.4533 -0.0568 -1.3774
 3032TIP3    H2 9103   5.092   0.835   4.549 -0.2580  2.6792  0.4640
 3033TIP3   OH2 9104   0.119   4.281   1.446 -0.1181  0.2780  0.1407
 3033TIP3    H1 9105   0.108   4.271   1.351 -2.5852 -0.8406  0.4849
 3033TIP3    H2 9106   0.055   4.346   1.471 -0.1565 -0.1435  1.1766
 3034TIP3   OH2 9107   3.012   1.102   3.518  0.4334 -0.0909 -0.5790
 3034TIP3    H1 9108   2.988   1.191   3.492  0.6221  0.0539 -0.2724
 3034TIP3    H2 9109   3.103   1.093   3.490  0.2874 -0.3424 -0.9920
 3035TIP3   OH2 9110   5.202   2.181   4.249  0.6159  0.0771 -0.4975
 3035TIP3    H1 9111   5.115   2.140   4.246  0.1249  1.0478 -0.0776
 3035TIP3    H2 9112   5.236   2.172   4.160 -0.1403  0.1508 -0.8011
 3036TIP3   OH2 9113   4.033   4.141   1.695  0.0955 -0.5427 -0.1360
 3036TIP3    H1 9114   3.988   4.058   1.678 -1.6400  0.1596  0.8083
 3036TIP3    H2 9115   3.975   4.208   1.660  0.4742  0.3883  0.9393
 3037TIP3   OH2 9116   4.993   1.361   4.802  0.5039 -0.1097 -0.1402
 3037TIP3    H1 9117   4.942   1.300   4.748 -0.7257  1.0578 -0.3497
 3037TIP3    H2 9118   4.940   1.441   4.804  1.7758  0.7427  0.6553
 3038TIP3   OH2 9119   6.010   3.097   4.006  0.3688  0.2943  0.0165
 3038TIP3    H1 9120   6.093   3.125   4.046 -0.3090  1.6579  0.5311
 3038TIP3    H2 9121   5.943   3.146   4.053 -0.7229 -0.5531 -0.6060
 3039TIP3   OH2 9122   1.792   1.234   2.867  0.1744 -0.4154  0.2227
 3039TIP3    H1 9123   1.823   1.216   2.778 -0.5085  1.9298 -0.5851
 3039TIP3    H2 9124   1.733   1.162   2.887  0.9186 -1.3819 -0.9371
 3040TIP3   OH2 9125   3.826   3.192   1.992 -0.3443 -0.1025  0.1341
 3040TIP3    H1 9126   3.759   3.125   1.984 -0.8881  0.3361  0.9359
 3040TIP3    H2 9127   3.866   3.195   1.905 -0.8928 -0.8511 -0.1577
 3041TIP3   OH2 9128   1.700   5.174   2.623  0.1805 -0.4678 -0.5805
 3041TIP3    H1 9129   1.713   5.118   2.699 -0.3287  0.5559  0.2773
 3041TIP3    H2 9130   1.663   5.255   2.658 -0.2840 -0.0630 -1.9456
 3042TIP3   OH2 9131   5.006   0.715   3.777 -0.0817  0.1119 -0.2653
 3042TIP3    H1 9132   5.022   0.795   3.827  1.3663  0.3409 -1.0642
 3042TIP3    H2 9133   5.035   0.644   3.835 -0.4711  0.2259  0.0708
 3043TIP3   OH2 9134   5.941   3.814   2.804 -0.2078 -0.1223 -0.4389
 3043TIP3    H1 9135   5.921   3.728   2.770 -0.3192  0.8477 -3.0198
 3043TIP3    H2 9136   6.006   3.850   2.743  1.0390  1.0354  1.4607
 3044TIP3   OH2 9137   3.486   0.958   1.881  0.6212  0.0109  0.2236
 3044TIP3    H1 9138   3.472   0.871   1.842  0.0052  0.2936 -0.2117
 3044TIP3    H2 9139   3.413   1.011   1.848  1.0918  0.7463  0.3386
 3045TIP3   OH2 9140   5.434   4.769   4.741 -0.4507 -0.6284  0.3587
 3045TIP3    H1 9141   5.461   4.857   4.713 -0.4210 -0.2019  1.6489
 3045TIP3    H2 9142   5.467   4.711   4.673  0.3895  0.2638 -0.0267
 3046TIP3   OH2 9143   3.241   3.011   4.878  0.6115 -0.7283  0.4076
 3046TIP3    H1 9144   3.247   2.940   4.942  0.3262  0.8768  2.3113
 3046TIP3    H2 9145   3.164   3.060   4.904 -0.4073 -0.8333 -2.1413
 3047TIP3   OH2 9146   1.057   2.538   3.076  0.0074 -0.1029 -0.6093
 3047TIP3    H1 9147   1.022   2.548   3.164 -0.3125 -0.4969 -0.6858
 3047TIP3    H2 9148   1.148   2.514   3.088  0.0104  0.0188 -0.3897
 3048TIP3   OH2 9149   2.973   5.274   1.919  0.1145  0.0035  0.9013
 3048TIP3    H1 9150   2.949   5.183   1.904 -0.1038 -0.1080  1.8685
 3048TIP3    H2 9151   2.926   5.323   1.852  1.4051 -0.7240 -0.5908
 3049TIP3   OH2 9152   1.371   1.601   2.170  0.1770  0.1891 -0.3100
 3049TIP3    H1 9153   1.359   1.529   2.107  0.0712  1.7003 -2.1096
 3049TIP3    H2 9154   1.318   1.576   2.245  0.6855 -1.9262 -0.5797
 3050TIP3   OH2 9155   2.886   1.230   4.591  0.3493  0.1854 -1.0254
 3050TIP3    H1 9156   2.887   1.134   4.593  0.3094  0.1575 -1.9649
 3050TIP3    H2 9157   2.848   1.252   4.506  2.0689  1.0374 -1.6088
 3051TIP3   OH2 9158   2.854   1.995   4.356  0.3880 -0.0170 -0.4492
 3051TIP3    H1 9159   2.807   2.008   4.273  0.6713  0.0677 -0.5981
 3051TIP3    H2 9160   2.788   2.008   4.423  0.0327 -0.6098 -0.6738
 3052TIP3   OH2 9161   2.677   3.573   4.528  0.4916  0.0316  0.7720
 3052TIP3    H1 9162   2.616   3.533   4.465  1.6611 -2.6140  1.1628
 3052TIP3    H2 9163   2.621   3.607   4.598 -0.7201  1.3995 -0.7945
 3053TIP3   OH2 9164   6.176   4.053   2.229  0.2975 -0.2467 -0.2784
 3053TIP3    H1 9165   6.129   4.111   2.288 -1.1733 -0.4560 -1.2029
 3053TIP3    H2 9166   6.117   3.979   2.214  0.0133  0.3848 -2.9576
 3054TIP3   OH2 9167   0.049   4.444   0.378  0.3744  0.0119  0.1331
 3054TIP3    H1 9168   0.061   4.409   0.290 -1.1667 -0.2756  0.0126
 3054TIP3    H2 9169   0.016   4.370   0.429  2.1051 -0.0851  1.2291
 3055TIP3   OH2 9170   3.425   2.097   1.358 -0.4313  0.1734  0.2776
 3055TIP3    H1 9171   3.484   2.161   1.317 -2.3336  0.7991 -1.6578
 3055TIP3    H2 9172   3.402   2.037   1.288 -1.5478 -0.4783  1.1705
 3056TIP3   OH2 9173   4.441   1.436   4.696  0.2598 -0.0783 -0.2355
 3056TIP3    H1 9174   4.488   1.457   4.615  1.0109 -0.1157  0.1879
 3056TIP3    H2 9175   4.504   1.388   4.749  0.2781  1.1932  0.9657
 3057TIP3   OH2 9176   2.034   2.420   5.023  0.2968  0.8848 -0.0080
 3057TIP3    H1 9177   2.096   2.357   4.986  0.1463  1.1563 -0.7383
 3057TIP3    H2 9178   2.086   2.468   5.088  0.7399  0.8212 -0.3070
 3058TIP3   OH2 9179   4.836   0.426   2.337 -0.1800  0.2702  0.3384
 3058TIP3    H1 9180   4.770   0.412   2.405  0.7157  0.3246  1.2397
 3058TIP3    H2 9181   4.856   0.339   2.304 -0.0519  0.1661  0.6925
 3059TIP3   OH2 9182   0.794   2.608   1.669 -0.0954  0.3733 -0.2105
 3059TIP3    H1 9183   0.839   2.678   1.717  2.0023  0.1192 -1.6882
 3059TIP3    H2 9184   0.821   2.527   1.714 -0.3731  0.3233 -0.1314
 3060TIP3   OH2 9185   4.282   3.010   3.341  0.1238  0.0099 -1.1223
 3060TIP3    H1 9186   4.283   3.055   3.426  1.2112 -2.0548  0.0329
 3060TIP3    H2 9187   4.327   3.070   3.282  0.4838  0.9595  0.0651
 3061TIP3   OH2 9188   4.370   3.358   3.395  0.3540 -0.2885  0.1607
 3061TIP3    H1 9189   4.328   3.307   3.465  1.1302 -0.1943  0.7047
 3061TIP3    H2 9190   4.455   3.382   3.431  1.4879 -1.6652 -1.4436
 3062TIP3   OH2 9191   6.140   3.355   3.166 -0.2264 -0.2193  0.6787
 3062TIP3    H1 9192   6.196   3.394   3.233 -0.1973 -0.2862  0.6930
 3062TIP3    H2 9193   6.185   3.374   3.083  0.1728 -0.8731  0.7405
 3063TIP3   OH2 9194   2.360   5.510   1.299 -0.5788 -0.7338 -0.2947
 3063TIP3    H1 9195   2.301   5.505   1.375  0.3796  0.7054  0.5897
 3063TIP3    H2 9196   2.426   5.442   1.316 -1.4519 -1.7511 -0.8504
 3064TIP3   OH2 9197   5.309   3.817   2.942 -0.0365 -0.1984 -0.2403
 3064TIP3    H1 9198   5.216   3.815   2.918 -0.0136 -2.7961 -0.4258
 3064TIP3    H2 9199   5.310   3.828   3.037 -0.7436 -2.9905  0.1782
 3065TIP3   OH2 9200   6.215   4.952   3.864 -0.4800  0.6719 -0.5262
 3065TIP3    H1 9201   6.210   5.048   3.873  0.9340  0.7358 -0.1952
 3065TIP3    H2 9202   6.306   4.935   3.841 -0.4954 -0.6660  0.2941
 3066TIP3   OH2 9203   3.304   3.525   0.182  0.1303 -0.3917 -0.9299
 3066TIP3    H1 9204   3.344   3.461   0.124 -0.1926 -1.7788  0.3043
 3066TIP3    H2 9205   3.378   3.573   0.220  0.4555 -0.8249 -1.0083
 3067TIP3   OH2 9206   0.455   1.363   4.083  0.1492  0.0213  0.0260
 3067TIP3    H1 9207   0.380   1.327   4.131 -0.5452  0.0556 -0.9888
 3067TIP3    H2 9208   0.418   1.389   3.998  1.6952 -2.0046 -1.3762
 3068TIP3   OH2 9209   1.981   1.117   0.268  0.3752  0.0377 -0.1328
 3068TIP3    H1 9210   1.981   1.057   0.343 -0.2658 -0.3553 -0.4462
 3068TIP3    H2 9211   1.971   1.061   0.192  1.8931  0.3610 -0.6024
 3069TIP3   OH2 9212   3.198   5.675   2.153  0.0239  0.2901  0.4367
 3069TIP3    H1 9213   3.206   5.681   2.057  1.8433 -1.8027  0.3918
 3069TIP3    H2 9214   3.154   5.592   2.169  2.2241 -0.7511  1.4269
 3070TIP3   OH2 9215   4.017   2.435   4.524  0.5559  0.5705 -0.7115
 3070TIP3    H1 9216   3.978   2.364   4.575 -0.7483  1.9186  0.2589
 3070TIP3    H2 9217   4.109   2.435   4.549  0.0675  0.8426  1.2710
 3071TIP3   OH2 9218   3.479   0.540   2.537 -0.0556 -0.0021 -0.3873
 3071TIP3    H1 9219   3.437   0.504   2.459  0.2203 -0.2053 -0.4442
 3071TIP3    H2 9220   3.437   0.625   2.550  0.3509  0.3272 -1.1367
 3072TIP3   OH2 9221   0.045   4.482   4.067 -0.3390  0.4089 -0.2214
 3072TIP3    H1 9222  -0.022   4.540   4.031  1.2226  1.4898 -1.6020
 3072TIP3    H2 9223   0.070   4.524   4.149 -1.4686 -0.1187  0.4080
 3073TIP3   OH2 9224   5.981   5.484   1.096 -0.0126 -0.1328  0.3428
 3073TIP3    H1 9225   5.974   5.447   1.008  2.4592 -2.3148  0.9105
 3073TIP3    H2 9226   6.000   5.408   1.152  0.4247  1.4221  2.4331
 3074TIP3   OH2 9227   0.602   0.602   0.308  0.2917  0.1421 -0.2457
 3074TIP3    H1 9228   0.665   0.661   0.350 -1.5553  1.1844  1.1999
 3074TIP3    H2 9229   0.615   0.617   0.214 -0.5732  3.5011  0.0345
 3075TIP3   OH2 9230   2.726   2.777   1.679  0.2188 -0.3534 -0.1263
 3075TIP3    H1 9231   2.681   2.846   1.728 -0.6239  0.6711 -2.2012
 3075TIP3    H2 9232   2.657   2.737   1.626  0.8332 -2.3549  0.4988
 3076TIP3   OH2 9233   1.974   2.454   2.621  0.1388 -0.1290 -0.2487
 3076TIP3    H1 9234   2.045   2.478   2.561 -0.8564  2.2088 -0.6065
 3076TIP3    H2 9235   1.924   2.388   2.573  0.5734  0.1376 -1.0973
 3077TIP3   OH2 9236   4.945   5.805   2.305 -0.3150  0.6873 -0.4634
 3077TIP3    H1 9237   4.925   5.799   2.211 -1.8600 -2.4514 -0.0798
 3077TIP3    H2 9238   4.870   5.763   2.348  1.7491 -0.7761  1.9774
 3078TIP3   OH2 9239   6.256   3.396   3.779  0.2736 -0.0402 -0.0604
 3078TIP3    H1 9240   6.202   3.437   3.712  1.4634  1.0983 -0.3664
 3078TIP3    H2 9241   6.323   3.348   3.730  0.5684 -0.0039  0.3026
 3079TIP3   OH2 9242   2.132  -0.031   4.478 -1.1790 -0.1336  0.4241
 3079TIP3    H1 9243   2.151  -0.016   4.570  1.2631  1.4031 -0.2249
 3079TIP3    H2 9244   2.134   0.056   4.439 -0.6007 -0.8748 -1.3155
 3080TIP3   OH2 9245   5.610   2.537   0.724 -0.0167 -0.4219 -0.6830
 3080TIP3    H1 9246   5.705   2.546   0.724  0.0201 -0.7270 -1.2795
 3080TIP3    H2 9247   5.592   2.475   0.653 -0.8680  2.1570 -2.8853
 3081TIP3   OH2 9248   4.993   4.039   4.151 -0.2915  0.7301  0.6377
 3081TIP3    H1 9249   5.019   4.123   4.190 -1.5490  0.6495  1.7258
 3081TIP3    H2 9250   4.903   4.053   4.122 -0.2236  0.0016  0.0638
 3082TIP3   OH2 9251   2.653   2.957   0.001  0.2363  0.5726  0.0523
 3082TIP3    H1 9252   2.694   3.044   0.000  1.5070  0.0399 -1.9180
 3082TIP3    H2 9253   2.564   2.972   0.032  1.0741  2.2207  1.8466
 3083TIP3   OH2 9254   3.201   4.340   3.303  0.3359  0.3883  0.2434
 3083TIP3    H1 9255   3.176   4.331   3.211 -0.1347  0.1488  0.3902
 3083TIP3    H2 9256   3.121   4.320   3.352  1.2607 -2.2694  0.7951
 3084TIP3   OH2 9257   4.865   0.091   2.890  0.0918  0.2394 -0.0577
 3084TIP3    H1 9258   4.859   0.050   2.804  1.7350  1.9197 -1.0506
 3084TIP3    H2 9259   4.956   0.077   2.917 -0.4838 -0.5828  1.6139
 3085TIP3   OH2 9260   0.873   2.707   2.251 -0.1352  0.2856 -0.4419
 3085TIP3    H1 9261   0.901   2.719   2.342 -0.6700 -0.3359 -0.1878
 3085TIP3    H2 9262   0.779   2.694   2.257 -0.3471  1.3707 -1.1951
 3086TIP3   OH2 9263   1.122   2.904   4.669 -0.1324  0.4766  0.3008
 3086TIP3    H1 9264   1.049   2.966   4.667 -1.2931 -0.8537 -1.2449
 3086TIP3    H2 9265   1.157   2.904   4.580 -0.8821 -1.8326 -0.0654
 3087TIP3   OH2 9266   0.471   2.404   4.989 -0.1284 -0.1975 -0.3640
 3087TIP3    H1 9267   0.426   2.435   4.910  0.6708  0.5793 -0.5254
 3087TIP3    H2 9268   0.409   2.421   5.060 -0.5302 -0.1556 -0.7219
 3088TIP3   OH2 9269   5.897   1.190   0.716 -0.2470  0.2647  0.2553
 3088TIP3    H1 9270   5.887   1.107   0.763  1.8467  0.4404  1.1409
 3088TIP3    H2 9271   5.985   1.185   0.677 -0.2008  1.9168  0.0640
 3089TIP3   OH2 9272   5.948   1.576   2.297  0.5690 -0.6242  0.0174
 3089TIP3    H1 9273   6.037   1.547   2.317  0.8786  0.9581  1.1651
 3089TIP3    H2 9274   5.957   1.627   2.217  0.7556 -0.2438  0.2770
 3090TIP3   OH2 9275   4.104   4.617   4.437  0.4751  0.1687  0.2889
 3090TIP3    H1 9276   4.169   4.547   4.446 -0.3942 -0.6594  0.2257
 3090TIP3    H2 9277   4.051   4.612   4.517 -1.4569 -1.2160 -0.9922
 3091TIP3   OH2 9278   3.630   2.382   5.021 -0.1609  0.0187  0.3498
 3091TIP3    H1 9279   3.606   2.292   5.002 -0.0282  0.4270 -2.1472
 3091TIP3    H2 9280   3.711   2.397   4.972 -0.3926  1.5984  0.3714
 3092TIP3   OH2 9281   1.067   4.070   3.180 -0.1241 -0.1357 -0.1614
 3092TIP3    H1 9282   1.138   4.129   3.204 -0.6258  0.2443  0.4346
 3092TIP3    H2 9283   1.082   3.991   3.232 -0.4258  0.1515  0.3782
 3093TIP3   OH2 9284   0.232   2.409   3.443 -0.4794 -0.1259  0.1726
 3093TIP3    H1 9285   0.257   2.471   3.375  1.3812 -0.8201  0.1697
 3093TIP3    H2 9286   0.140   2.430   3.462 -0.7847  0.6642 -1.8922
 3094TIP3   OH2 9287   3.145   4.541   1.776 -0.2548 -0.0236 -0.3324
 3094TIP3    H1 9288   3.177   4.451   1.773 -0.6274 -0.1330 -1.6098
 3094TIP3    H2 9289   3.089   4.550   1.699 -1.9441  0.6759  0.8773
 3095TIP3   OH2 9290   4.484   5.289   2.354 -0.3349  0.1907 -0.4151
 3095TIP3    H1 9291   4.556   5.271   2.415 -0.5439 -0.8864 -0.4704
 3095TIP3    H2 9292   4.494   5.224   2.285 -0.5107  0.9668 -1.1851
 3096TIP3   OH2 9293   3.858   5.339   3.285 -0.1736  0.1597  0.0711
 3096TIP3    H1 9294   3.771   5.330   3.324  0.3500  0.3144  1.3337
 3096TIP3    H2 9295   3.866   5.432   3.265 -0.5601  0.0317 -0.7142
 3097TIP3   OH2 9296   1.149   1.368   3.649  0.1919  0.4129 -0.2811
 3097TIP3    H1 9297   1.229   1.377   3.597 -0.4190 -0.4847 -1.4074
 3097TIP3    H2 9298   1.109   1.455   3.647  1.7435  1.2446  1.3779
 3098TIP3   OH2 9299   3.516   2.356   1.667 -0.3807 -0.1561 -0.6119
 3098TIP3    H1 9300   3.543   2.266   1.644  0.4525  0.3372 -1.6723
 3098TIP3    H2 9301   3.469   2.387   1.590 -1.5444 -0.0138  0.1411
 3099TIP3   OH2 9302   4.823   4.603   4.371  0.2368 -0.3390 -0.1376
 3099TIP3    H1 9303   4.802   4.558   4.289  0.2788 -1.7571  0.5861
 3099TIP3    H2 9304   4.809   4.536   4.438  0.4576  0.7199  0.9817
 3100TIP3   OH2 9305   1.009   4.475   2.414 -0.0876 -0.3642 -0.2139
 3100TIP3    H1 9306   1.087   4.509   2.369 -0.1697 -0.1611 -0.2038
 3100TIP3    H2 9307   1.039   4.454   2.502  0.4446 -2.1840 -0.7811
 3101TIP3   OH2 9308   2.793   4.668   5.120  0.0162  0.1012  0.6375
 3101TIP3    H1 9309   2.720   4.678   5.181 -0.9246  1.2226 -0.6120
 3101TIP3    H2 9310   2.783   4.740   5.058  1.4684 -0.4585 -0.3068
 3102TIP3   OH2 9311   2.336   2.644   4.442  0.4708  0.7614 -0.0603
 3102TIP3    H1 9312   2.287   2.588   4.503  1.5815 -1.0123 -0.7089
 3102TIP3    H2 9313   2.425   2.610   4.445  0.3897 -0.1553 -3.4005
 3103TIP3   OH2 9314   1.960   5.576   0.746 -0.4006 -0.3575 -0.1867
 3103TIP3    H1 9315   1.940   5.540   0.660  0.3832  0.5773 -0.7802
 3103TIP3    H2 9316   1.917   5.517   0.808  0.2460 -1.8681 -1.1503
 3104TIP3   OH2 9317   2.267   4.766   0.171  0.1852 -0.0461  0.4508
 3104TIP3    H1 9318   2.184   4.743   0.130  0.0609  1.8275 -0.4230
 3104TIP3    H2 9319   2.333   4.749   0.104  0.1420  1.5199 -0.0257
 3105TIP3   OH2 9320   0.647   5.192   3.874  0.7433 -0.0329  0.2097
 3105TIP3    H1 9321   0.652   5.212   3.781  1.3468 -0.9259  0.0430
 3105TIP3    H2 9322   0.693   5.109   3.884  0.7907  0.1094  1.3261
 3106TIP3   OH2 9323   0.084   0.629   0.360  0.2563 -0.0785  0.0993
 3106TIP3    H1 9324   0.178   0.621   0.376  0.6096  3.1375  0.2656
 3106TIP3    H2 9325   0.071   0.721   0.336 -2.4576 -1.0488 -2.8855
 3107TIP3   OH2 9326   2.721   4.052   3.374  0.7287  0.4852  0.8637
 3107TIP3    H1 9327   2.695   3.968   3.413  0.4586 -0.8492 -1.9162
 3107TIP3    H2 9328   2.812   4.040   3.348  0.2928  0.4582 -0.8092
 3108TIP3   OH2 9329   5.169   3.159   1.381  0.1622 -0.2355  0.2677
 3108TIP3    H1 9330   5.167   3.219   1.307 -1.5054  0.6357  0.9718
 3108TIP3    H2 9331   5.079   3.159   1.415  0.3813 -2.2306  1.0156
 3109TIP3   OH2 9332   0.356   5.051   3.241 -0.4354 -0.0529  0.0684
 3109TIP3    H1 9333   0.391   5.014   3.160 -2.2753  0.3574 -0.9681
 3109TIP3    H2 9334   0.317   5.134   3.214 -0.7462  0.2660  1.4619
 3110TIP3   OH2 9335   0.391   2.802   2.150  0.0942  0.0344  0.6928
 3110TIP3    H1 9336   0.322   2.816   2.087 -0.1476 -0.4129  0.8548
 3110TIP3    H2 9337   0.472   2.816   2.101 -0.1178  1.2311  0.6698
 3111TIP3   OH2 9338   0.902   5.644   0.059  0.1636  0.2948 -0.5107
 3111TIP3    H1 9339   0.897   5.562   0.009 -0.2420  1.0513 -1.7723
 3111TIP3    H2 9340   0.921   5.616   0.149  0.0819 -1.1717 -0.9119
 3112TIP3   OH2 9341   0.270   1.506   1.806 -0.0146 -0.2368 -0.1196
 3112TIP3    H1 9342   0.202   1.506   1.739 -0.7086  2.1356  0.5161
 3112TIP3    H2 9343   0.225   1.525   1.888  1.3290  1.0188  0.3747
 3113TIP3   OH2 9344   6.298   5.220   3.136 -0.5925 -0.1278  0.4933
 3113TIP3    H1 9345   6.317   5.307   3.101  0.3568 -0.0454  1.1717
 3113TIP3    H2 9346   6.283   5.235   3.229  0.7925 -0.8402  0.8458
 3114TIP3   OH2 9347   0.293   4.983   1.572 -0.2958 -0.4554 -0.3789
 3114TIP3    H1 9348   0.383   5.005   1.548 -0.0941  1.3679  1.7628
 3114TIP3    H2 9349   0.270   5.046   1.640 -2.5117 -2.1405  0.5667
 3115TIP3   OH2 9350   5.491   3.077   3.484 -0.0646  0.7300  0.3714
 3115TIP3    H1 9351   5.576   3.042   3.455  0.6127  3.1148 -0.7879
 3115TIP3    H2 9352   5.429   3.006   3.466  0.7471  0.9102 -4.5384
 3116TIP3   OH2 9353   6.060   0.535   3.443  0.1224 -0.1227  0.3114
 3116TIP3    H1 9354   6.075   0.509   3.352  0.1521  2.0730 -0.3744
 3116TIP3    H2 9355   5.979   0.585   3.441  0.0606 -0.1337  1.5312
 3117TIP3   OH2 9356   3.364   2.925   2.997  0.2941 -0.2990 -0.2843
 3117TIP3    H1 9357   3.303   2.859   3.027  0.5475  0.6795  2.7298
 3117TIP3    H2 9358   3.313   2.981   2.938 -0.8974 -1.1188 -0.0435
 3118TIP3   OH2 9359   4.031   5.395   1.286 -0.3906  0.2868  0.0564
 3118TIP3    H1 9360   3.968   5.424   1.351 -0.0840  1.5495 -0.1936
 3118TIP3    H2 9361   4.008   5.442   1.206 -0.9450 -1.4589 -0.8654
 3119TIP3   OH2 9362   5.339   5.508   0.929  0.2551 -0.4980 -0.2693
 3119TIP3    H1 9363   5.425   5.515   0.888  1.0994 -0.0307  1.4634
 3119TIP3    H2 9364   5.300   5.594   0.916  1.0474  0.0815  0.9216
 3120TIP3   OH2 9365   3.042   3.518   2.700  0.5642  0.2996 -0.0376
 3120TIP3    H1 9366   2.994   3.587   2.746  0.5344  1.5228 -1.7947
 3120TIP3    H2 9367   2.980   3.487   2.633  1.2563 -0.0740 -0.5155
 3121TIP3   OH2 9368   0.700   5.203   2.874 -0.5368  0.5636  0.4158
 3121TIP3    H1 9369   0.795   5.207   2.878 -0.4224  1.1242 -1.7100
 3121TIP3    H2 9370   0.680   5.185   2.782 -2.4967  1.3867  0.6241
 3122TIP3   OH2 9371   5.463   1.684   3.332 -0.3590 -0.4035  0.1590
 3122TIP3    H1 9372   5.537   1.652   3.281  0.0864  1.3366 -0.3359
 3122TIP3    H2 9373   5.419   1.746   3.275 -1.8828 -0.9469  0.6681
 3123TIP3   OH2 9374   3.041   4.719   1.558 -0.5737  0.4822  0.2909
 3123TIP3    H1 9375   3.037   4.765   1.474  0.9868  0.7229  0.3239
 3123TIP3    H2 9376   3.060   4.788   1.621  1.8865 -0.1541  0.3302
 3124TIP3   OH2 9377   3.060   2.448   3.391 -0.2785  0.4429  0.6211
 3124TIP3    H1 9378   3.075   2.410   3.305 -1.9865 -1.0688  0.9375
 3124TIP3    H2 9379   3.086   2.380   3.453 -2.1495  0.2093  1.2234
 3125TIP3   OH2 9380   0.028   5.880   1.274 -0.2262 -0.7631 -0.4967
 3125TIP3    H1 9381   0.058   5.789   1.286  1.6518 -0.2136 -0.7435
 3125TIP3    H2 9382  -0.001   5.884   1.182  3.0513 -0.2922 -1.6380
 3126TIP3   OH2 9383   5.292   3.049   3.757 -0.3078  0.2196 -0.0653
 3126TIP3    H1 9384   5.349   3.124   3.742  0.9124 -0.6846 -0.1229
 3126TIP3    H2 9385   5.339   2.975   3.717 -0.8614 -0.7920  1.0905
 3127TIP3   OH2 9386   1.307   5.593   0.826  0.0914 -0.1227  0.2924
 3127TIP3    H1 9387   1.373   5.527   0.846  1.0270  0.9696  0.9156
 3127TIP3    H2 9388   1.224   5.548   0.837  0.6730 -1.9657 -1.9145
 3128TIP3   OH2 9389   5.823   2.810   4.300  0.0811  0.0531  0.1213
 3128TIP3    H1 9390   5.744   2.838   4.347 -0.4706 -0.0672 -0.7044
 3128TIP3    H2 9391   5.795   2.806   4.208  1.4741  1.5692 -0.4068
 3129TIP3   OH2 9392   4.699   2.147   4.931 -0.8522 -0.2915 -1.0041
 3129TIP3    H1 9393   4.635   2.170   4.862 -1.6448 -0.1637 -0.2437
 3129TIP3    H2 9394   4.692   2.217   4.995  1.5448  0.8146 -1.8467
 3130TIP3   OH2 9395   1.485   4.779   2.122  0.0819  0.1537 -0.1114
 3130TIP3    H1 9396   1.427   4.768   2.046 -0.6192  1.0509  0.2784
 3130TIP3    H2 9397   1.452   4.857   2.167  2.3231  1.4354 -0.5256
 3131TIP3   OH2 9398   1.530   2.029   2.281 -0.8896 -0.4404 -0.1326
 3131TIP3    H1 9399   1.517   2.107   2.226  1.6640  1.0210  1.1473
 3131TIP3    H2 9400   1.588   1.973   2.229 -2.6252 -1.5242 -0.9993
 3132TIP3   OH2 9401   0.971   5.079   1.955  0.1671 -0.2531  0.4764
 3132TIP3    H1 9402   1.009   5.011   1.900 -0.9822 -0.3074 -0.2881
 3132TIP3    H2 9403   0.906   5.033   2.008 -1.4415  0.3812 -0.8605
 3133TIP3   OH2 9404   4.542   2.831   3.409  0.1898 -0.0824  0.3709
 3133TIP3    H1 9405   4.512   2.849   3.498 -1.4764 -0.5057 -0.0799
 3133TIP3    H2 9406   4.464   2.842   3.354  1.0801 -0.2819 -0.9894
 3134TIP3   OH2 9407   3.366   5.339   4.627  0.6528 -0.1774 -0.6361
 3134TIP3    H1 9408   3.379   5.383   4.711  0.2922  0.5695 -0.9616
 3134TIP3    H2 9409   3.413   5.256   4.636  2.4206  0.7930 -0.4261
 3135TIP3   OH2 9410   0.727   4.715   3.284 -0.6641 -0.5412  1.1832
 3135TIP3    H1 9411   0.815   4.685   3.308 -0.6108 -0.6026  0.9161
 3135TIP3    H2 9412   0.668   4.655   3.331 -0.5651 -0.5075  1.3527
 3136TIP3   OH2 9413   5.354   2.974   0.390 -0.0433 -0.1651 -0.3739
 3136TIP3    H1 9414   5.443   2.950   0.416 -0.6381 -0.9823  1.0370
 3136TIP3    H2 9415   5.337   2.922   0.311  0.8280  0.2448 -0.8414
 3137TIP3   OH2 9416   4.781   5.777   2.663 -0.2235 -0.0568  0.3905
 3137TIP3    H1 9417   4.697   5.820   2.646  0.6189  1.3732 -0.4308
 3137TIP3    H2 9418   4.775   5.694   2.615 -1.3188 -0.1941  0.7214
 3138TIP3   OH2 9419   0.301   4.044   3.782  0.2662 -0.1342  0.6734
 3138TIP3    H1 9420   0.354   4.051   3.861 -0.5950 -1.0288  1.3480
 3138TIP3    H2 9421   0.277   4.134   3.761  0.0226  0.0665  1.7705
 3139TIP3   OH2 9422   0.895   5.460   0.673  0.4114  0.0787  0.5037
 3139TIP3    H1 9423   0.839   5.474   0.750  2.7944  2.0069  2.0585
 3139TIP3    H2 9424   0.872   5.531   0.613 -0.5108 -0.6288 -0.0016
 3140TIP3   OH2 9425   2.638   0.531   4.505  0.0266  0.7102  0.1104
 3140TIP3    H1 9426   2.599   0.465   4.447 -1.0677  0.8516  0.6553
 3140TIP3    H2 9427   2.732   0.523   4.490 -0.1904  0.3134 -1.2167
 3141TIP3   OH2 9428   1.141   5.201   0.425 -0.0907 -0.1740  0.0565
 3141TIP3    H1 9429   1.079   5.234   0.359 -1.6294  1.5727  2.2264
 3141TIP3    H2 9430   1.132   5.262   0.498  0.9195 -2.4779  2.2133
 3142TIP3   OH2 9431   0.266   5.735   4.349  0.0075  0.1316 -0.3727
 3142TIP3    H1 9432   0.304   5.668   4.292 -0.2340 -0.6117  0.3167
 3142TIP3    H2 9433   0.321   5.735   4.427 -0.7370 -0.1911  0.1732
 3143TIP3   OH2 9434  -0.006   4.659   3.331  0.2771  0.0970  0.1546
 3143TIP3    H1 9435   0.036   4.745   3.330 -0.5157  0.4930 -0.7689
 3143TIP3    H2 9436  -0.022   4.641   3.423 -1.0565  1.7206  0.2949
 3144TIP3   OH2 9437   2.435   0.725   0.050 -0.4440 -0.0487  0.1881
 3144TIP3    H1 9438   2.525   0.748   0.069  0.2080  0.1746 -2.7744
 3144TIP3    H2 9439   2.436   0.695  -0.041 -3.6416  1.7618 -0.6033
 3145TIP3   OH2 9440   1.615   1.323   3.311  0.1398  0.2578  0.9140
 3145TIP3    H1 9441   1.656   1.241   3.339 -0.0886 -1.0093 -2.0604
 3145TIP3    H2 9442   1.521   1.307   3.320  0.0184 -0.4921 -1.0788
 3146TIP3   OH2 9443   2.173   3.515   4.413 -0.1229 -0.6836 -0.1711
 3146TIP3    H1 9444   2.168   3.517   4.508 -2.4183  0.1133 -0.2534
 3146TIP3    H2 9445   2.123   3.437   4.388  1.4420 -1.5526 -0.7241
 3147TIP3   OH2 9446   5.632   5.717   2.888  0.3075  0.2544 -0.0945
 3147TIP3    H1 9447   5.675   5.791   2.930 -0.6087  0.7990 -0.0880
 3147TIP3    H2 9448   5.555   5.755   2.846 -1.0839 -0.9026  1.2794
 3148TIP3   OH2 9449   4.101   4.951   2.982  0.1003  0.1977  0.0310
 3148TIP3    H1 9450   4.044   5.024   3.005 -1.5724 -0.7499 -0.8588
 3148TIP3    H2 9451   4.152   4.983   2.908 -0.5863  0.5036 -0.3224
 3149TIP3   OH2 9452   1.345   2.808   3.003  0.0745  0.2628  0.2100
 3149TIP3    H1 9453   1.394   2.798   3.085  0.1671  0.2393  0.1518
 3149TIP3    H2 9454   1.409   2.790   2.935 -0.2695 -0.8743  0.1603
 3150TIP3   OH2 9455   6.299   4.765   1.277 -1.4399 -0.0706  0.1700
 3150TIP3    H1 9456   6.314   4.690   1.220 -1.3361 -0.1785  0.3370
 3150TIP3    H2 9457   6.372   4.762   1.340  1.2926  2.7822 -2.4933
 3151TIP3   OH2 9458   3.432   4.849   2.648  0.7770 -0.0527 -0.0324
 3151TIP3    H1 9459   3.469   4.936   2.636 -1.5677  0.7256 -2.7923
 3151TIP3    H2 9460   3.450   4.803   2.566 -0.5910 -1.0867  0.1986
 3152TIP3   OH2 9461   2.563   1.500   0.270  0.0474  0.2285  0.0749
 3152TIP3    H1 9462   2.482   1.471   0.312  0.3154 -0.1969  0.2997
 3152TIP3    H2 9463   2.605   1.419   0.241 -0.3723  0.5182 -1.4640
 3153TIP3   OH2 9464   1.807   4.607   4.161  0.1171 -0.2404 -0.2621
 3153TIP3    H1 9465   1.809   4.512   4.147  1.8027 -0.4513  1.0753
 3153TIP3    H2 9466   1.888   4.639   4.120  0.9902  0.1894  1.6660
 3154TIP3   OH2 9467   2.261   1.102   2.134  0.3372  0.2296  0.2020
 3154TIP3    H1 9468   2.340   1.056   2.106  1.3141  0.3060  2.5836
 3154TIP3    H2 9469   2.270   1.190   2.096  1.6926  0.3966  0.8340
 3155TIP3   OH2 9470   1.773   2.909   1.616 -0.4707 -0.0672 -0.1311
 3155TIP3    H1 9471   1.844   2.959   1.657  1.1455 -0.4945 -2.2370
 3155TIP3    H2 9472   1.732   2.972   1.556 -1.9202  0.1725  1.0619
 3156TIP3   OH2 9473   0.703   3.690   4.724 -0.0963  0.2627  0.4880
 3156TIP3    H1 9474   0.799   3.688   4.723  0.0184 -0.0522  3.1089
 3156TIP3    H2 9475   0.680   3.777   4.691  1.0461  0.1044 -0.7762
 3157TIP3   OH2 9476   1.911   4.010   2.229  0.0649  0.1229 -0.0107
 3157TIP3    H1 9477   1.877   4.099   2.230 -2.4081 -0.7493 -0.0658
 3157TIP3    H2 9478   1.841   3.958   2.188  1.7665 -1.7233 -0.7265
 3158TIP3   OH2 9479   3.162   2.528   5.101  0.4892  0.1944  0.1876
 3158TIP3    H1 9480   3.218   2.489   5.169  1.1691  1.2121  0.2305
 3158TIP3    H2 9481   3.218   2.529   5.023  1.0220  2.3607  0.5295
 3159TIP3   OH2 9482   3.109   0.951   1.567  0.8273  0.5855 -0.1601
 3159TIP3    H1 9483   3.076   1.003   1.639  1.0891 -0.5907  0.8356
 3159TIP3    H2 9484   3.177   1.006   1.526 -0.3808  1.8703 -0.4974
 3160TIP3   OH2 9485   5.962   4.231   2.635 -0.2544 -0.2149  0.7848
 3160TIP3    H1 9486   5.891   4.185   2.680 -0.5441  1.1192  1.7672
 3160TIP3    H2 9487   6.037   4.222   2.693  0.0909 -0.7051  0.2650
 3161TIP3   OH2 9488   2.590   3.722   1.511  0.9689 -0.6999 -0.3105
 3161TIP3    H1 9489   2.634   3.674   1.581  0.0398 -2.0231 -0.5899
 3161TIP3    H2 9490   2.506   3.747   1.549  1.6866  1.3464  0.0495
 3162TIP3   OH2 9491   5.438   0.104   2.442 -0.7859 -0.5025  0.0323
 3162TIP3    H1 9492   5.471   0.021   2.408 -0.2865  0.1032 -1.0134
 3162TIP3    H2 9493   5.345   0.102   2.423 -0.4284  0.0919 -2.0617
 3163TIP3   OH2 9494   4.024   0.488   0.026 -0.3092 -0.0941 -0.1692
 3163TIP3    H1 9495   4.050   0.572   0.064 -0.9503 -0.1386  0.3822
 3163TIP3    H2 9496   3.962   0.451   0.089 -0.3508 -0.7921 -0.6095
 3164TIP3   OH2 9497   1.574   0.720   4.751 -0.5559 -0.6214  0.1169
 3164TIP3    H1 9498   1.666   0.713   4.725 -0.2763  1.1395  0.4858
 3164TIP3    H2 9499   1.554   0.813   4.741 -2.3148 -0.9892  0.0153
 3165TIP3   OH2 9500   3.904   0.065   4.486 -0.5354  0.0105  0.2380
 3165TIP3    H1 9501   3.862   0.124   4.424  0.7350  1.4481  0.6886
 3165TIP3    H2 9502   3.981   0.113   4.517  0.4123 -1.7791  0.8200
 3166TIP3   OH2 9503   3.214   5.407   0.195  0.4829 -0.3136  0.5951
 3166TIP3    H1 9504   3.235   5.363   0.114 -0.6156 -1.9009  1.1237
 3166TIP3    H2 9505   3.290   5.393   0.251  1.0612  0.4165  0.0116
 3167TIP3   OH2 9506   5.153   2.565   4.500  0.2504  0.1913 -0.2253
 3167TIP3    H1 9507   5.084   2.502   4.517 -0.3138  0.8958  0.1448
 3167TIP3    H2 9508   5.170   2.607   4.584 -0.8274  1.9557 -0.8257
 3168TIP3   OH2 9509   3.697   5.158   0.144 -0.1788  0.3129 -0.2133
 3168TIP3    H1 9510   3.610   5.131   0.174  0.4296 -1.1042  0.3382
 3168TIP3    H2 9511   3.729   5.218   0.211 -0.6454  0.7038 -0.3328
 3169TIP3   OH2 9512   5.921   0.682   1.690  0.2379  0.4708  0.4690
 3169TIP3    H1 9513   5.898   0.750   1.753  0.3804  1.4244 -0.4654
 3169TIP3    H2 9514   5.843   0.627   1.685  0.1576  0.4930  1.3188
 3170TIP3   OH2 9515   4.613   5.069   3.769  0.0586  0.1325 -0.5146
 3170TIP3    H1 9516   4.621   5.098   3.860 -0.5488 -0.2570 -0.3212
 3170TIP3    H2 9517   4.616   5.149   3.717 -2.0580  0.6246  0.0316
 3171TIP3   OH2 9518   0.700   1.834   4.072  0.0089 -0.2868  0.1324
 3171TIP3    H1 9519   0.776   1.854   4.127  1.2723 -2.5715 -0.6506
 3171TIP3    H2 9520   0.651   1.768   4.121 -1.4281  1.0470  0.5530
 3172TIP3   OH2 9521   0.995   0.870   4.105  0.4153 -0.5199  0.4960
 3172TIP3    H1 9522   1.035   0.791   4.142 -2.0816 -2.2126 -0.1490
 3172TIP3    H2 9523   0.943   0.838   4.031 -1.1337  1.6467  0.5531
 3173TIP3   OH2 9524   5.137   5.250   1.893 -0.3204  0.0363  0.1255
 3173TIP3    H1 9525   5.071   5.314   1.866 -0.6426 -0.8597 -1.3172
 3173TIP3    H2 9526   5.085   5.175   1.924  0.0425 -0.1150  0.3719
 3174TIP3   OH2 9527   3.773   4.361   2.928 -0.1343  0.4607 -0.6291
 3174TIP3    H1 9528   3.795   4.425   2.996  0.8149  0.3387 -0.8094
 3174TIP3    H2 9529   3.702   4.402   2.879  1.2569  1.9617 -1.5021
 3175TIP3   OH2 9530   4.295   5.457   3.063 -0.2347 -0.0414  0.2335
 3175TIP3    H1 9531   4.288   5.550   3.085 -0.4224  0.3105 -1.2270
 3175TIP3    H2 9532   4.389   5.440   3.062 -0.2110 -0.0537  1.1490
 3176TIP3   OH2 9533   5.240   0.473   3.929 -0.3928  0.2752  0.2420
 3176TIP3    H1 9534   5.169   0.503   3.986 -0.6063 -1.0389  0.6931
 3176TIP3    H2 9535   5.196   0.419   3.863  0.0589  0.3872 -0.1503
 3177TIP3   OH2 9536   6.260   3.560   3.383 -0.4040 -0.2210  0.4482
 3177TIP3    H1 9537   6.297   3.597   3.303 -0.3576  1.2596  1.1353
 3177TIP3    H2 9538   6.336   3.541   3.438 -0.5305  0.4704  0.8632
 3178TIP3   OH2 9539   0.522   1.928   2.166 -0.3281  0.1541  0.0337
 3178TIP3    H1 9540   0.443   1.892   2.207 -0.0604  0.1521  0.5577
 3178TIP3    H2 9541   0.490   1.999   2.111 -0.4400  2.1993  2.5642
 3179TIP3   OH2 9542   5.889   1.889   2.197 -0.0951  0.5073 -0.4017
 3179TIP3    H1 9543   5.818   1.883   2.132 -0.4718  1.4412 -0.0942
 3179TIP3    H2 9544   5.967   1.910   2.145  0.4733 -2.5785 -1.0219
 3180TIP3   OH2 9545   0.615   0.986   1.277  0.4874 -0.3940 -0.2252
 3180TIP3    H1 9546   0.606   0.931   1.199  0.1643  0.2673 -0.6544
 3180TIP3    H2 9547   0.672   1.058   1.250 -0.1802  0.2073 -0.0517
 3181TIP3   OH2 9548   5.501   1.254   2.242 -0.1135  0.0438  0.3125
 3181TIP3    H1 9549   5.523   1.313   2.315 -2.0274  1.7006 -0.3645
 3181TIP3    H2 9550   5.446   1.187   2.281 -0.0937  0.2008  0.6165
 3182TIP3   OH2 9551   2.439   4.389   2.886 -0.1804  0.5832 -0.4298
 3182TIP3    H1 9552   2.439   4.452   2.959  0.2178 -0.6377  0.6665
 3182TIP3    H2 9553   2.359   4.409   2.837  0.3544  2.4809 -0.6145
 3183TIP3   OH2 9554   0.134   1.689   1.235 -0.1925  0.0227 -0.6212
 3183TIP3    H1 9555   0.216   1.719   1.276 -1.0398  2.3541 -0.4497
 3183TIP3    H2 9556   0.157   1.674   1.144  0.8153 -1.1733 -0.1896
 3184TIP3   OH2 9557   0.747   0.104   1.690 -0.0372  0.0690  0.4590
 3184TIP3    H1 9558   0.824   0.091   1.746  0.6759  0.1672 -0.4582
 3184TIP3    H2 9559   0.777   0.078   1.603 -0.2077  2.5500 -0.4337
 3185TIP3   OH2 9560   5.838   1.649   0.045  0.1626  0.4080  0.1312
 3185TIP3    H1 9561   5.877   1.605   0.121  0.8626  3.1264  1.4856
 3185TIP3    H2 9562   5.834   1.741   0.071 -2.0737  1.0464 -2.1524
 3186TIP3   OH2 9563   6.143   4.256   2.409 -0.5672  0.5596  0.8961
 3186TIP3    H1 9564   6.099   4.215   2.484 -2.1123  2.2247  0.9917
 3186TIP3    H2 9565   6.081   4.323   2.379 -0.3118 -0.4752 -2.3209
 3187TIP3   OH2 9566   0.691   4.360   1.347 -0.8993  0.1035  0.1071
 3187TIP3    H1 9567   0.610   4.370   1.398  0.3061  0.0969  2.1285
 3187TIP3    H2 9568   0.680   4.421   1.274 -2.2824  0.8988  0.9227
 3188TIP3   OH2 9569   0.858   3.313   0.080 -0.5173 -0.0885  0.1452
 3188TIP3    H1 9570   0.798   3.383   0.053 -0.8804 -0.0932  0.9133
 3188TIP3    H2 9571   0.845   3.306   0.174  0.1248 -0.6307  0.1968
 3189TIP3   OH2 9572   1.439   2.859   3.988 -0.3622 -0.2362  0.0187
 3189TIP3    H1 9573   1.465   2.847   4.080  0.3769  0.5802 -0.0739
 3189TIP3    H2 9574   1.345   2.841   3.987 -0.4185 -0.0400  0.9708
 3190TIP3   OH2 9575   4.269   5.654   2.066  0.4694 -0.1285 -0.1833
 3190TIP3    H1 9576   4.212   5.669   1.990  0.9417  2.1676 -0.1455
 3190TIP3    H2 9577   4.211   5.613   2.131  0.0103 -1.9589 -1.6558
 3191TIP3   OH2 9578   6.000   5.877   1.167 -0.2262 -0.0027  0.0263
 3191TIP3    H1 9579   5.946   5.841   1.097 -1.0938 -4.6028  2.6337
 3191TIP3    H2 9580   6.089   5.849   1.144 -0.3829 -0.7043  0.2267
 3192TIP3   OH2 9581   1.448   0.626   3.522 -0.0426 -0.2601  0.2739
 3192TIP3    H1 9582   1.435   0.653   3.613 -1.7939  0.2357 -0.0939
 3192TIP3    H2 9583   1.428   0.704   3.470 -0.7614 -1.0048 -0.6057
 3193TIP3   OH2 9584   0.359   4.790   2.817  0.8023  0.1794 -0.0712
 3193TIP3    H1 9585   0.361   4.790   2.913  0.5148 -0.1564 -0.0663
 3193TIP3    H2 9586   0.266   4.795   2.795  0.5462 -3.2654 -0.3283
 3194TIP3   OH2 9587   0.099   0.519   4.638  0.4570 -0.6640  0.2410
 3194TIP3    H1 9588   0.010   0.552   4.647  0.7759 -0.2778  2.3597
 3194TIP3    H2 9589   0.090   0.424   4.649  0.3566 -0.5746  0.9664
 3195TIP3   OH2 9590   2.519   4.450   3.895 -0.1125 -0.2334 -0.4823
 3195TIP3    H1 9591   2.503   4.473   3.986 -3.4854  0.8561 -1.1949
 3195TIP3    H2 9592   2.528   4.534   3.850  0.6314 -0.7286 -1.2975
 3196TIP3   OH2 9593   1.292   0.878   3.435 -0.0887  0.6342 -0.3748
 3196TIP3    H1 9594   1.367   0.938   3.426  1.5715 -1.3120 -0.1153
 3196TIP3    H2 9595   1.265   0.888   3.526  0.7735  0.3635 -0.0724
 3197TIP3   OH2 9596   2.338   1.943   2.859 -0.1639  0.0914 -0.1066
 3197TIP3    H1 9597   2.376   2.001   2.792 -1.0339  1.7242  0.7519
 3197TIP3    H2 9598   2.407   1.935   2.925 -0.2599  0.6980  0.0757
 3198TIP3   OH2 9599   4.792   1.565   4.758  0.0846 -0.2044  0.1820
 3198TIP3    H1 9600   4.747   1.552   4.674  1.3504 -0.0319 -0.5337
 3198TIP3    H2 9601   4.760   1.650   4.789  0.7435  0.4366 -0.8584
 3199TIP3   OH2 9602   2.188   5.702   1.460 -0.2372  0.0082 -0.0025
 3199TIP3    H1 9603   2.217   5.747   1.381 -1.4161  2.7259  1.0130
 3199TIP3    H2 9604   2.259   5.715   1.522  0.0444 -0.8545 -0.1248
 3200TIP3   OH2 9605   2.508   4.252   1.011  0.7671  0.6980 -0.1467
 3200TIP3    H1 9606   2.526   4.203   0.930  2.6335  0.4224  0.3982
 3200TIP3    H2 9607   2.420   4.224   1.036  0.7352 -0.3403 -1.3004
 3201TIP3   OH2 9608   5.209   1.139   0.041  0.1018 -0.4207 -0.3384
 3201TIP3    H1 9609   5.192   1.076  -0.029 -1.9084  1.4116 -1.6005
 3201TIP3    H2 9610   5.212   1.085   0.121  2.6579 -2.6028 -1.7122
 3202TIP3   OH2 9611   2.677   4.793   4.233  0.2423 -0.0539  0.2811
 3202TIP3    H1 9612   2.720   4.829   4.156 -0.1207 -0.4829 -0.1230
 3202TIP3    H2 9613   2.627   4.867   4.269 -0.9089 -0.2559 -0.8329
 3203TIP3   OH2 9614   4.367   3.723   0.337  0.0088  0.4161  0.2327
 3203TIP3    H1 9615   4.333   3.804   0.376 -0.6827 -0.3961  1.3842
 3203TIP3    H2 9616   4.458   3.719   0.365 -0.4785 -0.1576  1.8520
 3204TIP3   OH2 9617   1.804   0.181   5.066  0.5077 -0.1592 -0.0878
 3204TIP3    H1 9618   1.811   0.243   4.993  1.0146  1.8098  1.5354
 3204TIP3    H2 9619   1.711   0.157   5.068 -0.0430  1.8173  0.1821
 3205TIP3   OH2 9620   2.748   3.180   1.984  0.5363 -0.0630 -0.0124
 3205TIP3    H1 9621   2.716   3.197   1.896  0.9654  1.9794  0.1889
 3205TIP3    H2 9622   2.676   3.135   2.028 -0.4116  0.6229 -0.8370
 3206TIP3   OH2 9623   5.705   1.392   3.354  0.3495 -0.0772 -0.1408
 3206TIP3    H1 9624   5.624   1.386   3.404 -0.0076  0.5105 -0.6294
 3206TIP3    H2 9625   5.688   1.461   3.290  1.5156  0.6240  0.2689
 3207TIP3   OH2 9626   4.514   0.012   2.212 -0.4170 -0.4414 -0.4916
 3207TIP3    H1 9627   4.481   0.059   2.288  0.4434  1.9603 -1.4906
 3207TIP3    H2 9628   4.485   0.064   2.137  0.7340 -1.4199 -1.6773
 3208TIP3   OH2 9629   6.305   5.640   1.851 -0.4306  0.8052 -0.3943
 3208TIP3    H1 9630   6.389   5.600   1.874 -0.0072  1.1920 -1.2194
 3208TIP3    H2 9631   6.328   5.713   1.793 -1.3908  0.1868 -1.6160
 3209TIP3   OH2 9632   5.829   3.091   0.574  0.1625  0.1604  0.1298
 3209TIP3    H1 9633   5.901   3.122   0.519  1.8308 -1.9292  1.0031
 3209TIP3    H2 9634   5.868   3.079   0.660 -1.6422  0.4231  1.0247
 3210TIP3   OH2 9635   2.420   0.442   1.241  0.2542  0.8446  0.3566
 3210TIP3    H1 9636   2.377   0.485   1.315 -1.3288 -0.3096  0.1530
 3210TIP3    H2 9637   2.513   0.463   1.252  0.4805 -1.2404  4.0665
 3211TIP3   OH2 9638   1.768   1.977   3.552 -0.0522 -0.6016  0.2585
 3211TIP3    H1 9639   1.691   1.921   3.563 -0.0462 -0.6377  0.1113
 3211TIP3    H2 9640   1.828   1.949   3.622 -0.5473  0.0570  0.9632
 3212TIP3   OH2 9641   6.209   4.234   1.282 -0.0166 -0.2161 -0.1410
 3212TIP3    H1 9642   6.221   4.158   1.339  0.0127 -2.1245 -2.5551
 3212TIP3    H2 9643   6.293   4.245   1.238  0.0754  1.4665  0.3790
 3213TIP3   OH2 9644   4.960   4.276   0.271 -0.3111 -0.6194  0.2291
 3213TIP3    H1 9645   5.022   4.204   0.265  0.8089  0.1663  1.7320
 3213TIP3    H2 9646   4.996   4.334   0.339 -2.9977 -0.4588  1.6740
 3214TIP3   OH2 9647   0.984   0.059   1.028 -0.0507 -0.3467  0.5868
 3214TIP3    H1 9648   1.070   0.081   1.064  0.0697  0.1646 -0.0108
 3214TIP3    H2 9649   0.926   0.128   1.060  0.2493  0.6732 -0.9624
 3215TIP3   OH2 9650   5.745   0.818   0.053  0.4830  0.1367  0.1321
 3215TIP3    H1 9651   5.652   0.839   0.040  0.6830  0.5218 -0.7534
 3215TIP3    H2 9652   5.781   0.896   0.094  0.4059 -0.0259  0.5064
 3216TIP3   OH2 9653   1.313   2.687   0.013  0.0526 -0.4814  0.1194
 3216TIP3    H1 9654   1.227   2.724   0.033  0.0937 -1.0176  1.3491
 3216TIP3    H2 9655   1.293   2.602  -0.026 -0.0102  0.3312 -1.7364
 3217TIP3   OH2 9656   4.689   5.334   2.632 -0.7854  0.6501  0.5937
 3217TIP3    H1 9657   4.737   5.354   2.712  0.1414  0.4722  0.0952
 3217TIP3    H2 9658   4.720   5.248   2.605 -0.4915  1.0381 -0.3739
 3218TIP3   OH2 9659   3.115   2.302   3.167 -0.2024 -0.1171  0.6288
 3218TIP3    H1 9660   3.042   2.300   3.105 -0.5939 -0.3502  1.0881
 3218TIP3    H2 9661   3.119   2.212   3.201 -0.4822  0.1985  1.5027
 3219TIP3   OH2 9662   1.172   1.850   4.211  0.0815  0.5355 -0.1474
 3219TIP3    H1 9663   1.204   1.767   4.246  0.7871  0.5784 -0.6658
 3219TIP3    H2 9664   1.233   1.916   4.244 -0.4494  0.8528  0.2257
 3220TIP3   OH2 9665   0.341   0.145   1.623  0.6685  0.1005 -0.2611
 3220TIP3    H1 9666   0.413   0.156   1.561  1.2191  1.3522  0.5738
 3220TIP3    H2 9667   0.380   0.099   1.697  0.8899  1.6449  0.6172
 3221TIP3   OH2 9668   0.246   0.525   2.818  0.2104  0.8433 -0.1257
 3221TIP3    H1 9669   0.237   0.606   2.867 -0.7959  0.0941  0.9753
 3221TIP3    H2 9670   0.341   0.509   2.817  0.3874  1.8076 -0.0082
 3222TIP3   OH2 9671   2.015   0.102   3.018  0.2511  0.1403 -0.5068
 3222TIP3    H1 9672   2.070   0.153   3.078 -2.3010  0.7542  1.4855
 3222TIP3    H2 9673   1.958   0.051   3.076 -0.8859 -0.9059 -2.4570
 3223TIP3   OH2 9674   3.562   2.222   4.504  0.5147 -0.2632 -0.0817
 3223TIP3    H1 9675   3.540   2.130   4.493 -0.0899 -0.2100  0.6172
 3223TIP3    H2 9676   3.608   2.246   4.423  1.0974 -1.2906 -0.0621
 3224TIP3   OH2 9677   0.264   4.551   0.171  0.5976 -0.7661 -0.0595
 3224TIP3    H1 9678   0.178   4.548   0.129  0.8163  0.3316 -0.6215
 3224TIP3    H2 9679   0.248   4.595   0.254  0.8872  1.2023 -0.9776
 3225TIP3   OH2 9680   6.017   5.817   1.591 -0.2842  0.0779 -0.3806
 3225TIP3    H1 9681   5.996   5.861   1.509  0.4019  0.3565 -0.4112
 3225TIP3    H2 9682   6.090   5.759   1.570 -0.8225 -0.6792 -0.2124
 3226TIP3   OH2 9683   1.207   2.030   3.964  0.8003  0.9437  0.2748
 3226TIP3    H1 9684   1.136   2.000   3.908  0.5142  1.4800  0.3390
 3226TIP3    H2 9685   1.190   1.990   4.049  1.7642 -0.6486 -0.2394
 3227TIP3   OH2 9686   5.902   0.744   3.037  0.1138  0.1962 -0.1469
 3227TIP3    H1 9687   5.906   0.650   3.049 -1.0762 -0.1541 -1.9998
 3227TIP3    H2 9688   5.881   0.755   2.944  1.1334  2.3093 -0.1804
 3228TIP3   OH2 9689   3.563   4.476   0.358 -0.3494 -0.0981 -0.2237
 3228TIP3    H1 9690   3.620   4.466   0.435 -0.5120  0.1239 -0.0743
 3228TIP3    H2 9691   3.585   4.563   0.323 -0.6937  0.0435 -0.0871
 3229TIP3   OH2 9692   1.155   0.202   4.210  0.3220  0.0378 -0.2980
 3229TIP3    H1 9693   1.231   0.229   4.160  1.1583 -1.6307  0.0129
 3229TIP3    H2 9694   1.160   0.106   4.212 -1.0232 -0.0390  0.9007
 3230TIP3   OH2 9695   3.012   5.918   4.679  0.4701  0.2791 -0.1061
 3230TIP3    H1 9696   3.015   5.966   4.762  0.5990 -0.0752  0.0950
 3230TIP3    H2 9697   2.934   5.953   4.635 -1.4996 -1.7220  1.5229
 3231TIP3   OH2 9698   4.743   3.660   3.847  0.8785 -0.4715  0.6244
 3231TIP3    H1 9699   4.668   3.614   3.811  1.3287 -0.0516 -0.9295
 3231TIP3    H2 9700   4.735   3.749   3.812  0.9063  0.2082  2.2494
 3232TIP3   OH2 9701   1.951   4.961   2.527  0.2598  0.0053  0.2508
 3232TIP3    H1 9702   1.983   4.936   2.614  2.7674 -2.0820 -1.1310
 3232TIP3    H2 9703   1.914   4.881   2.491  0.0714  0.6214 -0.9744
 3233TIP3   OH2 9704   4.220   3.950   2.305 -0.5561 -0.1571 -0.2124
 3233TIP3    H1 9705   4.244   3.992   2.222 -0.6643  0.7260  0.1967
 3233TIP3    H2 9706   4.167   4.015   2.350 -0.7969 -0.7730  0.3988
 3234TIP3   OH2 9707   4.808   3.863   1.792 -0.4700  0.1345  0.0408
 3234TIP3    H1 9708   4.722   3.858   1.834 -0.5868  0.9834 -0.0866
 3234TIP3    H2 9709   4.807   3.945   1.744 -0.2075 -0.6616 -1.3731
 3235TIP3   OH2 9710   5.466   1.024   1.111 -0.1886 -0.2359 -0.5659
 3235TIP3    H1 9711   5.447   1.102   1.059  0.8209  0.6624  0.3450
 3235TIP3    H2 9712   5.380   0.986   1.130 -0.7527  1.0443 -0.4554
 3236TIP3   OH2 9713   0.050   1.733   3.273 -0.4257 -0.0638 -0.4931
 3236TIP3    H1 9714  -0.006   1.750   3.349 -1.6306 -1.2793 -1.0659
 3236TIP3    H2 9715   0.026   1.801   3.210 -0.4877  0.0562 -0.3408
 3237TIP3   OH2 9716   2.808   4.401   1.318 -0.0257  0.2928  0.0387
 3237TIP3    H1 9717   2.763   4.341   1.378 -2.1354  1.4148 -0.2944
 3237TIP3    H2 9718   2.889   4.357   1.296 -0.2269 -1.1831  1.9359
 3238TIP3   OH2 9719   4.061   1.400   0.897 -0.1146  0.3283 -0.2372
 3238TIP3    H1 9720   4.032   1.441   0.816 -0.7904  3.2154  1.3138
 3238TIP3    H2 9721   4.114   1.468   0.940 -2.1892  0.0948  3.0226
 3239TIP3   OH2 9722   4.496   3.763   3.450 -0.6928  0.2678 -0.3723
 3239TIP3    H1 9723   4.496   3.700   3.378 -0.5401  2.2564 -2.2253
 3239TIP3    H2 9724   4.485   3.710   3.528 -0.1616 -2.0769 -1.7798
 3240TIP3   OH2 9725   2.050   5.444   0.160 -0.0729 -0.4669  0.1670
 3240TIP3    H1 9726   2.059   5.519   0.102  0.3609  0.6989  1.6766
 3240TIP3    H2 9727   1.958   5.445   0.186 -0.3370 -1.1591 -0.6644
 3241TIP3   OH2 9728   6.090   2.266   1.909 -0.9734  0.4361 -0.2499
 3241TIP3    H1 9729   6.181   2.280   1.934 -0.8346 -1.7383  0.6532
 3241TIP3    H2 9730   6.094   2.239   1.817 -0.3205 -2.4279  0.5049
 3242TIP3   OH2 9731   4.685   4.758   1.555  0.1045  0.1706 -0.5036
 3242TIP3    H1 9732   4.780   4.749   1.547  0.0531 -1.8476  0.4996
 3242TIP3    H2 9733   4.669   4.852   1.547  2.3040  0.6964  0.4495
 3243TIP3   OH2 9734   6.071   0.999   3.003  0.5760  0.1669 -0.0935
 3243TIP3    H1 9735   6.043   0.945   2.929 -1.3124 -1.6459  1.8232
 3243TIP3    H2 9736   5.999   1.060   3.017  0.1424 -0.5949  1.2065
 3244TIP3   OH2 9737   2.125   5.695   4.142  0.2964 -0.3891 -0.0509
 3244TIP3    H1 9738   2.035   5.703   4.109 -0.7216 -0.4210  2.4511
 3244TIP3    H2 9739   2.118   5.630   4.213  2.7045 -1.8709 -1.0447
 3245TIP3   OH2 9740   0.850   0.658   4.406 -0.0551  0.6746  0.1072
 3245TIP3    H1 9741   0.867   0.594   4.337 -0.3209  0.7677 -0.0452
 3245TIP3    H2 9742   0.915   0.726   4.393  0.1433  0.5012  0.1873
 3246TIP3   OH2 9743   5.030   4.057   0.915  0.0761  0.3388 -0.2946
 3246TIP3    H1 9744   5.027   3.986   0.978 -1.8132  0.3476 -0.3205
 3246TIP3    H2 9745   5.033   4.014   0.830 -1.3217  0.2512 -0.3206
 3247TIP3   OH2 9746   5.750   3.436   4.154 -0.4453  0.0948  0.2728
 3247TIP3    H1 9747   5.770   3.494   4.080 -0.8416  1.1492  0.9668
 3247TIP3    H2 9748   5.739   3.350   4.114  1.9355  0.0943 -0.5938
 3248TIP3   OH2 9749   1.028   1.859   3.127 -0.4181  0.5398 -0.0184
 3248TIP3    H1 9750   0.987   1.919   3.065 -1.0221 -1.4631 -1.6906
 3248TIP3    H2 9751   1.041   1.778   3.077  0.0809 -0.8394  2.1815
 3249TIP3   OH2 9752   2.696   5.807   1.478  0.4214 -0.7581 -0.3825
 3249TIP3    H1 9753   2.757   5.743   1.514  2.0986  0.0794 -1.5882
 3249TIP3    H2 9754   2.664   5.768   1.397  0.7989 -0.4353 -0.6915
 3250TIP3   OH2 9755   0.071   2.396   3.745 -0.5960  0.2075  0.1435
 3250TIP3    H1 9756   0.050   2.483   3.779 -1.5392 -0.1465  0.5088
 3250TIP3    H2 9757  -0.012   2.348   3.750  0.2903 -1.2809  1.6525
 3251TIP3   OH2 9758   2.924   1.889   0.620 -0.0690  0.1683  0.2560
 3251TIP3    H1 9759   3.001   1.921   0.573  0.1825 -0.5275  0.1873
 3251TIP3    H2 9760   2.956   1.817   0.674 -0.4458  0.6696  1.1694
 3252TIP3   OH2 9761   5.565   4.966   1.099  0.2589  0.6839  0.4269
 3252TIP3    H1 9762   5.475   4.965   1.067  0.4051  1.2670 -0.0270
 3252TIP3    H2 9763   5.594   4.875   1.094 -0.1036  0.5880 -0.0084
 3253TIP3   OH2 9764   1.736   0.656   1.977 -0.5129  0.1258  0.5622
 3253TIP3    H1 9765   1.669   0.606   1.930 -0.6376 -1.5863  2.4074
 3253TIP3    H2 9766   1.813   0.654   1.921 -1.9071  2.1544 -1.6253
 3254TIP3   OH2 9767   4.867   5.858   2.045  0.8721 -0.6230 -0.1386
 3254TIP3    H1 9768   4.886   5.790   1.980 -1.2940 -0.4933 -0.9965
 3254TIP3    H2 9769   4.846   5.936   1.993  0.8280 -0.0193  0.7667
 3255TIP3   OH2 9770   0.628   1.494   1.538  0.6278  0.7145 -0.0361
 3255TIP3    H1 9771   0.550   1.440   1.531 -0.4798  2.3477 -0.8667
 3255TIP3    H2 9772   0.665   1.471   1.623  0.5772 -1.7578 -0.6110
 3256TIP3   OH2 9773   0.298   1.826   2.314 -0.4989  0.2365  0.1210
 3256TIP3    H1 9774   0.322   1.735   2.332 -0.6430 -0.1594 -1.5389
 3256TIP3    H2 9775   0.252   1.855   2.393  1.6650 -0.3184  1.6803
 3257TIP3   OH2 9776   3.643   4.596   3.504  0.1592  0.4762  0.2653
 3257TIP3    H1 9777   3.678   4.508   3.496  0.2741  0.4063  1.4322
 3257TIP3    H2 9778   3.635   4.627   3.414  0.1435 -0.7091 -0.1553
 3258TIP3   OH2 9779   1.192   0.510   2.520  0.2305  0.0085 -0.1934
 3258TIP3    H1 9780   1.186   0.518   2.615 -0.5199  0.4717 -0.2746
 3258TIP3    H2 9781   1.119   0.561   2.487 -0.7571 -1.8219 -0.9682
 3259TIP3   OH2 9782   5.248   1.612   4.506  0.5495  0.4169  0.0818
 3259TIP3    H1 9783   5.175   1.572   4.460 -0.8068 -0.8154  3.0133
 3259TIP3    H2 9784   5.282   1.542   4.563  2.0542  1.7957  0.9832
 3260TIP3   OH2 9785   3.226   3.566   1.150  0.3205 -0.6873 -0.3010
 3260TIP3    H1 9786   3.171   3.514   1.091  0.0896 -0.3130 -0.4195
 3260TIP3    H2 9787   3.182   3.651   1.155  1.0458 -0.2802 -0.6368
 3261TIP3   OH2 9788   4.271   0.580   0.841 -0.1388 -0.3210 -0.4842
 3261TIP3    H1 9789   4.263   0.653   0.902 -0.3635 -0.0681 -0.8147
 3261TIP3    H2 9790   4.182   0.545   0.833 -0.2169  0.0076 -1.1075
 3262TIP3   OH2 9791   1.831   1.915   2.681  0.1580 -0.1583  0.0274
 3262TIP3    H1 9792   1.924   1.910   2.702 -0.0629 -0.1924  1.0896
 3262TIP3    H2 9793   1.826   1.967   2.601  0.9629  1.5642  1.0358
 3263TIP3   OH2 9794   1.233   3.731   4.080 -0.1568 -0.1579  0.2472
 3263TIP3    H1 9795   1.221   3.666   4.011  2.6916  0.6864 -1.1925
 3263TIP3    H2 9796   1.144   3.758   4.103 -1.3121  0.0904 -3.6936
 3264TIP3   OH2 9797   2.770   5.348   3.576 -0.2806 -0.0309  0.5960
 3264TIP3    H1 9798   2.753   5.426   3.629  1.4268  0.2056  0.8433
 3264TIP3    H2 9799   2.804   5.284   3.639  0.2108 -0.2954  0.0626
 3265TIP3   OH2 9800   0.340   2.813   0.154 -0.3596 -0.6903  0.3733
 3265TIP3    H1 9801   0.391   2.753   0.100  0.4556  0.4312 -0.1599
 3265TIP3    H2 9802   0.250   2.802   0.124  0.0955  0.0336 -1.4109
 3266TIP3   OH2 9803   4.489   2.402   3.077 -0.1892 -0.6777 -0.1754
 3266TIP3    H1 9804   4.490   2.308   3.057 -0.2124 -0.7238  0.0396
 3266TIP3    H2 9805   4.527   2.443   2.999  2.2826 -1.0557  0.7267
 3267TIP3   OH2 9806   5.309   5.223   2.654 -0.0351 -0.3395  0.3796
 3267TIP3    H1 9807   5.316   5.167   2.577  0.0665 -0.3958  0.4294
 3267TIP3    H2 9808   5.218   5.215   2.682  0.0901 -0.8464  0.6598
 3268TIP3   OH2 9809   1.854  -0.012   4.541  0.0491 -0.3521 -0.8397
 3268TIP3    H1 9810   1.943  -0.046   4.541  0.3920  0.3058  1.8751
 3268TIP3    H2 9811   1.863   0.079   4.572 -1.6064 -0.5367  0.3191
 3269TIP3   OH2 9812   0.084   0.530   1.546 -0.0613 -0.1886  0.0764
 3269TIP3    H1 9813   0.098   0.443   1.584 -0.5261 -0.1590  0.3187
 3269TIP3    H2 9814   0.120   0.590   1.611 -0.1140 -0.1769  0.0943
 3270TIP3   OH2 9815   3.653   0.824   4.714  0.1430  0.0377 -0.3154
 3270TIP3    H1 9816   3.679   0.892   4.777 -1.1881 -0.4376  0.7893
 3270TIP3    H2 9817   3.717   0.831   4.644  0.8302  1.5440  0.4167
 3271TIP3   OH2 9818   5.457   4.491   3.619 -0.3404 -0.4365 -0.9840
 3271TIP3    H1 9819   5.481   4.567   3.566  0.9100 -1.3813 -1.8533
 3271TIP3    H2 9820   5.363   4.481   3.606 -0.8399  1.8228  0.3617
 3272TIP3   OH2 9821   6.120   0.476   0.767 -0.2867  0.1108 -0.0810
 3272TIP3    H1 9822   6.121   0.437   0.854 -1.8087 -1.1656 -0.5715
 3272TIP3    H2 9823   6.203   0.449   0.728 -0.6317 -1.4172  0.1602
 3273TIP3   OH2 9824   3.595   2.590   4.218 -1.1964 -0.0084  0.2221
 3273TIP3    H1 9825   3.543   2.596   4.298 -1.3214  0.4576  0.1055
 3273TIP3    H2 9826   3.657   2.663   4.224  0.2713 -1.2294  0.9453
 3274TIP3   OH2 9827   1.438   3.285   0.549 -0.1787 -0.3758 -0.6252
 3274TIP3    H1 9828   1.469   3.331   0.471 -2.0730  2.2080  0.0159
 3274TIP3    H2 9829   1.343   3.294   0.546 -0.4725 -2.4012  0.7574
 3275TIP3   OH2 9830   4.098   0.222   5.092  0.2024  0.1474  0.6531
 3275TIP3    H1 9831   4.126   0.304   5.051  0.7613 -0.4563 -0.2095
 3275TIP3    H2 9832   4.173   0.164   5.084  0.0916 -0.2087  1.9891
 3276TIP3   OH2 9833   3.406   1.272   0.081  0.0920  0.7855  0.2868
 3276TIP3    H1 9834   3.369   1.331   0.145 -0.6686  0.3563  0.2558
 3276TIP3    H2 9835   3.402   1.186   0.122 -0.5441  0.4822 -0.3733
 3277TIP3   OH2 9836   3.287   1.320   2.765 -0.2770 -0.5818  0.1564
 3277TIP3    H1 9837   3.265   1.228   2.754 -0.5076 -0.4558 -0.5027
 3277TIP3    H2 9838   3.381   1.325   2.747 -0.2372 -0.7066  0.3262
 3278TIP3   OH2 9839   3.398   2.356   0.420  0.2755  0.4669 -0.0104
 3278TIP3    H1 9840   3.371   2.439   0.382  1.6585  1.0292  0.1794
 3278TIP3    H2 9841   3.319   2.321   0.461 -0.8996  0.5611 -2.0571
 3279TIP3   OH2 9842   2.229   2.203   0.855 -0.0355 -0.5490  0.4231
 3279TIP3    H1 9843   2.194   2.212   0.766  1.7557 -2.3035 -0.5492
 3279TIP3    H2 9844   2.316   2.241   0.851  0.1390 -0.8251  1.3769
 3280TIP3   OH2 9845   6.232   2.847   2.830  0.0167 -0.1145  0.2418
 3280TIP3    H1 9846   6.220   2.753   2.838  2.6104 -0.4298  1.2830
 3280TIP3    H2 9847   6.147   2.884   2.855 -0.7332 -2.1145  0.8420
 3281TIP3   OH2 9848   4.201   5.355   0.679  0.2796 -0.5488  0.2787
 3281TIP3    H1 9849   4.234   5.444   0.669  1.4411 -1.0622 -0.6574
 3281TIP3    H2 9850   4.273   5.299   0.652 -1.3463 -1.7179 -2.0213
 3282TIP3   OH2 9851   5.743   0.012   4.358  0.2198 -0.6561  0.1932
 3282TIP3    H1 9852   5.660   0.058   4.358  0.7136  0.2643  1.3871
 3282TIP3    H2 9853   5.771   0.013   4.266  0.4901  1.9697  0.2321
 3283TIP3   OH2 9854   5.656   3.000   1.920  0.1541 -0.1503 -0.0987
 3283TIP3    H1 9855   5.714   3.055   1.973 -0.4840  0.8421 -0.4044
 3283TIP3    H2 9856   5.577   3.052   1.908 -0.2402 -0.8969 -0.9085
 3284TIP3   OH2 9857   1.618   5.242   0.091  0.0843 -0.0937  0.3847
 3284TIP3    H1 9858   1.532   5.227   0.130  0.2678  0.1918  0.9083
 3284TIP3    H2 9859   1.602   5.247  -0.003 -0.6521  1.1405  0.5576
 3285TIP3   OH2 9860   2.027   2.223   4.090 -0.4170  0.1951  0.0257
 3285TIP3    H1 9861   2.050   2.143   4.139  2.2769  0.2484 -0.9914
 3285TIP3    H2 9862   1.973   2.191   4.017  3.3191 -1.4054 -2.3535
 3286TIP3   OH2 9863   3.003   1.004   2.621 -0.1767 -0.0106 -0.2343
 3286TIP3    H1 9864   3.035   1.072   2.680 -0.2617 -0.6184  0.5293
 3286TIP3    H2 9865   2.961   0.940   2.679  0.0825 -0.8132 -0.9158
 3287TIP3   OH2 9866   5.921   5.753   3.633 -0.7285  0.4357  0.4546
 3287TIP3    H1 9867   5.857   5.718   3.571 -0.2451  0.8133 -0.2691
 3287TIP3    H2 9868   5.925   5.687   3.703  0.6033 -1.2887 -1.1478
 3288TIP3   OH2 9869   4.340   3.673   4.043  0.0125 -0.2117  0.1227
 3288TIP3    H1 9870   4.247   3.657   4.060  0.1815  0.0095  1.3237
 3288TIP3    H2 9871   4.343   3.761   4.006 -0.1720  0.1677  0.9972
 3289TIP3   OH2 9872   2.400   3.508   2.774  1.0221 -0.1489  0.6121
 3289TIP3    H1 9873   2.379   3.586   2.825  0.3982 -0.6866  1.1922
 3289TIP3    H2 9874   2.347   3.516   2.694 -0.4481 -0.8470  1.4743
 3290TIP3   OH2 9875   0.945   4.566   4.396 -0.4736  0.2562  0.0163
 3290TIP3    H1 9876   0.856   4.532   4.391 -0.1720 -0.3389 -2.1751
 3290TIP3    H2 9877   0.939   4.639   4.458 -3.1668  2.1956 -2.3043
 3291TIP3   OH2 9878   3.766   2.880   2.956  0.1255  0.1281  0.0278
 3291TIP3    H1 9879   3.700   2.812   2.942  1.3146 -1.1667  0.5097
 3291TIP3    H2 9880   3.819   2.877   2.876  1.4425 -1.0083  0.8961
 3292TIP3   OH2 9881   5.064   0.313   3.334 -0.3230 -0.2257 -0.1092
 3292TIP3    H1 9882   4.974   0.345   3.334  0.0842  1.0152  0.6291
 3292TIP3    H2 9883   5.115   0.387   3.302  0.4212 -1.0042 -0.7636
 3293TIP3   OH2 9884   2.282   4.798   2.868  0.1510  0.2064 -1.0548
 3293TIP3    H1 9885   2.310   4.848   2.945  0.0794  1.3717 -1.7674
 3293TIP3    H2 9886   2.360   4.751   2.840 -0.0967 -1.1674  0.3933
 3294TIP3   OH2 9887   4.661   3.203   4.367  0.0314  0.3183  0.1561
 3294TIP3    H1 9888   4.621   3.250   4.293  0.5156  1.7800  0.7725
 3294TIP3    H2 9889   4.705   3.272   4.417  0.8319 -0.8368  1.0862
 3295TIP3   OH2 9890   1.146   5.481   4.566 -0.3117  0.4951  0.1982
 3295TIP3    H1 9891   1.194   5.425   4.505 -0.0859 -0.7257  1.4130
 3295TIP3    H2 9892   1.062   5.437   4.578 -0.8058  1.3400 -0.1107
 3296TIP3   OH2 9893   4.089   3.939   0.179  0.0702 -0.3576  0.2264
 3296TIP3    H1 9894   4.070   3.845   0.180  0.5124 -0.4514 -0.0462
 3296TIP3    H2 9895   4.003   3.981   0.182 -0.1138 -0.7665  0.9155
 3297TIP3   OH2 9896   4.234   2.013   1.230 -0.3308  0.2224  0.6735
 3297TIP3    H1 9897   4.232   1.925   1.191 -0.4326  0.7867 -0.6579
 3297TIP3    H2 9898   4.159   2.058   1.190 -1.5844  0.2878  2.9485
 3298TIP3   OH2 9899   3.372   5.073   4.604 -0.5773 -0.6260  0.0471
 3298TIP3    H1 9900   3.462   5.047   4.583 -0.6074 -0.8003  0.1293
 3298TIP3    H2 9901   3.357   5.036   4.691  0.5748  2.5801  1.7816
 3299TIP3   OH2 9902   5.858   4.565   1.777  1.0622  0.3662  0.4366
 3299TIP3    H1 9903   5.871   4.504   1.851 -1.3069  0.2453  0.8478
 3299TIP3    H2 9904   5.821   4.644   1.818  0.2697  0.5161 -0.5338
 3300TIP3   OH2 9905   6.044   5.280   1.251  0.2796  0.4786  0.7963
 3300TIP3    H1 9906   6.043   5.329   1.333  0.2206  0.6695  0.6822
 3300TIP3    H2 9907   6.095   5.202   1.270 -0.6607 -0.0300  1.3315
 3301TIP3   OH2 9908   3.148   2.705   4.221  0.2967  0.6652  0.5075
 3301TIP3    H1 9909   3.240   2.733   4.221  0.6275 -0.1924 -1.8732
 3301TIP3    H2 9910   3.139   2.654   4.302  2.0798  0.3152  0.5334
 3302TIP3   OH2 9911   6.015   3.685   0.180  0.0417 -0.4090 -0.0291
 3302TIP3    H1 9912   6.037   3.771   0.216 -1.9227  0.1867 -0.0817
 3302TIP3    H2 9913   6.007   3.628   0.256  0.9735 -0.4679  0.0356
 3303TIP3   OH2 9914   2.464   4.364   4.410  0.0295  0.4725 -0.0802
 3303TIP3    H1 9915   2.533   4.314   4.366  0.9536  1.7512 -0.1650
 3303TIP3    H2 9916   2.497   4.454   4.409 -1.5664  1.0773  0.0693
 3304TIP3   OH2 9917   2.372   0.494   0.561 -0.0472 -0.4569  0.0205
 3304TIP3    H1 9918   2.465   0.497   0.584 -0.3320  0.3296  1.1639
 3304TIP3    H2 9919   2.359   0.570   0.505  0.0792 -0.8311 -0.5298
 3305TIP3   OH2 9920   0.932   2.179   5.110 -0.5402 -0.7673  0.4702
 3305TIP3    H1 9921   1.014   2.136   5.084 -0.7454 -0.3003 -1.0137
 3305TIP3    H2 9922   0.914   2.241   5.040  0.1670  2.4302  2.8846
 3306TIP3   OH2 9923   4.721   2.151   1.443  0.6809  0.6121  0.1627
 3306TIP3    H1 9924   4.789   2.212   1.417  1.9782 -0.3185  1.2436
 3306TIP3    H2 9925   4.764   2.065   1.443 -1.1508 -0.3903 -1.5720
 3307TIP3   OH2 9926   5.886   2.848   4.036 -0.3448 -0.4280 -0.4256
 3307TIP3    H1 9927   5.834   2.835   3.957  0.2345 -1.0711 -0.7204
 3307TIP3    H2 9928   5.931   2.932   4.023  0.4821 -0.9709 -1.2261
 3308TIP3   OH2 9929   5.072   3.292   3.540 -0.5135  0.1725  0.0466
 3308TIP3    H1 9930   5.045   3.351   3.610 -0.3841 -0.3570  0.5515
 3308TIP3    H2 9931   5.081   3.207   3.583  0.5260  0.0410 -0.4015
 3309TIP3   OH2 9932   3.073   1.719   0.036  0.2982 -0.6521 -0.4058
 3309TIP3    H1 9933   3.027   1.708  -0.047 -0.4947 -0.2983 -0.0279
 3309TIP3    H2 9934   3.095   1.812   0.040 -0.9455 -0.3692  0.4081
 3310TIP3   OH2 9935   4.660   0.475   1.887 -0.4779 -0.6280 -0.1309
 3310TIP3    H1 9936   4.577   0.510   1.918  0.8329  0.8095  2.0142
 3310TIP3    H2 9937   4.645   0.381   1.877 -2.3386 -0.3965  0.1727
 3311TIP3   OH2 9938   2.941   3.176   0.327 -0.0352 -0.6313  0.2562
 3311TIP3    H1 9939   2.974   3.190   0.416 -1.9268  0.8952  0.7876
 3311TIP3    H2 9940   2.855   3.136   0.338 -1.2222  1.4664 -0.7267
 3312TIP3   OH2 9941   1.980   0.457   4.144  0.3328 -0.5490  0.2904
 3312TIP3    H1 9942   2.007   0.548   4.135  0.4003 -0.6004 -0.0377
 3312TIP3    H2 9943   2.013   0.413   4.066 -1.7566 -0.3423 -0.7924
 3313TIP3   OH2 9944   5.054   0.628   1.171  0.0710 -0.5682 -0.1328
 3313TIP3    H1 9945   5.031   0.646   1.262  0.3744 -2.3048  0.3402
 3313TIP3    H2 9946   5.148   0.608   1.173  0.7627  2.1770 -1.3292
 3314TIP3   OH2 9947   5.084   4.531   4.920 -0.0760  0.0901  0.2351
 3314TIP3    H1 9948   5.017   4.597   4.902 -0.0282 -0.1571 -0.9527
 3314TIP3    H2 9949   5.043   4.471   4.983 -0.9459  0.0095 -0.3877
 3315TIP3   OH2 9950   0.614   2.800   2.448 -0.1430  0.5161 -0.0734
 3315TIP3    H1 9951   0.569   2.882   2.468  0.9374  1.0490  0.2395
 3315TIP3    H2 9952   0.609   2.749   2.529  2.1910  1.7192  0.9235
 3316TIP3   OH2 9953   2.702   4.019   1.631  0.1061 -0.4339  0.2862
 3316TIP3    H1 9954   2.759   3.965   1.577  0.9083  0.2227  0.4470
 3316TIP3    H2 9955   2.741   4.015   1.718  0.7064  1.1143  0.1104
 3317TIP3   OH2 9956   4.919   5.647   1.576 -0.8236  0.4617  0.0607
 3317TIP3    H1 9957   4.984   5.577   1.568  0.0380  1.1973  0.3743
 3317TIP3    H2 9958   4.926   5.696   1.494 -0.6370  0.8213  0.2886
 3318TIP3   OH2 9959   6.050   1.539   5.196  0.4510 -0.0260  0.2706
 3318TIP3    H1 9960   5.996   1.617   5.181  0.8604  0.0758 -0.8671
 3318TIP3    H2 9961   6.054   1.496   5.110 -0.0522 -1.5078  0.9593
 3319TIP3   OH2 9962   0.699   1.753   1.489 -0.5013 -0.3232 -0.7482
 3319TIP3    H1 9963   0.663   1.666   1.504  0.5185 -0.3342  2.2603
 3319TIP3    H2 9964   0.665   1.806   1.560  0.6507  1.1573 -1.2528
 3320TIP3   OH2 9965   5.094   1.049   1.940 -0.0878  0.2411  0.0249
 3320TIP3    H1 9966   5.110   1.060   1.847 -1.3009  1.5971 -0.0582
 3320TIP3    H2 9967   5.163   1.098   1.983  0.5481 -0.4922 -0.1402
 3321TIP3   OH2 9968   4.918   4.644   2.221  0.0758  0.1264 -0.2282
 3321TIP3    H1 9969   4.980   4.639   2.294  1.2909 -0.0915 -1.2295
 3321TIP3    H2 9970   4.970   4.682   2.149 -1.1001  0.3899 -0.9635
 3322TIP3   OH2 9971   3.105   1.932   2.078 -0.3233  0.1187 -0.1235
 3322TIP3    H1 9972   3.068   1.920   2.165 -0.9925 -1.0823 -0.5417
 3322TIP3    H2 9973   3.165   2.005   2.087 -1.6427  1.1184  0.9464
 3323TIP3   OH2 9974   3.967   2.156   4.126  0.5902  0.5032  0.4663
 3323TIP3    H1 9975   4.007   2.224   4.071 -2.9461  0.6445 -2.3955
 3323TIP3    H2 9976   3.985   2.074   4.079  0.0043  0.2299  0.7119
 3324TIP3   OH2 9977   4.160   1.302   4.423 -0.6392  0.5557 -0.0361
 3324TIP3    H1 9978   4.227   1.244   4.385 -0.8034 -0.3023  0.9282
 3324TIP3    H2 9979   4.081   1.247   4.428 -0.9648  1.0485  0.3386
 3325TIP3   OH2 9980   5.851   0.176   4.887 -0.4118  0.4765 -0.1819
 3325TIP3    H1 9981   5.774   0.172   4.830  0.2349  2.0719 -1.2623
 3325TIP3    H2 9982   5.902   0.251   4.853  0.1013  1.3979  2.3812
 3326TIP3   OH2 9983   1.481   5.359   3.376  0.0904  0.2178 -0.4047
 3326TIP3    H1 9984   1.547   5.383   3.311  1.3206 -2.5203 -0.2726
 3326TIP3    H2 9985   1.398   5.371   3.330  0.9253 -2.1903 -2.8191
 3327TIP3   OH2 9986   0.920   3.189   1.008  0.1650  0.3463 -0.3053
 3327TIP3    H1 9987   0.895   3.131   0.936  0.7660 -2.3877  1.5193
 3327TIP3    H2 9988   0.837   3.218   1.045 -0.1985 -0.4674 -0.4546
 3328TIP3   OH2 9989   4.552   5.565   4.231  0.1251  0.2429 -0.4803
 3328TIP3    H1 9990   4.585   5.481   4.260  0.9315  0.0524 -1.8843
 3328TIP3    H2 9991   4.630   5.619   4.218 -0.3946  1.3375  0.7328
 3329TIP3   OH2 9992   0.946   0.766   0.644 -0.0027  0.7316 -0.3597
 3329TIP3    H1 9993   0.978   0.842   0.692 -1.0563  0.6095  0.5717
 3329TIP3    H2 9994   1.007   0.696   0.668 -0.2606  0.7803  0.4772
 3330TIP3   OH2 9995   0.526   0.689   5.065  0.2657 -0.2433  0.2877
 3330TIP3    H1 9996   0.450   0.643   5.100  1.2621 -1.4364  0.9435
 3330TIP3    H2 9997   0.599   0.627   5.074  1.5191  1.1986  0.5527
 3331TIP3   OH2 9998   2.754   4.366   1.028  0.1658 -0.0810  0.4530
 3331TIP3    H1 9999   2.771   4.370   1.122 -0.4505  0.9883  0.5370
 3331TIP3    H210000   2.663   4.337   1.021  0.3214 -0.5044  0.1761
 3332TIP3   OH210001   3.931   0.669   0.433 -0.2478  0.4221  0.3724
 3332TIP3    H110002   3.970   0.685   0.519  0.9255  2.0790 -0.4067
 3332TIP3    H210003   3.915   0.757   0.398 -0.0467 -0.2019 -1.3729
 3333TIP3   OH210004   3.282   0.917   4.180  0.2848  0.4604  0.4891
 3333TIP3    H110005   3.188   0.903   4.169  0.6220 -1.9028  0.1765
 3333TIP3    H210006   3.317   0.916   4.091  0.6316  1.3373  0.6055
 3334TIP3   OH210007   5.514   2.057   3.666 -0.2768  0.0186 -0.7076
 3334TIP3    H110008   5.460   2.062   3.587  1.3658  0.1000 -1.8927
 3334TIP3    H210009   5.598   2.022   3.635  1.5287  3.0218  0.3723
 3335TIP3   OH210010   2.156   2.435   3.880  0.1122  0.8918  0.0654
 3335TIP3    H110011   2.165   2.383   3.960  3.6938  1.2417  0.0379
 3335TIP3    H210012   2.151   2.525   3.911 -2.5317  0.8727 -0.0520
 3336TIP3   OH210013   4.079   5.136   0.059 -0.1509  0.0670 -0.0753
 3336TIP3    H110014   4.121   5.072   0.118  0.1784  0.2080 -0.1532
 3336TIP3    H210015   4.085   5.219   0.106 -0.8016 -0.0002  0.1345
 3337TIP3   OH210016   4.671   1.698   1.540 -0.6438 -0.3625  0.3974
 3337TIP3    H110017   4.679   1.762   1.469 -3.0607  1.2393  1.4226
 3337TIP3    H210018   4.613   1.631   1.505 -3.5669  1.4767  1.3586
 3338TIP3   OH210019   5.383   5.928   4.269  0.0228 -0.3441 -0.1006
 3338TIP3    H110020   5.370   5.882   4.186  0.9283  3.2517 -2.4828
 3338TIP3    H210021   5.462   5.888   4.307  0.6906 -0.8796 -1.9480
 3339TIP3   OH210022   5.286   3.529   1.826  0.0570 -0.3561  0.3713
 3339TIP3    H110023   5.215   3.466   1.823 -1.6501  1.5109 -0.9955
 3339TIP3    H210024   5.302   3.552   1.734  1.7150  0.0534  0.7253
 3340TIP3   OH210025   6.296   0.929   0.548 -0.8167 -0.1020 -0.3213
 3340TIP3    H110026   6.332   0.861   0.605  0.1471  1.6778  1.2825
 3340TIP3    H210027   6.345   0.920   0.467 -1.3303 -1.8603 -0.4881
 3341TIP3   OH210028   0.075   4.421   3.112  0.6801 -0.1006 -0.6593
 3341TIP3    H110029   0.134   4.496   3.100  0.3859  0.0298 -1.3360
 3341TIP3    H210030   0.094   4.364   3.037  1.3535 -1.0183  0.1814
 3342TIP3   OH210031   4.242   2.833   4.476 -0.0585 -0.6352  0.1258
 3342TIP3    H110032   4.209   2.765   4.417  0.9658  0.1871 -1.4549
 3342TIP3    H210033   4.336   2.818   4.480  0.0561  0.1414  0.5079
 3343TIP3   OH210034   1.239   4.241   5.157  0.3149  0.2669  0.6134
 3343TIP3    H110035   1.152   4.219   5.192  0.8977 -0.9149  1.3789
 3343TIP3    H210036   1.265   4.163   5.108  0.5369  0.9999 -0.4739
 3344TIP3   OH210037   3.632   4.757   2.075 -0.4675 -0.1980  0.3261
 3344TIP3    H110038   3.679   4.675   2.056  0.1528 -0.0653  1.2314
 3344TIP3    H210039   3.567   4.764   2.005 -0.0843 -1.1250 -0.1399
 3345TIP3   OH210040   3.284   0.443   2.307 -0.0370 -0.3595 -0.3084
 3345TIP3    H110041   3.203   0.431   2.256  0.1945 -0.8535 -0.5593
 3345TIP3    H210042   3.349   0.390   2.262  0.9176  1.4803 -1.2287
 3346TIP3   OH210043   3.579   1.811   0.313  0.3623  0.4983 -0.1454
 3346TIP3    H110044   3.641   1.822   0.242 -0.5839  0.8894 -0.9255
 3346TIP3    H210045   3.634   1.800   0.391  1.4779 -1.7311 -1.1327
 3347TIP3   OH210046   5.031   4.755   3.957  0.2030 -0.3613 -0.6886
 3347TIP3    H110047   5.108   4.807   3.935  2.1980 -3.1145 -0.5956
 3347TIP3    H210048   5.033   4.747   4.052 -0.8495  0.4135 -0.5761
 3348TIP3   OH210049   2.355   2.702   2.359  0.1603 -0.5860  0.5597
 3348TIP3    H110050   2.300   2.629   2.329  0.4462 -1.2086  1.4939
 3348TIP3    H210051   2.331   2.775   2.302 -1.7651 -0.7805  1.0489
 3349TIP3   OH210052   5.117   3.867   3.207  0.1532 -0.5154  0.0592
 3349TIP3    H110053   5.023   3.861   3.188 -0.2830  2.1989  1.0469
 3349TIP3    H210054   5.143   3.952   3.172  2.0016 -0.7204  0.8492
 3350TIP3   OH210055   4.347   1.720   3.047  0.2290  0.1315 -0.0075
 3350TIP3    H110056   4.273   1.732   3.106 -0.0258  0.8908 -0.4671
 3350TIP3    H210057   4.335   1.787   2.979  1.2335  0.1418 -0.1906
 3351TIP3   OH210058   3.288   1.160   1.452 -0.5272 -0.0683  0.0742
 3351TIP3    H110059   3.337   1.215   1.390 -1.1602  0.8114  0.3415
 3351TIP3    H210060   3.303   1.200   1.537 -0.3394 -0.7958  0.3953
 3352TIP3   OH210061   0.105   3.731   4.204  0.6836  0.5652 -0.5124
 3352TIP3    H110062   0.020   3.740   4.246  1.6061  2.0678  1.1676
 3352TIP3    H210063   0.129   3.819   4.177  1.5687  0.1234 -1.2496
 3353TIP3   OH210064   3.930   4.936   1.939 -0.0742 -0.7337 -0.2825
 3353TIP3    H110065   3.932   4.877   2.014  0.6693 -1.5363 -0.9105
 3353TIP3    H210066   4.001   4.905   1.882  0.7107  1.1105 -0.3782
 3354TIP3   OH210067   2.031   2.296   3.629  0.0756  0.4367 -0.4441
 3354TIP3    H110068   2.084   2.321   3.704  2.4008 -0.3426 -1.7082
 3354TIP3    H210069   2.042   2.367   3.566  0.3144 -0.1029 -1.0299
 3355TIP3   OH210070   0.654   2.380   1.505 -0.4932 -0.2296 -0.0680
 3355TIP3    H110071   0.665   2.474   1.522  0.7936 -0.3059 -0.3004
 3355TIP3    H210072   0.722   2.338   1.558 -1.0625 -1.0356  0.0388
 3356TIP3   OH210073   5.003   0.017   3.476  0.1312 -0.0986 -0.2937
 3356TIP3    H110074   5.028  -0.042   3.405  0.1132  0.7812 -1.0531
 3356TIP3    H210075   5.017   0.105   3.440  0.2911  0.3646  0.8577
 3357TIP3   OH210076   1.992   2.500   4.424 -0.2809  0.2373 -0.1761
 3357TIP3    H110077   2.009   2.593   4.439 -2.2435  0.5109  0.5850
 3357TIP3    H210078   2.067   2.456   4.465  0.5530  1.4480 -0.3201
 3358TIP3   OH210079   5.857   5.245   2.680 -0.1683  0.0581  0.3489
 3358TIP3    H110080   5.849   5.152   2.702  1.3413 -0.3759 -0.7752
 3358TIP3    H210081   5.767   5.277   2.677 -0.7940 -1.6784 -0.4942
 3359TIP3   OH210082   2.196   0.856   3.061 -0.0140  0.0010  0.3558
 3359TIP3    H110083   2.121   0.796   3.074  0.8559 -1.0851  0.5202
 3359TIP3    H210084   2.230   0.833   2.975  0.0652  0.5732  0.2349
 3360TIP3   OH210085   1.538   5.533   4.744  0.0401  0.2754  0.1903
 3360TIP3    H110086   1.494   5.505   4.824 -1.2008 -0.9073 -0.8682
 3360TIP3    H210087   1.542   5.629   4.751  0.6137  0.1637  1.9674
 3361TIP3   OH210088   1.412   5.479   2.080  0.2070  0.4401  0.2121
 3361TIP3    H110089   1.487   5.428   2.049  0.0246 -0.7193  1.5865
 3361TIP3    H210090   1.342   5.459   2.018  0.9739  1.4669 -1.0349
 3362TIP3   OH210091   1.450   3.754   0.739 -0.3983 -0.0554 -0.3539
 3362TIP3    H110092   1.491   3.775   0.823  1.9178 -2.5031 -0.7329
 3362TIP3    H210093   1.388   3.685   0.760  0.3053 -0.7879 -0.6489
 3363TIP3   OH210094   0.705   5.083   4.546  0.4566 -0.2186  0.0122
 3363TIP3    H110095   0.733   5.023   4.615  1.0768 -0.2671 -0.2732
 3363TIP3    H210096   0.644   5.032   4.493 -0.1183 -0.1412  0.5941
 3364TIP3   OH210097   0.185   2.132   5.161 -0.1027 -0.6666 -0.0987
 3364TIP3    H110098   0.148   2.062   5.109 -2.0401 -0.0187  0.3069
 3364TIP3    H210099   0.112   2.163   5.215  0.4688  2.0687 -0.7219
 3365TIP3   OH210100   5.075   1.813   0.227 -0.2691 -0.6111 -0.2604
 3365TIP3    H110101   5.150   1.753   0.234 -0.2625 -0.6168 -0.3805
 3365TIP3    H210102   5.041   1.819   0.316 -1.7892 -2.7145 -0.6473
 3366TIP3   OH210103   2.117   2.504   1.714  0.0847 -0.0466 -0.1974
 3366TIP3    H110104   2.116   2.518   1.620 -0.5942  2.0065  0.0635
 3366TIP3    H210105   2.206   2.526   1.741  0.2977 -0.6973 -0.3404
 3367TIP3   OH210106   5.326   0.539   3.403 -0.5836 -0.0262  0.3148
 3367TIP3    H110107   5.275   0.534   3.321  0.0005 -1.9984  0.0062
 3367TIP3    H210108   5.263   0.567   3.469 -1.7055 -0.8682 -0.3632
 3368TIP3   OH210109   2.263   4.277   0.666  0.0406  0.4499  0.2694
 3368TIP3    H110110   2.338   4.251   0.613 -0.9334 -1.0449 -0.4486
 3368TIP3    H210111   2.206   4.324   0.605 -0.4899 -0.1310  0.3099
 3369TIP3   OH210112   3.529   0.547   3.941  0.1120  0.0354 -0.4439
 3369TIP3    H110113   3.464   0.492   3.985  0.3971  1.4152  1.8371
 3369TIP3    H210114   3.476   0.610   3.892 -0.2536  0.0872  0.0059
 3370TIP3   OH210115   4.654   5.145   2.915 -0.3720 -0.0994 -0.4318
 3370TIP3    H110116   4.741   5.106   2.923 -0.0999  0.7008  0.9866
 3370TIP3    H210117   4.625   5.122   2.827  0.6513 -1.6378 -0.4095
 3371TIP3   OH210118   5.754   0.454   2.859 -0.3439 -0.2842  0.0402
 3371TIP3    H110119   5.789   0.455   2.948 -0.2183  0.1154 -0.0116
 3371TIP3    H210120   5.739   0.362   2.840 -0.0712 -0.3957  0.3589
 3372TIP3   OH210121   3.354   1.997   3.352 -0.0422  0.3247 -0.6873
 3372TIP3    H110122   3.339   2.066   3.417 -2.6817 -0.1461 -0.7000
 3372TIP3    H210123   3.292   2.017   3.282 -0.7979 -1.9733 -0.7370
 3373TIP3   OH210124   1.187   3.270   0.822 -0.2281 -0.0594  0.4991
 3373TIP3    H110125   1.107   3.293   0.869 -1.3871 -1.5437 -0.6055
 3373TIP3    H210126   1.169   3.182   0.787  1.7521 -0.2748 -0.1123
 3374TIP3   OH210127   2.750   2.999   0.461 -0.3280 -0.1624  0.1212
 3374TIP3    H110128   2.696   2.924   0.437  0.3248 -0.5007 -0.3276
 3374TIP3    H210129   2.840   2.966   0.456 -0.0533  0.5417  0.3071
 3375TIP3   OH210130   4.003   0.871   1.496 -0.5240  0.1696  0.5565
 3375TIP3    H110131   3.972   0.786   1.529 -3.2394 -0.1235 -2.3119
 3375TIP3    H210132   4.053   0.848   1.418  1.5579  1.1113  1.5459
 3376TIP3   OH210133   1.313   5.823   1.592  0.0996  0.1904  0.4974
 3376TIP3    H110134   1.308   5.832   1.497  1.9515  1.9503  0.4769
 3376TIP3    H210135   1.315   5.729   1.608 -0.4512 -0.1368 -1.1775
 3377TIP3   OH210136   6.170   4.862   3.260 -0.0759  0.1757 -0.0924
 3377TIP3    H110137   6.165   4.786   3.202 -0.2818  1.3148 -1.6588
 3377TIP3    H210138   6.251   4.850   3.309  0.0698 -0.8756 -0.5626
 3378TIP3   OH210139   3.840   3.193   1.354  0.4226 -0.3501  0.5129
 3378TIP3    H110140   3.810   3.282   1.370  0.1549 -0.6267  1.6795
 3378TIP3    H210141   3.786   3.162   1.281  1.5536  0.9148 -0.9309
 3379TIP3   OH210142   1.748   4.125   0.381  0.7578 -0.1577 -0.0489
 3379TIP3    H110143   1.832   4.089   0.410  0.7930 -0.6563 -0.7311
 3379TIP3    H210144   1.771   4.180   0.306  0.4755 -0.2974 -0.2384
 3380TIP3   OH210145   5.952   0.563   4.365  0.1368  0.0698  0.3233
 3380TIP3    H110146   5.932   0.485   4.418 -0.1573  0.0204  0.1401
 3380TIP3    H210147   5.879   0.569   4.304 -0.1819  0.8707  0.7671
 3381TIP3   OH210148   2.025   4.326   0.924  0.5408 -0.2729  0.3685
 3381TIP3    H110149   2.093   4.336   0.991 -0.4336  0.7070  1.2540
 3381TIP3    H210150   2.003   4.416   0.899  0.2962 -0.6092 -0.6690
 3382TIP3   OH210151   4.497   4.238   0.889 -0.4491  0.2576  0.3928
 3382TIP3    H110152   4.468   4.231   0.980 -0.2225  1.0011  0.5308
 3382TIP3    H210153   4.541   4.155   0.870 -0.7444 -0.0067  0.8731
 3383TIP3   OH210154   5.893   1.884   0.391 -0.1136  0.0200 -0.2324
 3383TIP3    H110155   5.911   1.849   0.304 -0.5508  1.8884 -1.1325
 3383TIP3    H210156   5.824   1.828   0.426  0.3468 -0.9946 -0.9195
 3384TIP3   OH210157   5.607   2.208   2.181  0.7827 -0.0682  0.3178
 3384TIP3    H110158   5.565   2.157   2.111  0.1969 -0.8748  1.2200
 3384TIP3    H210159   5.689   2.239   2.143  0.5925 -0.7100 -0.6486
 3385TIP3   OH210160   4.011   1.553   3.385  0.0195  0.6313 -0.2082
 3385TIP3    H110161   4.072   1.613   3.428  0.9946 -0.3818 -0.1172
 3385TIP3    H210162   3.961   1.514   3.456  2.8045 -2.3363  0.3548
 3386TIP3   OH210163   3.384   2.823   4.743 -0.1918 -0.4026  0.3406
 3386TIP3    H110164   3.374   2.823   4.647  0.4487 -0.3858  0.2665
 3386TIP3    H210165   3.343   2.904   4.772 -0.4851 -0.4601  0.0869
 3387TIP3   OH210166   0.770   1.442   0.797 -0.1547 -0.3182 -0.2755
 3387TIP3    H110167   0.700   1.489   0.843  1.8290  1.4618  1.1125
 3387TIP3    H210168   0.730   1.415   0.714 -2.7967 -0.4281  0.9342
 3388TIP3   OH210169   6.078   5.892   2.025 -0.1490 -0.4468  0.2894
 3388TIP3    H110170   6.052   5.984   2.033  0.2707 -0.4039  1.3779
 3388TIP3    H210171   6.122   5.887   1.940 -1.2981  0.0677 -0.3565
 3389TIP3   OH210172   5.172   0.121   2.418 -0.3834 -0.1740 -0.0448
 3389TIP3    H110173   5.108   0.160   2.478  0.3052  0.2139  0.4463
 3389TIP3    H210174   5.159   0.167   2.335  0.7704  1.5275  0.6618
 3390TIP3   OH210175   4.063   2.064   2.471  0.1132  0.1138 -0.2153
 3390TIP3    H110176   4.128   1.995   2.480  0.7920  0.5736 -1.3998
 3390TIP3    H210177   4.053   2.099   2.560 -0.0905 -1.3370  0.3566
 3391TIP3   OH210178   3.874   5.457   1.068  0.2008  0.1530 -0.3168
 3391TIP3    H110179   3.794   5.505   1.091  0.7306  0.5762  0.6541
 3391TIP3    H210180   3.893   5.485   0.978 -0.0532  0.9917 -0.1143
 3392TIP3   OH210181   3.001   4.806   4.861  0.1171  0.5472  0.1215
 3392TIP3    H110182   3.021   4.891   4.822  1.7011  0.5410  0.8457
 3392TIP3    H210183   3.076   4.787   4.917 -0.6287 -0.9185  0.6801
 3393TIP3   OH210184   4.611   4.952   0.234  0.3575  0.3106  0.0089
 3393TIP3    H110185   4.687   4.936   0.290  0.3580 -0.9891 -0.3503
 3393TIP3    H210186   4.644   5.013   0.167  1.2900 -0.7621 -0.5494
 3394TIP3   OH210187   0.017   5.033   4.647 -0.1437  0.0420 -0.0541
 3394TIP3    H110188   0.003   4.940   4.665  1.7626 -0.3063 -0.2279
 3394TIP3    H210189   0.043   5.070   4.732  2.0946 -0.2326 -0.5656
 3395TIP3   OH210190   4.556   5.528   5.002 -0.1788 -0.1697  0.1804
 3395TIP3    H110191   4.648   5.510   4.983 -0.0479  1.2766 -0.6984
 3395TIP3    H210192   4.550   5.624   5.002 -1.7508 -0.2438 -0.1109
 3396TIP3   OH210193   3.171   5.695   3.128  0.0494 -0.5098  0.2506
 3396TIP3    H110194   3.145   5.633   3.196 -0.1045 -0.9869 -0.2369
 3396TIP3    H210195   3.217   5.642   3.063  0.9354  0.0840  0.3803
 3397TIP3   OH210196   1.040   3.902   0.046 -0.3388  0.0604 -0.0443
 3397TIP3    H110197   0.997   3.982   0.076  2.0315  0.8386  1.4878
 3397TIP3    H210198   1.063   3.921  -0.045 -0.5304  0.7840  0.0473
 3398TIP3   OH210199   3.423   1.810   0.861 -0.2390 -0.0513  0.1990
 3398TIP3    H110200   3.457   1.732   0.905  3.0590  0.6476 -0.8220
 3398TIP3    H210201   3.455   1.803   0.771 -0.2749  2.2075 -0.0536
 3399TIP3   OH210202   1.364   4.060   0.878  0.1576 -0.0153  0.5140
 3399TIP3    H110203   1.284   4.110   0.893 -0.3485 -0.4360 -0.6235
 3399TIP3    H210204   1.344   3.972   0.910  0.4405  0.0744  0.9400
 3400TIP3   OH210205   0.563   3.517   3.479 -0.6291 -0.1597 -0.4351
 3400TIP3    H110206   0.601   3.518   3.567 -0.7111  0.2182 -0.4034
 3400TIP3    H210207   0.482   3.567   3.488 -0.3729  0.3320 -0.8494
 3401TIP3   OH210208   3.283   2.020   4.341 -0.3196  0.2022  0.3977
 3401TIP3    H110209   3.345   1.977   4.400 -0.5831 -0.5042  0.1752
 3401TIP3    H210210   3.338   2.065   4.277 -0.0303  0.8778  1.0938
 3402TIP3   OH210211   3.116   5.029   4.428  0.3066 -0.4459 -0.6958
 3402TIP3    H110212   3.178   5.084   4.476  0.3125 -0.6580 -0.4569
 3402TIP3    H210213   3.171   4.959   4.391 -0.0282 -1.7923  1.1850
 3403TIP3   OH210214   6.155   4.096   3.478 -0.8769  0.3508  0.6437
 3403TIP3    H110215   6.062   4.089   3.501 -0.2061  0.2836  3.8994
 3403TIP3    H210216   6.174   4.189   3.488 -0.5115  0.3004  0.4040
 3404TIP3   OH210217   4.926   5.853   3.799  0.1082 -0.0630  0.2969
 3404TIP3    H110218   4.873   5.918   3.844 -0.4089 -2.2626  3.1845
 3404TIP3    H210219   5.006   5.847   3.851  1.0236 -0.3567 -1.0792
 3405TIP3   OH210220   3.851   0.806   4.415  0.1582  0.1904  0.4535
 3405TIP3    H110221   3.764   0.843   4.412 -0.3051 -0.8275  0.7426
 3405TIP3    H210222   3.847   0.729   4.357  1.2751  0.9420 -0.6751
 3406TIP3   OH210223   0.487   0.740   4.639 -0.5160 -0.1305  0.0048
 3406TIP3    H110224   0.544   0.672   4.675 -0.6445 -1.1362 -1.6085
 3406TIP3    H210225   0.526   0.762   4.554 -1.7852  0.1082 -0.5381
 3407TIP3   OH210226   0.662   5.475   2.684  0.0498  0.3500  0.4721
 3407TIP3    H110227   0.651   5.424   2.764  1.5947  1.4235  1.4078
 3407TIP3    H210228   0.651   5.566   2.711 -1.6164  0.6367 -0.9725
 3408TIP3   OH210229   1.564   4.500   3.906 -0.0374  0.0833 -0.4919
 3408TIP3    H110230   1.549   4.558   3.832  1.2757  1.2303  0.1067
 3408TIP3    H210231   1.584   4.415   3.866 -1.1313  0.2214 -1.3902
 3409TIP3   OH210232   5.498   3.331   0.126 -0.2372 -0.3543 -0.3275
 3409TIP3    H110233   5.467   3.343   0.215  0.2931 -2.0139  0.1240
 3409TIP3    H210234   5.453   3.252   0.095 -0.3584  0.1522 -1.5145
 3410TIP3   OH210235   5.793   0.369   4.139 -0.1541 -0.2874 -0.2081
 3410TIP3    H110236   5.790   0.320   4.222 -0.0784  1.5733  0.9536
 3410TIP3    H210237   5.860   0.325   4.087  1.2130 -0.3234  1.5077
 3411TIP3   OH210238   2.692   4.111   3.102 -0.1420 -0.0058  0.1598
 3411TIP3    H110239   2.646   4.101   3.186 -2.2906  2.5355 -0.5741
 3411TIP3    H210240   2.726   4.200   3.104  0.5703 -0.2220 -1.3114
 3412TIP3   OH210241   4.894   5.042   0.947 -0.0573 -0.3192 -0.3553
 3412TIP3    H110242   4.899   5.137   0.960 -0.3085 -0.1782 -1.2182
 3412TIP3    H210243   4.966   5.022   0.886 -0.6693 -0.5131 -1.0264
 3413TIP3   OH210244   3.900   3.414   4.283  0.1191  0.3362  0.0109
 3413TIP3    H110245   3.949   3.336   4.259  0.4543  0.1385  1.2513
 3413TIP3    H210246   3.948   3.451   4.357 -1.5035  0.2019  1.1931
 3414TIP3   OH210247   1.668   1.811   4.758 -0.0734 -0.2869 -0.1093
 3414TIP3    H110248   1.641   1.759   4.682  2.3885  0.3563 -1.5374
 3414TIP3    H210249   1.588   1.852   4.789 -1.5273 -2.2877 -0.9791
 3415TIP3   OH210250   1.917   3.075   4.232  0.1805  0.1986  0.6772
 3415TIP3    H110251   1.912   3.020   4.154 -3.5517  1.6076 -0.2734
 3415TIP3    H210252   1.861   3.031   4.296 -0.7543  1.5105  0.7971
 3416TIP3   OH210253   0.576   2.173   4.097 -0.0819  0.5041 -0.0393
 3416TIP3    H110254   0.546   2.094   4.052  0.8532 -0.0797  0.3416
 3416TIP3    H210255   0.642   2.210   4.038 -0.5069  1.0078 -0.2095
 3417TIP3   OH210256   2.829   2.348   5.046  0.5414  0.1498 -0.4939
 3417TIP3    H110257   2.892   2.284   5.013  2.0304  0.4509  1.5407
 3417TIP3    H210258   2.874   2.432   5.037  0.0818  0.4766  0.1663
 3418TIP3   OH210259   2.098   2.828   2.150  0.0515 -0.0378  0.3753
 3418TIP3    H110260   2.025   2.860   2.203  0.5865  1.0869  0.4522
 3418TIP3    H210261   2.088   2.872   2.066 -0.2670 -1.1192 -0.1794
 3419TIP3   OH210262   2.560   3.583   4.159  0.3042 -0.4651  0.1988
 3419TIP3    H110263   2.477   3.623   4.135 -0.0094 -1.1446  0.1351
 3419TIP3    H210264   2.549   3.557   4.250  1.3965  1.8535  1.0700
 3420TIP3   OH210265   2.151   5.036   4.922  0.0515  0.4778 -0.2268
 3420TIP3    H110266   2.209   5.048   4.997  0.6923 -0.1308 -0.6069
 3420TIP3    H210267   2.202   4.981   4.861 -0.4192  1.0215 -1.1365
 3421TIP3   OH210268   2.965   0.583   2.430  0.4216 -0.3844  0.8506
 3421TIP3    H110269   2.886   0.549   2.473  0.2211  0.1188  0.8770
 3421TIP3    H210270   2.944   0.674   2.409 -0.2060 -1.0793 -1.9711
 3422TIP3   OH210271   1.526   4.361   1.498  0.2635 -0.1247 -1.1462
 3422TIP3    H110272   1.540   4.335   1.407 -1.2154  1.7983 -1.9861
 3422TIP3    H210273   1.519   4.457   1.495 -1.2311 -0.1125  0.7822
 3423TIP3   OH210274   6.028   1.277   2.062  0.3098  0.0360  0.0301
 3423TIP3    H110275   5.945   1.319   2.039  0.2853 -1.1454 -2.4096
 3423TIP3    H210276   6.094   1.333   2.021  0.4234 -1.0106 -1.2773
 3424TIP3   OH210277   1.959   1.769   3.039  0.3550  0.5501 -0.1873
 3424TIP3    H110278   1.995   1.694   2.993  0.9176 -1.3644  3.1084
 3424TIP3    H210279   2.036   1.818   3.069  0.2873 -0.8602  2.6253
 3425TIP3   OH210280   4.507   1.182   1.880  0.1470 -0.1700  0.1419
 3425TIP3    H110281   4.560   1.124   1.934  1.0531  1.4128  1.0087
 3425TIP3    H210282   4.445   1.222   1.941  0.4936  0.8645 -0.1772
 3426TIP3   OH210283   0.418   1.338   1.620  0.0165 -0.1136 -0.0193
 3426TIP3    H110284   0.338   1.289   1.599 -0.0513 -1.0965  2.2270
 3426TIP3    H210285   0.391   1.400   1.687  0.8005  0.7743 -0.5063
 3427TIP3   OH210286   5.531   5.169   1.489  0.1865 -0.7888  0.2285
 3427TIP3    H110287   5.461   5.223   1.452  0.2547 -0.2282  0.9166
 3427TIP3    H210288   5.612   5.212   1.461  0.2909 -1.6976 -0.9696
 3428TIP3   OH210289   1.706   4.737   4.387  0.9109 -0.2338 -0.1540
 3428TIP3    H110290   1.706   4.673   4.458  2.8108  0.2872  0.3839
 3428TIP3    H210291   1.738   4.688   4.311  2.8739  0.1383  0.3819
 3429TIP3   OH210292   3.538   5.089   0.867  0.2732 -0.0994  0.5129
 3429TIP3    H110293   3.602   5.076   0.938  0.3173  1.1675  0.7172
 3429TIP3    H210294   3.589   5.076   0.787  1.0468  1.7615  0.6495
 3430TIP3   OH210295   2.001   2.741   4.211  0.2435  0.9825  0.1722
 3430TIP3    H110296   2.013   2.726   4.117  1.2162 -1.5158  0.5996
 3430TIP3    H210297   1.909   2.767   4.219  0.0062  0.7838 -1.4276
 3431TIP3   OH210298   5.558   1.926   1.277  0.5352  0.4955 -0.5139
 3431TIP3    H110299   5.645   1.935   1.237  0.7301  0.8654 -0.0130
 3431TIP3    H210300   5.575   1.923   1.371  0.1504 -1.2422 -0.4698
 3432TIP3   OH210301   5.396   4.730   4.035 -0.0862  0.1825 -0.1267
 3432TIP3    H110302   5.443   4.708   4.115  1.6896 -2.5608 -1.7692
 3432TIP3    H210303   5.344   4.653   4.016 -0.5006  0.7966 -1.6000
 3433TIP3   OH210304   6.019   5.291   4.614  0.3429 -0.0425  0.0851
 3433TIP3    H110305   6.051   5.380   4.631 -0.3449  0.3007 -0.3975
 3433TIP3    H210306   5.924   5.300   4.610  0.1382 -1.0587  1.5779
 3434TIP3   OH210307   0.303   5.028   4.179 -0.3453 -0.3523  0.7058
 3434TIP3    H110308   0.278   5.102   4.233  1.2806 -0.1355  1.2325
 3434TIP3    H210309   0.398   5.021   4.190 -0.1970 -1.3636 -0.7865
 3435TIP3   OH210310   4.951   2.044   4.799 -0.1330  0.2700  0.4773
 3435TIP3    H110311   4.869   2.086   4.828 -2.1530 -0.6937 -3.2053
 3435TIP3    H210312   4.976   1.989   4.873 -2.9200  0.5011  1.7512
 3436TIP3   OH210313   5.074   4.678   2.466 -0.1015  0.9284  0.2628
 3436TIP3    H110314   5.150   4.735   2.448  0.9859 -0.6370 -0.3556
 3436TIP3    H210315   5.103   4.624   2.539 -0.5898  0.2487 -0.0472
 3437TIP3   OH210316   1.287   0.979   1.923 -0.1680 -0.5721  0.1741
 3437TIP3    H110317   1.220   1.033   1.881  1.8624  2.1455  0.1507
 3437TIP3    H210318   1.331   0.935   1.851  1.2548  1.6261 -0.4172
 3438TIP3   OH210319   3.682   0.099   3.655  0.1327 -0.1930  0.2807
 3438TIP3    H110320   3.665   0.010   3.685  1.3749 -0.8609 -0.8766
 3438TIP3    H210321   3.623   0.110   3.580 -0.8663  0.4108  1.1302
 3439TIP3   OH210322   4.650   4.563   2.874  0.1474  0.2956  0.6278
 3439TIP3    H110323   4.707   4.630   2.837  0.1069 -0.2637 -0.4958
 3439TIP3    H210324   4.562   4.598   2.864  0.1336  0.1285  0.1308
 3440TIP3   OH210325   2.264   1.712   3.237 -0.1602  1.0935 -0.0309
 3440TIP3    H110326   2.229   1.768   3.168 -0.5352 -1.5224 -2.1473
 3440TIP3    H210327   2.201   1.640   3.243  1.7602 -0.6756  0.3094
 3441TIP3   OH210328   2.266   4.408   4.899 -0.5520 -0.0324  0.4365
 3441TIP3    H110329   2.177   4.376   4.918 -0.8634 -0.1726 -1.1868
 3441TIP3    H210330   2.256   4.502   4.887 -1.0140 -0.3678 -2.4374
 3442TIP3   OH210331   5.636   5.239   4.011 -0.0505 -0.1051  0.0959
 3442TIP3    H110332   5.731   5.231   4.017  0.1413  0.8265 -1.3438
 3442TIP3    H210333   5.606   5.150   3.993  0.6547 -0.2349 -0.4921
 3443TIP3   OH210334   5.497   5.939   3.796  0.7610 -0.1363  0.1787
 3443TIP3    H110335   5.470   6.017   3.747  0.8943 -0.0550  0.2357
 3443TIP3    H210336   5.593   5.940   3.792  0.7805  0.0034  0.6542
 3444TIP3   OH210337   3.816   4.394   1.050 -0.2630  0.2253  0.2803
 3444TIP3    H110338   3.794   4.314   1.098  1.0732  0.3946  1.2310
 3444TIP3    H210339   3.763   4.390   0.971 -0.0048 -1.7506  0.1562
 3445TIP3   OH210340   6.005   2.165   0.991  0.1952  0.1715  0.4055
 3445TIP3    H110341   6.066   2.203   0.928  1.0297 -0.9189  0.5129
 3445TIP3    H210342   6.059   2.147   1.068  0.3945 -3.0399 -0.3267
 3446TIP3   OH210343   5.859   0.045   1.460 -0.1290 -0.8528  0.4021
 3446TIP3    H110344   5.913  -0.021   1.504 -1.6520 -1.5497  1.3170
 3446TIP3    H210345   5.831   0.003   1.379  1.0560 -0.3063 -0.3183
 3447TIP3   OH210346   5.777   5.956   3.784 -0.0395  0.0563 -0.0232
 3447TIP3    H110347   5.803   5.886   3.724 -0.4667 -0.4564  0.3765
 3447TIP3    H210348   5.811   6.036   3.744  0.0501 -0.3262 -0.7304
 3448TIP3   OH210349   4.192   0.850   4.204 -0.3896  0.3897 -0.2030
 3448TIP3    H110350   4.120   0.911   4.194 -0.4631  0.2575 -0.4926
 3448TIP3    H210351   4.206   0.815   4.116  0.8451  1.3268 -0.4066
 3449TIP3   OH210352   5.199   4.338   1.748 -0.3921 -0.0753 -0.2176
 3449TIP3    H110353   5.251   4.391   1.809 -3.8506  2.0715  1.1221
 3449TIP3    H210354   5.183   4.256   1.795  2.5163 -1.3282 -1.1322
 3450TIP3   OH210355   5.201   2.743   4.001 -0.3529 -0.2661 -0.0398
 3450TIP3    H110356   5.116   2.700   4.002  0.0019 -0.9757  0.8096
 3450TIP3    H210357   5.221   2.759   4.093  0.1596  0.4473 -0.2645
 3451TIP3   OH210358   2.256   5.687   4.493  0.6240 -0.1229 -0.1435
 3451TIP3    H110359   2.282   5.657   4.406  0.7142 -0.3776 -0.0328
 3451TIP3    H210360   2.179   5.634   4.514  1.8303 -1.6347  0.8062
 3452TIP3   OH210361   0.184   3.935   0.668 -0.0018 -0.4712 -0.0678
 3452TIP3    H110362   0.098   3.893   0.677  0.9897 -2.1681  2.0855
 3452TIP3    H210363   0.244   3.864   0.650  1.0336  0.7079 -1.5588
 3453TIP3   OH210364   4.493   2.712   4.537 -0.3302  0.1566  0.0269
 3453TIP3    H110365   4.533   2.634   4.499  1.4717  0.9677  0.1709
 3453TIP3    H210366   4.504   2.702   4.631 -1.9261 -0.3333  0.1988
 3454TIP3   OH210367   0.911   4.305   3.779  0.4297 -0.5623  0.2930
 3454TIP3    H110368   0.871   4.325   3.694  1.0598  0.5012  0.2304
 3454TIP3    H210369   0.985   4.364   3.785 -0.1936  0.1012  2.0428
 3455TIP3   OH210370   4.187   4.307   0.157 -0.0266 -1.0523 -0.5609
 3455TIP3    H110371   4.199   4.350   0.072 -1.7487  1.6662  0.4100
 3455TIP3    H210372   4.152   4.221   0.136 -0.1011 -0.5656 -2.6263
 3456TIP3   OH210373   0.121   1.488   1.479  0.0771 -0.1422  0.2875
 3456TIP3    H110374   0.215   1.503   1.473  0.0984 -0.4711 -0.3168
 3456TIP3    H210375   0.084   1.537   1.406 -0.1487 -0.5437  0.1258
 3457TIP3   OH210376   3.152   1.608   4.670  0.2957  0.4133 -0.5207
 3457TIP3    H110377   3.152   1.623   4.575  1.6626 -0.3453 -0.6565
 3457TIP3    H210378   3.074   1.555   4.685 -0.7867  1.7919 -0.9825
 3458TIP3   OH210379   6.318   1.382   3.145 -0.2085 -0.0536  0.2803
 3458TIP3    H110380   6.409   1.396   3.123 -0.5022  0.5185 -0.5928
 3458TIP3    H210381   6.277   1.350   3.065 -0.9140  0.3270  0.4762
 3459TIP3   OH210382   2.659   2.274   2.024  0.0280  0.2806 -0.0855
 3459TIP3    H110383   2.633   2.339   1.959 -2.2958  0.2493  0.7175
 3459TIP3    H210384   2.751   2.257   2.005 -0.2872  1.0238 -2.6905
 3460TIP3   OH210385   1.232   5.288   4.400 -0.2394 -0.0930 -0.2407
 3460TIP3    H110386   1.186   5.287   4.316  1.0840  1.5432 -1.0418
 3460TIP3    H210387   1.322   5.266   4.379 -0.1536 -1.0354  0.9770
 3461TIP3   OH210388   3.081   0.144   2.913 -0.1086 -0.1569  0.0016
 3461TIP3    H110389   2.997   0.187   2.898  0.0630  0.1666 -0.0369
 3461TIP3    H210390   3.060   0.051   2.916 -0.4852 -0.0697  0.1033
 3462TIP3   OH210391   1.586   4.169   3.458  0.3945 -0.1948  0.2091
 3462TIP3    H110392   1.676   4.158   3.489  0.1751  0.6976  1.1847
 3462TIP3    H210393   1.593   4.164   3.362  1.3043 -1.3147  0.3139
 3463TIP3   OH210394   4.239   5.330   4.816  0.9599  0.3288  0.0029
 3463TIP3    H110395   4.257   5.423   4.798 -0.3908  0.7179  0.4892
 3463TIP3    H210396   4.306   5.305   4.880  0.8028  1.2331  0.5458
 3464TIP3   OH210397   4.601   5.494   3.894  0.1645 -0.1335 -0.3727
 3464TIP3    H110398   4.545   5.571   3.904 -0.0745 -0.2704 -0.6512
 3464TIP3    H210399   4.687   5.529   3.875  0.1849  0.0808  0.0959
 3465TIP3   OH210400   1.239   4.835   2.290 -0.0027  0.6307  0.2309
 3465TIP3    H110401   1.288   4.916   2.276  0.5593  0.2986  0.2510
 3465TIP3    H210402   1.147   4.863   2.296 -0.1081  1.0426 -2.1426
 3466TIP3   OH210403   1.090   0.013   2.552 -0.4653 -0.1078  0.0530
 3466TIP3    H110404   1.089   0.089   2.611 -0.7532  1.8032 -2.2486
 3466TIP3    H210405   0.999   0.003   2.524 -0.1477 -0.1891 -0.9857
 3467TIP3   OH210406   4.551   3.043   2.075  0.1032  0.1313 -0.3881
 3467TIP3    H110407   4.476   3.099   2.057  0.7137  0.6654 -1.3413
 3467TIP3    H210408   4.516   2.973   2.131 -0.9989  0.6024 -0.4708
 3468TIP3   OH210409   3.848   1.386   2.868  0.1815  0.3115 -0.2943
 3468TIP3    H110410   3.864   1.306   2.918 -0.5482  0.2137 -0.1998
 3468TIP3    H210411   3.932   1.406   2.826  0.2811 -0.6962 -0.5979
 3469TIP3   OH210412   0.343   5.836   2.335 -0.3583  0.0514 -0.2567
 3469TIP3    H110413   0.333   5.744   2.311 -1.6469 -0.2333  1.2056
 3469TIP3    H210414   0.290   5.883   2.271 -2.3645 -0.5475  0.8728
 3470TIP3   OH210415   4.315   5.795   4.074  0.1021  0.0761 -0.0396
 3470TIP3    H110416   4.273   5.724   4.024  0.4269  0.7056 -1.2476
 3470TIP3    H210417   4.285   5.783   4.164  1.2156 -2.4373  0.0878
 3471TIP3   OH210418   0.295   4.306   4.930 -0.3077  0.2631 -0.5522
 3471TIP3    H110419   0.351   4.228   4.939  1.0790  1.3007  0.2225
 3471TIP3    H210420   0.232   4.298   5.002 -0.2669 -0.2168 -0.5652
 3472TIP3   OH210421   5.600   2.332   1.715  0.1988 -0.1806  0.1594
 3472TIP3    H110422   5.610   2.287   1.631 -0.8071  0.2452 -0.2045
 3472TIP3    H210423   5.534   2.398   1.698 -0.5657 -0.5795  1.4899
 3473TIP3   OH210424   1.818   3.965   4.748  0.3055 -0.3235 -0.1795
 3473TIP3    H110425   1.894   3.932   4.796 -0.2670  1.1407  1.8248
 3473TIP3    H210426   1.848   3.970   4.657  2.0885 -1.2256  0.3139
 3474TIP3   OH210427   3.360   1.338   3.935 -0.2414 -0.7396  0.2025
 3474TIP3    H110428   3.286   1.324   3.994  0.7450  0.3495  1.8036
 3474TIP3    H210429   3.337   1.417   3.886  0.7387  1.0079  2.3615
 3475TIP3   OH210430   6.273   4.987   2.047  0.0983 -0.4862  0.5233
 3475TIP3    H110431   6.221   5.037   2.110  0.7187  0.1846  0.5157
 3475TIP3    H210432   6.301   4.909   2.094 -0.4968 -0.6044  0.6812
 3476TIP3   OH210433   1.057   5.049   4.809 -0.4413  0.5976 -0.5905
 3476TIP3    H110434   1.121   4.991   4.849  0.2724 -0.1608 -2.6864
 3476TIP3    H210435   0.986   5.055   4.873  1.1494  0.4971  1.2803
 3477TIP3   OH210436   5.540   1.104   4.557  0.1050  0.2442  0.4558
 3477TIP3    H110437   5.618   1.098   4.503 -0.0621 -0.1927  0.2563
 3477TIP3    H210438   5.469   1.076   4.499 -0.1184  0.0692  0.8101
 3478TIP3   OH210439   0.604   5.603   1.480 -0.2114 -0.2639 -0.0752
 3478TIP3    H110440   0.599   5.554   1.562 -3.1957  0.5279  0.3438
 3478TIP3    H210441   0.597   5.695   1.507  0.1677  0.0895 -1.1435
 3479TIP3   OH210442   4.326   5.618   0.711 -0.3871  0.0043  0.3382
 3479TIP3    H110443   4.299   5.677   0.781  0.7083  1.9985 -0.8270
 3479TIP3    H210444   4.284   5.653   0.632  0.1997 -0.8463 -0.3768
 3480TIP3   OH210445   3.581   5.311   3.320  0.4350  0.1859 -0.0953
 3480TIP3    H110446   3.532   5.234   3.291 -0.6772  0.3702  1.1959
 3480TIP3    H210447   3.544   5.332   3.405 -0.3876  3.0821 -1.0500
 3481TIP3   OH210448   5.709   5.315   2.352  0.0204  0.5692  0.1251
 3481TIP3    H110449   5.639   5.359   2.400  1.5326  2.1740  0.9775
 3481TIP3    H210450   5.685   5.325   2.260 -0.7467  1.3041  0.3909
 3482TIP3   OH210451   1.972   1.329   3.036  0.2322 -0.0595  0.2195
 3482TIP3    H110452   1.946   1.266   3.103  0.2191 -1.2982 -0.9015
 3482TIP3    H210453   1.909   1.317   2.966 -0.8161  2.4325  0.6214
 3483TIP3   OH210454   4.576   1.319   3.653  0.0319 -0.3052 -0.3229
 3483TIP3    H110455   4.644   1.370   3.696  0.5341 -1.0417 -0.2226
 3483TIP3    H210456   4.613   1.294   3.569 -0.7703  0.7291 -1.0151
 3484TIP3   OH210457   2.875   0.727   4.612 -0.1491  0.0764  0.3789
 3484TIP3    H110458   2.953   0.715   4.667 -0.3450  0.8740  0.8462
 3484TIP3    H210459   2.845   0.638   4.596  0.4039 -0.2129  0.8607
 3485TIP3   OH210460   0.114   5.486  -0.019  0.0548  0.4739  0.3229
 3485TIP3    H110461   0.142   5.577  -0.018  0.3573  0.3786  1.9339
 3485TIP3    H210462   0.085   5.468   0.070 -1.7198 -0.5057 -0.3976
 3486TIP3   OH210463   4.893   4.844   3.316 -0.1733  0.1023  0.0052
 3486TIP3    H110464   4.983   4.838   3.347 -0.5762 -1.6562  0.9595
 3486TIP3    H210465   4.884   4.776   3.250 -1.0361 -0.3653  0.5783
 3487TIP3   OH210466   6.193   2.543   1.595 -0.1238 -0.6690 -0.2772
 3487TIP3    H110467   6.204   2.578   1.684 -1.5326  3.8826 -1.6046
 3487TIP3    H210468   6.278   2.557   1.553 -0.5380  0.8800 -0.6562
 3488TIP3   OH210469   2.955   2.722   2.651  0.0691 -0.2345  0.0417
 3488TIP3    H110470   2.929   2.808   2.616  0.5516 -0.5811 -1.2057
 3488TIP3    H210471   2.956   2.664   2.575  0.6272 -1.1475  0.7228
 3489TIP3   OH210472   3.240   0.500   4.330 -0.5054  0.4434 -0.1882
 3489TIP3    H110473   3.214   0.467   4.416 -0.3584 -0.3467 -0.4387
 3489TIP3    H210474   3.317   0.554   4.348 -0.8801  0.8383  0.2573
 3490TIP3   OH210475   5.471   3.264   3.693  0.0124 -0.1114 -0.1453
 3490TIP3    H110476   5.502   3.207   3.623 -0.4112  0.9485 -1.2388
 3490TIP3    H210477   5.463   3.350   3.652 -0.1622  0.5600  1.2402
 3491TIP3   OH210478   2.513   0.912   2.251  1.0739 -0.1564  0.3618
 3491TIP3    H110479   2.499   0.948   2.164 -0.3756 -2.1950 -0.3196
 3491TIP3    H210480   2.498   0.985   2.311 -0.8176  0.6164 -0.9742
 3492TIP3   OH210481   1.104   2.149   3.198 -0.6623 -0.3019 -0.0628
 3492TIP3    H110482   1.115   2.055   3.204  0.3445 -0.3163 -1.6197
 3492TIP3    H210483   1.138   2.172   3.112 -0.7621  1.5044  0.3382
 3493TIP3   OH210484   2.113   3.674   0.443 -0.5962 -0.2550 -0.8012
 3493TIP3    H110485   2.200   3.709   0.427 -0.1182  0.3036  2.2700
 3493TIP3    H210486   2.054   3.748   0.430 -0.2565  0.1498 -0.0976
 3494TIP3   OH210487   4.391   0.169   2.408  0.5611 -0.0308  0.9327
 3494TIP3    H110488   4.372   0.259   2.435 -0.5092 -0.0442  0.2866
 3494TIP3    H210489   4.353   0.115   2.477 -0.4934 -0.0218  0.3712
 3495TIP3   OH210490   2.018   4.888   2.807 -0.1003 -0.0995  0.2387
 3495TIP3    H110491   2.016   4.808   2.754  1.1010 -0.6905  1.0624
 3495TIP3    H210492   2.098   4.882   2.858 -0.1141  1.5267  0.5067
 3496TIP3   OH210493   3.074   4.529   3.723  0.1931  0.1311 -0.1065
 3496TIP3    H110494   2.985   4.523   3.758  0.4416 -1.0898  0.3606
 3496TIP3    H210495   3.130   4.537   3.800  0.5871 -0.4908 -0.3248
 3497TIP3   OH210496   2.335   4.278   4.638 -0.1134  0.2062  0.2133
 3497TIP3    H110497   2.361   4.337   4.709  0.6512 -0.2747  0.3424
 3497TIP3    H210498   2.385   4.307   4.562 -1.2922  1.0334 -0.2967
 3498TIP3   OH210499   1.122   4.960   0.531  0.4576  0.5580 -0.4229
 3498TIP3    H110500   1.140   5.043   0.486 -0.1089  0.4500 -0.8555
 3498TIP3    H210501   1.035   4.934   0.499  0.8250 -0.4279 -0.6235
 3499TIP3   OH210502   2.368   3.640   2.116 -0.3373 -0.4375  0.2047
 3499TIP3    H110503   2.396   3.626   2.025 -2.3672 -1.3082 -0.3425
 3499TIP3    H210504   2.314   3.718   2.113  0.3173  0.0466  0.8505
 3500TIP3   OH210505   6.319   3.315   4.052 -0.1473  0.3217  0.0976
 3500TIP3    H110506   6.320   3.220   4.062 -1.8078  0.2596  0.0403
 3500TIP3    H210507   6.275   3.329   3.968  0.2389  1.1353  0.0222
 3501TIP3   OH210508  -0.017   0.377   1.332  0.4880  0.9644 -0.5166
 3501TIP3    H110509   0.019   0.414   1.412 -0.4121  1.1207 -0.1714
 3501TIP3    H210510   0.005   0.440   1.264 -1.1348  2.2470  0.0872
 3502TIP3   OH210511   1.191   1.002   0.921  0.4819 -0.4982  0.3632
 3502TIP3    H110512   1.178   0.908   0.933 -1.8512 -0.1406  1.3369
 3502TIP3    H210513   1.219   1.033   1.007 -0.3084 -0.1236  0.4985
 3503TIP3   OH210514   3.102   0.364   1.083  0.4641  0.3297 -0.3267
 3503TIP3    H110515   3.141   0.318   1.157  1.7179  1.3346 -0.3229
 3503TIP3    H210516   3.009   0.341   1.087  0.4501  0.5438  1.6806
 3504TIP3   OH210517   3.923   5.842   1.607  0.0553 -0.4052  0.3593
 3504TIP3    H110518   4.018   5.832   1.604  0.1115  0.0021  0.7232
 3504TIP3    H210519   3.908   5.912   1.671 -0.5224 -0.9910  0.8882
 3505TIP3   OH210520   2.217   4.453   4.288 -0.1388 -0.8508 -0.9211
 3505TIP3    H110521   2.290   4.416   4.337 -1.4113 -1.7902  0.3429
 3505TIP3    H210522   2.160   4.379   4.269 -0.7435 -0.1489 -1.9388
 3506TIP3   OH210523   2.968   1.145   0.182  0.0755  0.3758  0.4809
 3506TIP3    H110524   3.023   1.165   0.106 -0.5411  1.9664  0.4149
 3506TIP3    H210525   2.973   1.050   0.191  1.1762  0.2903 -0.7727
 3507TIP3   OH210526   2.533   2.181   0.607 -0.0277 -0.2995 -0.5756
 3507TIP3    H110527   2.570   2.093   0.610  0.4154 -0.1426 -1.1311
 3507TIP3    H210528   2.501   2.191   0.517 -1.3205 -0.3796 -0.1439
 3508TIP3   OH210529   3.962   5.339   0.549  0.1439  0.3116 -0.0774
 3508TIP3    H110530   4.040   5.374   0.594  0.5717 -0.6977 -0.0122
 3508TIP3    H210531   3.916   5.290   0.616  1.0087 -1.5735 -0.7936
 3509TIP3   OH210532   4.791   3.033   3.709 -0.8283  0.2725 -0.6232
 3509TIP3    H110533   4.876   3.034   3.753 -2.0620 -0.6251  2.0414
 3509TIP3    H210534   4.778   3.123   3.679  0.5864  0.6829 -0.0653
 3510TIP3   OH210535   1.857   0.442   1.748 -0.4046  0.0185  0.0296
 3510TIP3    H110536   1.934   0.457   1.804  0.1047 -0.2292 -0.5858
 3510TIP3    H210537   1.829   0.353   1.770  1.6386 -1.2984 -2.2029
 3511TIP3   OH210538   5.313   5.487   0.537  0.1250 -0.0817 -0.3951
 3511TIP3    H110539   5.257   5.483   0.459  1.1014 -1.2599 -1.0747
 3511TIP3    H210540   5.265   5.544   0.598 -0.0999  1.9192 -2.2911
 3512TIP3   OH210541   5.193   4.562   0.176  0.5381  0.0708 -0.2166
 3512TIP3    H110542   5.108   4.604   0.176  1.1208  1.3238 -1.5359
 3512TIP3    H210543   5.203   4.528   0.265 -0.7862  1.0140  0.3197
 3513TIP3   OH210544   2.320   2.464   3.652  0.1067  0.3909 -0.4084
 3513TIP3    H110545   2.288   2.514   3.577 -0.0928  1.5368  0.4066
 3513TIP3    H210546   2.259   2.486   3.723  0.5803 -0.2780  0.2238
 3514TIP3   OH210547   4.888   0.920   3.520  0.1932 -0.0863 -0.1554
 3514TIP3    H110548   4.796   0.939   3.540  0.6752  0.9446  1.1989
 3514TIP3    H210549   4.918   0.996   3.471 -0.5856 -1.9793 -3.9353
 3515TIP3   OH210550   2.068   1.400   3.962  0.6729  0.4819 -0.1690
 3515TIP3    H110551   2.091   1.493   3.964  0.1546  0.7009 -2.2386
 3515TIP3    H210552   2.097   1.370   3.876  2.3520 -1.7271  1.0611
 3516TIP3   OH210553   3.642   4.943   4.587 -0.1854  0.0109  0.5975
 3516TIP3    H110554   3.631   4.886   4.663 -2.1480 -0.0917  0.2790
 3516TIP3    H210555   3.716   4.905   4.539  1.1015  0.0950  2.4314
 3517TIP3   OH210556   5.310   1.824   3.827  0.0139 -0.2333 -0.3586
 3517TIP3    H110557   5.350   1.743   3.793  0.5792  0.0386 -0.3502
 3517TIP3    H210558   5.305   1.810   3.922  1.1719  0.1862 -0.2151
 3518TIP3   OH210559   2.312   5.632   0.112 -0.2786 -0.1959 -0.5900
 3518TIP3    H110560   2.219   5.653   0.115 -1.0806 -2.4643  5.5371
 3518TIP3    H210561   2.356   5.717   0.113 -2.2114  0.9155 -2.4261
 3519TIP3   OH210562   5.535   5.218   1.174  0.4206  0.3289 -0.5200
 3519TIP3    H110563   5.441   5.209   1.185 -0.1388  2.5293 -2.6201
 3519TIP3    H210564   5.565   5.129   1.153 -0.8889 -0.6654  1.5166
 3520TIP3   OH210565   0.286   2.583   0.591  0.2868  0.6325  0.1267
 3520TIP3    H110566   0.315   2.674   0.602  2.0474  0.2627 -0.9611
 3520TIP3    H210567   0.297   2.566   0.498  1.3294 -1.0852  0.5221
 3521TIP3   OH210568   6.343   4.191   0.538  0.1005  0.2091 -0.0399
 3521TIP3    H110569   6.275   4.124   0.540  0.5627 -0.2932 -0.6236
 3521TIP3    H210570   6.411   4.154   0.481  0.4097  1.1291 -0.2849
 3522TIP3   OH210571   5.211   0.710   4.280  0.2196 -0.2529 -0.1167
 3522TIP3    H110572   5.207   0.779   4.347 -0.7447  2.1845 -2.4641
 3522TIP3    H210573   5.304   0.688   4.274  0.4046 -0.0578  1.5389
 3523TIP3   OH210574   6.148   3.020   3.351 -0.1499 -0.2611  0.0469
 3523TIP3    H110575   6.121   2.950   3.410  0.6074  0.4294  1.2649
 3523TIP3    H210576   6.187   2.975   3.276 -1.8349 -1.1766 -0.3240
 3524TIP3   OH210577   0.236   5.857   4.711 -0.2864 -0.6106  0.5483
 3524TIP3    H110578   0.211   5.773   4.750 -0.0974  0.2764  2.7111
 3524TIP3    H210579   0.317   5.838   4.664  0.1928 -1.4981  1.6727
 3525TIP3   OH210580   2.397   1.016   1.595 -0.0286  0.7150  0.3164
 3525TIP3    H110581   2.463   0.986   1.532  1.7436  1.5799  1.6553
 3525TIP3    H210582   2.354   1.089   1.552  0.3380  0.5574 -0.3295
 3526TIP3   OH210583   5.242   3.343   2.451 -0.4078  0.1789  0.0600
 3526TIP3    H110584   5.312   3.366   2.512  0.2062 -0.4074 -0.4061
 3526TIP3    H210585   5.217   3.254   2.477  1.3184 -0.9560 -1.8014
 3527TIP3   OH210586   5.122   4.624   3.249  0.2648 -0.6891 -0.0841
 3527TIP3    H110587   5.079   4.599   3.331 -1.9670  0.6191 -0.7759
 3527TIP3    H210588   5.079   4.570   3.183 -0.2246  0.4964 -0.7663
 3528TIP3   OH210589   1.498   2.263   3.185 -0.4120  0.1708 -0.6902
 3528TIP3    H110590   1.566   2.314   3.230  2.4722 -1.1940 -3.1293
 3528TIP3    H210591   1.476   2.194   3.247  1.1552  0.1187 -0.1273
 3529TIP3   OH210592   0.187   3.101   2.189 -0.0977  0.1389  0.5270
 3529TIP3    H110593   0.200   3.170   2.255 -1.3153 -0.1342  1.0912
 3529TIP3    H210594   0.170   3.022   2.240 -0.2503 -0.2506 -0.1115
 3530TIP3   OH210595   2.371   1.052   0.412  0.0971 -0.4614 -0.3386
 3530TIP3    H110596   2.325   1.112   0.353 -0.1521  0.5809  0.8841
 3530TIP3    H210597   2.326   0.968   0.400 -1.2005  0.1984 -0.2389
 3531TIP3   OH210598   4.789   1.036   0.644 -0.7618 -0.4354 -0.9142
 3531TIP3    H110599   4.839   1.116   0.630  1.3574 -1.9904 -3.0219
 3531TIP3    H210600   4.853   0.972   0.676 -1.8408 -1.9027 -1.5433
 3532TIP3   OH210601   5.843   3.770   0.912 -0.2918  0.0835 -0.0943
 3532TIP3    H110602   5.835   3.744   0.820  0.1732 -1.8452  0.3645
 3532TIP3    H210603   5.787   3.708   0.959  0.5153  0.1810  1.0382
 3533TIP3   OH210604   1.791   3.609   2.260 -0.5057  0.2038 -0.2654
 3533TIP3    H110605   1.808   3.626   2.168  1.0070  1.5751  0.2164
 3533TIP3    H210606   1.701   3.578   2.263 -1.4859  2.5833 -1.9465
 3534TIP3   OH210607   4.032   0.044   2.493  0.4577 -0.0466  0.1826
 3534TIP3    H110608   3.955   0.023   2.545  0.6279  0.2624  0.5600
 3534TIP3    H210609   4.024  -0.013   2.416 -0.3288  0.2290  0.0461
 3535TIP3   OH210610   0.773   4.936   1.081  0.2005 -0.0729 -0.0297
 3535TIP3    H110611   0.703   4.871   1.078  2.4800 -3.0191  2.6985
 3535TIP3    H210612   0.839   4.903   1.019  1.3429 -0.4198  1.3040
 3536TIP3   OH210613   0.866   1.640   1.994 -0.3418  0.6537  0.0660
 3536TIP3    H110614   0.866   1.697   1.916 -0.8462  1.0444  0.3520
 3536TIP3    H210615   0.953   1.654   2.032  0.8762 -1.3390 -1.7116
 3537TIP3   OH210616   4.776   4.827   3.554 -0.1514  0.1486 -0.0248
 3537TIP3    H110617   4.805   4.838   3.464 -0.3568  1.4279  0.0492
 3537TIP3    H210618   4.759   4.916   3.585 -0.0927 -0.2685  1.2741
 3538TIP3   OH210619   2.605   4.320   5.182 -0.0609  0.0683  0.2677
 3538TIP3    H110620   2.603   4.415   5.178  1.5331  0.0655 -2.5673
 3538TIP3    H210621   2.518   4.292   5.152 -0.4416  0.5911  0.8605
 3539TIP3   OH210622   0.038   2.432   3.064 -0.4183  0.3952 -0.0267
 3539TIP3    H110623   0.036   2.418   2.969 -0.8039  0.5216 -0.0425
 3539TIP3    H210624  -0.006   2.355   3.100  3.1052 -1.6701  0.3430
 3540TIP3   OH210625   3.628   5.794   3.700 -0.2353  0.0688 -0.1266
 3540TIP3    H110626   3.679   5.875   3.697 -1.2662  0.7337 -0.3087
 3540TIP3    H210627   3.569   5.800   3.625  1.2044 -1.9320 -1.5035
 3541TIP3   OH210628   5.861   3.596   0.589 -0.6311 -0.7486 -0.3469
 3541TIP3    H110629   5.779   3.603   0.541 -0.5779 -0.2995 -0.3746
 3541TIP3    H210630   5.868   3.503   0.611 -1.5278 -0.6599  0.3508
 3542TIP3   OH210631   2.293   5.179   3.538  0.2004 -0.2804 -0.0595
 3542TIP3    H110632   2.376   5.172   3.491 -0.1277 -1.8409 -0.4868
 3542TIP3    H210633   2.281   5.092   3.577 -1.5305 -0.2787 -0.5227
 3543TIP3   OH210634   1.342   2.481   3.115 -0.2337 -0.3543 -0.1920
 3543TIP3    H110635   1.387   2.407   3.155  1.3017  0.5686 -0.1470
 3543TIP3    H210636   1.411   2.533   3.075 -1.1748  1.4248  0.3740
 3544TIP3   OH210637   5.600   0.121   3.785 -0.2156 -0.2757  0.3036
 3544TIP3    H110638   5.559   0.038   3.762  0.9017 -0.8338  0.2619
 3544TIP3    H210639   5.688   0.115   3.748 -0.7145  1.7141 -1.3621
 3545TIP3   OH210640   4.066   1.874   1.943 -0.8586  0.1199 -0.1093
 3545TIP3    H110641   4.032   1.894   2.030 -0.0266  1.8559 -0.1329
 3545TIP3    H210642   4.116   1.952   1.918 -0.9044 -0.4149 -2.0649
 3546TIP3   OH210643   3.879   3.389   4.685 -0.3469  0.0921 -0.5147
 3546TIP3    H110644   3.954   3.433   4.646 -0.2709 -0.8952 -1.5360
 3546TIP3    H210645   3.803   3.424   4.639 -0.3707 -0.1019 -0.6244
 3547TIP3   OH210646   0.951   4.592   1.958  0.2987  0.0892  0.7742
 3547TIP3    H110647   0.920   4.672   1.915 -0.4070 -0.0399  1.0385
 3547TIP3    H210648   0.880   4.566   2.016 -0.3140 -1.8022 -0.7240
 3548TIP3   OH210649   4.664   4.556   3.645 -0.6737 -0.2340 -0.3301
 3548TIP3    H110650   4.609   4.628   3.675  1.2864  0.8319  0.9721
 3548TIP3    H210651   4.754   4.588   3.659  0.3023 -1.7775 -2.5430
 3549TIP3   OH210652   1.481   2.178   1.960 -0.0313 -0.1190  0.9279
 3549TIP3    H110653   1.438   2.249   1.912  1.1098 -0.1168 -0.1188
 3549TIP3    H210654   1.572   2.205   1.967  0.2623 -1.1340  1.2000
 3550TIP3   OH210655   2.130   4.612   4.610 -0.0590 -0.6096  0.1501
 3550TIP3    H110656   2.124   4.532   4.661  0.1041 -0.5964  0.1905
 3550TIP3    H210657   2.223   4.624   4.595 -0.1774 -1.5363 -1.6021
 3551TIP3   OH210658   5.281   1.897   3.183  1.0913  0.2142  0.0945
 3551TIP3    H110659   5.279   1.989   3.158  1.4776  0.2549  0.2122
 3551TIP3    H210660   5.322   1.853   3.109  1.6495  0.2476  0.3823
 3552TIP3   OH210661   6.108   2.405   1.234 -0.2721  0.1640 -0.4050
 3552TIP3    H110662   6.180   2.460   1.264  0.8196 -1.3903 -0.0580
 3552TIP3    H210663   6.066   2.457   1.165  0.0310  1.8525  0.6156
 3553TIP3   OH210664   2.438   2.218   1.493 -0.1731 -0.3296  0.3017
 3553TIP3    H110665   2.432   2.222   1.589  0.0423  0.4189  0.2906
 3553TIP3    H210666   2.347   2.222   1.464 -0.2869 -1.2901  0.4878
 3554TIP3   OH210667   2.971   0.084   4.382 -0.0823 -0.2973 -0.2111
 3554TIP3    H110668   2.966   0.147   4.310 -1.0923 -1.4922 -1.2482
 3554TIP3    H210669   3.040   0.023   4.357  1.4459  0.7659  1.1624
 3555TIP3   OH210670   0.970   1.169   4.502 -0.2278 -0.0377  0.0732
 3555TIP3    H110671   0.960   1.080   4.534 -0.4615 -0.6818 -1.7269
 3555TIP3    H210672   0.997   1.219   4.579  1.7440 -1.9988  0.7414
 3556TIP3   OH210673   0.587   5.607   2.997 -0.8009  0.2832  0.8259
 3556TIP3    H110674   0.630   5.563   3.070  0.4681 -0.1344 -0.1342
 3556TIP3    H210675   0.517   5.548   2.970 -0.0158 -0.5119  0.4637
 3557TIP3   OH210676   2.752   4.683   0.500 -0.6202  0.3126 -0.4831
 3557TIP3    H110677   2.735   4.595   0.535 -2.7269  0.9689  0.2358
 3557TIP3    H210678   2.684   4.698   0.435 -1.3920  2.0813  0.6604
 3558TIP3   OH210679   5.820   3.686   5.069  0.7513 -0.3887  0.1021
 3558TIP3    H110680   5.796   3.777   5.085 -1.4765 -0.9780  0.4450
 3558TIP3    H210681   5.895   3.670   5.127  1.2361  1.2246 -0.0437
 3559TIP3   OH210682   3.436   5.486   4.858  0.3609  0.1749 -0.0301
 3559TIP3    H110683   3.510   5.433   4.886  0.2219  0.2608  0.5092
 3559TIP3    H210684   3.471   5.574   4.847  0.7398 -0.1347 -1.5655
 3560TIP3   OH210685   0.762   3.742   1.990  0.0601 -0.0193 -0.2160
 3560TIP3    H110686   0.707   3.769   2.063 -0.4220  1.0651 -0.9478
 3560TIP3    H210687   0.773   3.822   1.938  0.2403 -0.8030 -1.4191
 3561TIP3   OH210688   2.010   2.358   1.102 -0.0893 -0.1404  0.5308
 3561TIP3    H110689   1.973   2.368   1.014  1.5080  0.1963 -0.1296
 3561TIP3    H210690   2.008   2.264   1.118 -0.9926 -0.1490  0.4081
 3562TIP3   OH210691   5.876   2.197   3.075 -0.3525 -0.3633 -0.4420
 3562TIP3    H110692   5.819   2.185   3.151 -0.8336 -1.2571 -0.9291
 3562TIP3    H210693   5.927   2.116   3.071  2.0470  0.9452  0.8325
 3563TIP3   OH210694   3.212   1.761   1.210 -0.2001  0.0422 -0.3374
 3563TIP3    H110695   3.254   1.702   1.272  0.2715  0.0685 -0.6273
 3563TIP3    H210696   3.284   1.795   1.157 -0.6214 -0.1645 -1.0527
 3564TIP3   OH210697   4.049   2.348   2.932  0.6925  0.3442 -0.1563
 3564TIP3    H110698   3.988   2.408   2.889  0.0430 -0.3812 -0.2702
 3564TIP3    H210699   3.996   2.303   2.997  1.1285 -0.2445 -0.2038
 3565TIP3   OH210700   1.201   0.567   1.668  0.2026 -0.7612  0.0028
 3565TIP3    H110701   1.296   0.565   1.681  0.3411 -0.3451 -0.8774
 3565TIP3    H210702   1.177   0.659   1.679 -0.0622 -0.8219 -0.0555
 3566TIP3   OH210703   2.683   1.590   2.574 -0.3675 -0.5346  0.6976
 3566TIP3    H110704   2.763   1.602   2.523 -0.4956  2.8849  1.0456
 3566TIP3    H210705   2.704   1.627   2.660 -1.5086 -2.0954  1.6873
 3567TIP3   OH210706   5.782   2.779   0.828 -0.0955 -0.3090 -0.0432
 3567TIP3    H110707   5.698   2.788   0.783 -1.1688 -1.3903  1.6349
 3567TIP3    H210708   5.759   2.768   0.920  1.9090 -0.4678  0.4946
 3568TIP3   OH210709   3.466   0.536   5.147  0.3053 -0.3343  0.1633
 3568TIP3    H110710   3.559   0.557   5.160  0.9401 -2.9250  0.5218
 3568TIP3    H210711   3.442   0.486   5.225 -1.8539  1.4340  0.7368
 3569TIP3   OH210712   2.095   3.797   3.996 -0.0578  0.2197 -0.5566
 3569TIP3    H110713   2.010   3.833   4.019 -1.3317 -1.6760 -1.9977
 3569TIP3    H210714   2.131   3.858   3.932 -0.1436  1.1942  0.2958
 3570TIP3   OH210715   2.490   2.750   1.031  0.2730  0.3719 -0.7021
 3570TIP3    H110716   2.515   2.843   1.033  0.2693  0.3698 -0.4930
 3570TIP3    H210717   2.449   2.735   1.117  1.0271 -0.0359 -0.4065
 3571TIP3   OH210718   2.795  -0.009   0.190  0.1981 -0.8956  0.0125
 3571TIP3    H110719   2.708  -0.032   0.158 -0.0784 -1.1720  0.9516
 3571TIP3    H210720   2.787   0.081   0.222  0.2505 -0.9263  0.1149
 3572TIP3   OH210721   5.524   4.080   2.470  0.6416 -0.9638 -0.0773
 3572TIP3    H110722   5.460   4.088   2.399 -0.3037 -1.5836  0.6822
 3572TIP3    H210723   5.562   4.167   2.478 -1.5568 -0.0164  0.7689
 3573TIP3   OH210724   3.022   3.962   5.143  0.3845  0.0432 -0.3968
 3573TIP3    H110725   2.948   3.902   5.134  0.6563 -0.2481 -0.7002
 3573TIP3    H210726   3.065   3.961   5.058 -0.4242  1.7703 -0.8598
 3574TIP3   OH210727   0.260   4.351   2.917 -0.1643 -0.7378 -0.2108
 3574TIP3    H110728   0.282   4.402   2.839 -1.7017 -0.1536 -0.2941
 3574TIP3    H210729   0.337   4.361   2.974  0.2599  0.2764 -0.9247
 3575TIP3   OH210730   0.340   2.563   4.765  0.5224  0.0324  0.0887
 3575TIP3    H110731   0.301   2.554   4.852 -0.7364 -0.9007 -0.5266
 3575TIP3    H210732   0.285   2.628   4.721 -0.0418 -0.8925 -0.6115
 3576TIP3   OH210733   5.829   5.471   4.982 -0.1572  0.1269  0.2822
 3576TIP3    H110734   5.784   5.418   4.916  0.7634 -1.1995  0.6703
 3576TIP3    H210735   5.785   5.450   5.064  0.7226 -0.7088  0.5646
 3577TIP3   OH210736   2.448   3.424   3.715  0.0354  0.0709 -0.2604
 3577TIP3    H110737   2.427   3.361   3.784  1.2773  0.0212  0.0982
 3577TIP3    H210738   2.446   3.509   3.759  1.1288  0.0121 -0.0713
 3578TIP3   OH210739   0.695   3.986   2.821 -0.1048 -0.5480  0.7551
 3578TIP3    H110740   0.663   4.067   2.860  2.2264  1.0725 -0.4589
 3578TIP3    H210741   0.775   3.966   2.870  1.6336  0.3024 -1.5388
 3579TIP3   OH210742   1.564   1.623   0.268 -0.0109 -0.4605 -0.5622
 3579TIP3    H110743   1.613   1.559   0.320 -0.1048  0.3421  0.5303
 3579TIP3    H210744   1.474   1.590   0.269  0.0928 -0.7597 -0.7281
 3580TIP3   OH210745   2.168   4.535   1.387 -0.0188  0.2977  0.0143
 3580TIP3    H110746   2.220   4.613   1.367 -0.6421  0.6721 -0.1812
 3580TIP3    H210747   2.230   4.462   1.379  0.9876  0.8939  1.8910
 3581TIP3   OH210748   1.343   4.029   2.447 -0.2693  0.1724  0.2669
 3581TIP3    H110749   1.280   4.091   2.411 -1.9935 -1.0201  1.0860
 3581TIP3    H210750   1.289   3.956   2.477  1.7012 -1.9606 -1.0840
 3582TIP3   OH210751   5.000   1.631   1.893 -0.0327 -1.0557  0.5939
 3582TIP3    H110752   5.095   1.633   1.881  0.0062 -0.5572  0.9391
 3582TIP3    H210753   4.989   1.623   1.988 -0.3143  2.0354  0.9394
 3583TIP3   OH210754   4.190   0.768   3.950 -0.0946  0.0102  0.0723
 3583TIP3    H110755   4.157   0.685   3.985  0.6983 -0.5207 -0.3956
 3583TIP3    H210756   4.280   0.748   3.922  0.7487  1.4756  1.5621
 3584TIP3   OH210757   3.543   0.008   5.033 -0.4343 -0.1574  0.2678
 3584TIP3    H110758   3.567   0.093   4.995  0.0642 -0.7265 -0.7405
 3584TIP3    H210759   3.447   0.006   5.029 -0.6469  1.4549  2.8046
 3585TIP3   OH210760   4.455   5.513   1.439  0.1026  0.0628  0.0392
 3585TIP3    H110761   4.364   5.518   1.410  0.0715  1.2898  0.2943
 3585TIP3    H210762   4.470   5.596   1.485  0.2919 -1.5295  3.1172
 3586TIP3   OH210763   0.131   4.910   3.358  0.3930  0.0386 -0.2188
 3586TIP3    H110764   0.148   4.925   3.451  0.6561 -0.2314 -0.2205
 3586TIP3    H210765   0.202   4.955   3.313 -1.7196  3.3851 -0.4912
 3587TIP3   OH210766   0.558   4.452   2.261 -0.6264 -0.4875  0.0697
 3587TIP3    H110767   0.506   4.455   2.341 -0.1186 -0.9375  0.4275
 3587TIP3    H210768   0.558   4.360   2.235 -0.7481 -0.3517 -0.4204
 3588TIP3   OH210769   1.065   5.902   4.348 -0.1642 -0.2832  0.1682
 3588TIP3    H110770   1.112   5.881   4.429 -2.9188 -1.4404  1.6055
 3588TIP3    H210771   1.081   5.826   4.292 -0.6794 -0.8860  0.8237
 3589TIP3   OH210772   2.952   4.702   0.312  0.1191  0.1095 -0.1804
 3589TIP3    H110773   2.886   4.751   0.264 -0.5890 -1.3384 -0.7315
 3589TIP3    H210774   2.914   4.687   0.398 -0.1739 -0.5143 -0.4166
 3590TIP3   OH210775   3.407   4.523   2.195  0.0674  0.2666  0.0167
 3590TIP3    H110776   3.406   4.529   2.099 -0.6994 -0.3310 -0.0226
 3590TIP3    H210777   3.417   4.429   2.213  0.2631  0.3803  0.5245
 3591TIP3   OH210778   5.241   3.297   4.458  0.1915  0.4265  0.5285
 3591TIP3    H110779   5.301   3.339   4.395  0.2237  0.7658  0.7852
 3591TIP3    H210780   5.200   3.227   4.407  1.7183 -0.6203  0.6681
 3592TIP3   OH210781   1.550   2.085   4.987  0.0029  0.3569  0.4330
 3592TIP3    H110782   1.624   2.041   5.027 -0.9286 -0.7385  1.0272
 3592TIP3    H210783   1.511   2.137   5.057  1.6705  3.0519 -0.4895
 3593TIP3   OH210784   5.938   5.096   1.479 -0.0065 -0.0841 -0.0919
 3593TIP3    H110785   5.865   5.067   1.534  1.3367 -1.3370  1.1098
 3593TIP3    H210786   5.924   5.053   1.395 -0.3338 -0.8088  0.3274
 3594TIP3   OH210787   4.489   3.196   0.897  0.4073 -0.4448 -0.3462
 3594TIP3    H110788   4.525   3.208   0.809  1.2080 -0.0127  0.0346
 3594TIP3    H210789   4.530   3.115   0.928  0.3219 -0.4564 -0.2638
 3595TIP3   OH210790   6.212   1.587   2.359  0.0115  0.2062 -0.2476
 3595TIP3    H110791   6.242   1.650   2.293 -1.1639  0.0252 -0.9969
 3595TIP3    H210792   6.233   1.628   2.443 -0.2010  1.3330 -0.7248
 3596TIP3   OH210793   0.307   5.033   0.399  0.5672  0.1846 -0.3273
 3596TIP3    H110794   0.376   5.027   0.466 -0.1690 -1.3072  0.3646
 3596TIP3    H210795   0.231   4.991   0.440 -0.1282 -0.0979 -1.8385
 3597TIP3   OH210796   0.461   1.951   0.233  0.6012 -0.2875 -0.1824
 3597TIP3    H110797   0.546   1.909   0.221  0.6603 -0.2537  0.1107
 3597TIP3    H210798   0.398   1.879   0.230  0.7077 -0.4078  0.3843
 3598TIP3   OH210799   3.462   1.991   0.590 -0.9792  0.2506  0.0011
 3598TIP3    H110800   3.390   1.930   0.573 -1.6204  0.9399  0.1386
 3598TIP3    H210801   3.486   2.024   0.503 -2.8070  2.1663  0.1327
 3599TIP3   OH210802   3.757   1.167   4.605 -0.1914 -0.2789 -0.1821
 3599TIP3    H110803   3.676   1.188   4.558  0.3266  0.3305 -0.8329
 3599TIP3    H210804   3.728   1.137   4.691 -1.1003  0.0960 -0.3457
 3600TIP3   OH210805   1.468   3.491   4.663  0.1417 -0.3263  0.0282
 3600TIP3    H110806   1.421   3.555   4.717  0.0777  2.1856 -2.7472
 3600TIP3    H210807   1.442   3.512   4.573  4.5616 -0.3898 -1.5102
 3601TIP3   OH210808   4.174   1.019   0.255 -0.5335 -0.3668  0.1815
 3601TIP3    H110809   4.210   1.030   0.344 -0.1800  2.3561 -0.1967
 3601TIP3    H210810   4.232   0.956   0.214  3.3624  2.8559  0.0195
 3602TIP3   OH210811   0.170   4.296   0.197  0.0287  0.5110  0.0260
 3602TIP3    H110812   0.213   4.234   0.257 -0.4036  0.6804  0.5249
 3602TIP3    H210813   0.241   4.342   0.154  0.3695 -0.5733 -0.6092
 3603TIP3   OH210814   1.112   3.386   4.944  0.2948  0.3602  0.2073
 3603TIP3    H110815   1.063   3.461   4.910 -1.5260 -0.4742  0.8771
 3603TIP3    H210816   1.162   3.422   5.018 -0.9165  0.8667  0.8161
 3604TIP3   OH210817   0.187   2.583   1.955 -0.0641 -0.4972  0.2788
 3604TIP3    H110818   0.203   2.549   2.043  0.1954  0.3551  0.5674
 3604TIP3    H210819   0.159   2.673   1.968  0.2196 -0.2806 -0.5220
 3605TIP3   OH210820   4.466   5.697   3.251  0.0474 -0.4518  0.1949
 3605TIP3    H110821   4.525   5.628   3.282  1.5852  0.6012 -0.2495
 3605TIP3    H210822   4.452   5.752   3.328  1.1854  0.3245 -0.1284
 3606TIP3   OH210823   5.771   1.394   2.032  0.1064  0.4043  0.0571
 3606TIP3    H110824   5.742   1.426   1.947 -0.5783 -1.1691 -0.3313
 3606TIP3    H210825   5.728   1.451   2.096 -0.8688  0.4377 -0.6123
 3607TIP3   OH210826   5.887   3.504   3.727 -0.1374  0.5346 -0.1939
 3607TIP3    H110827   5.929   3.440   3.669  1.5623 -0.2377  1.7406
 3607TIP3    H210828   5.824   3.550   3.671  0.3580 -1.1294 -2.2529
 3608TIP3   OH210829   3.903   4.121   2.921  0.0367  0.1824  0.1892
 3608TIP3    H110830   3.837   4.053   2.932 -1.3225  1.1767 -1.4267
 3608TIP3    H210831   3.867   4.197   2.965  0.4427  0.5433 -0.0893
 3609TIP3   OH210832   5.629   3.721   3.275 -0.1678 -0.0916 -0.5649
 3609TIP3    H110833   5.558   3.673   3.232 -0.3440 -1.3133  0.9789
 3609TIP3    H210834   5.673   3.656   3.329 -0.4221  1.4225  1.6366
 3610TIP3   OH210835   0.245   1.171   0.762 -0.3201  0.5478 -0.1589
 3610TIP3    H110836   0.251   1.215   0.677 -0.9045  0.0741 -0.4534
 3610TIP3    H210837   0.158   1.131   0.763  0.5942 -1.6121 -0.4186
 3611TIP3   OH210838   1.293   5.685   1.355 -0.0177 -0.9240  1.0442
 3611TIP3    H110839   1.351   5.612   1.374 -0.0187 -1.3611 -0.4907
 3611TIP3    H210840   1.260   5.667   1.267 -1.6474 -0.1333  1.4663
 3612TIP3   OH210841   4.033   0.726   4.618 -0.7524 -0.5100 -0.4502
 3612TIP3    H110842   3.963   0.756   4.559  0.0198  0.5489 -0.8650
 3612TIP3    H210843   4.036   0.793   4.687 -0.1192 -0.5282 -0.4604
 3613TIP3   OH210844   4.893   3.322   0.901  0.0064  0.6752  0.0810
 3613TIP3    H110845   4.831   3.287   0.836  0.5893  0.7035 -0.4988
 3613TIP3    H210846   4.899   3.254   0.967 -1.7421  1.2498  0.9130
 3614TIP3   OH210847   3.621   2.494   2.650  0.5582  0.3908 -0.0467
 3614TIP3    H110848   3.592   2.580   2.679  1.5991  1.0113 -0.7797
 3614TIP3    H210849   3.638   2.504   2.557  0.3309 -0.7178 -0.2234
 3615TIP3   OH210850   3.738   4.536   0.602 -0.3521 -0.4441  0.4159
 3615TIP3    H110851   3.834   4.542   0.609 -0.2314  0.1549 -1.3661
 3615TIP3    H210852   3.707   4.621   0.633 -0.2598 -0.3558  0.2673
 3616TIP3   OH210853   2.254   3.999   1.499  0.1994  0.2824 -0.4340
 3616TIP3    H110854   2.200   3.929   1.537 -0.7788  0.4578 -1.4523
 3616TIP3    H210855   2.300   4.036   1.574 -1.7641  0.6998  0.6440
 3617TIP3   OH210856   2.971   0.587   3.098 -0.7983 -0.1795  0.1061
 3617TIP3    H110857   2.932   0.647   3.160  0.0843  0.4458  0.0828
 3617TIP3    H210858   3.025   0.529   3.151  0.5365  0.8141 -0.1004
 3618TIP3   OH210859   1.819   3.685   4.286  0.0615  0.3631  0.0487
 3618TIP3    H110860   1.837   3.702   4.379 -1.5292  0.8880  0.2934
 3618TIP3    H210861   1.764   3.607   4.287  0.2848  0.1939 -0.4987
 3619TIP3   OH210862   2.314   1.498  -0.024  0.3200 -0.0490  0.1858
 3619TIP3    H110863   2.247   1.484   0.043 -2.0119 -1.7057 -2.2963
 3619TIP3    H210864   2.385   1.439   0.001 -0.4700 -0.6006  1.2118
 3620TIP3   OH210865   4.564   1.014   0.497 -0.1114  0.0455 -0.3384
 3620TIP3    H110866   4.653   1.001   0.530  0.0705 -0.6586 -1.0947
 3620TIP3    H210867   4.525   0.927   0.496 -1.8278  0.6078  2.6823
 3621TIP3   OH210868   4.378   2.799   2.845  0.0555  0.4303  0.1027
 3621TIP3    H110869   4.347   2.730   2.786  1.7505  0.0398 -0.3911
 3621TIP3    H210870   4.473   2.800   2.833  0.2202  1.8428  1.2229
 3622TIP3   OH210871   2.399   5.924   2.983 -0.0668  0.0490  0.3513
 3622TIP3    H110872   2.421   5.912   2.891 -1.9053 -0.9503 -0.0021
 3622TIP3    H210873   2.311   5.886   2.992 -0.3940  1.1330  2.2707
 3623TIP3   OH210874   3.133   1.516   0.200 -0.0250  0.6378  0.0928
 3623TIP3    H110875   3.201   1.553   0.256 -0.9427  2.3117  0.1572
 3623TIP3    H210876   3.123   1.580   0.129  0.5305 -1.0316 -1.5708
 3624TIP3   OH210877   0.373   3.261   1.203 -0.3407  0.1135 -0.1477
 3624TIP3    H110878   0.415   3.199   1.262 -1.3091 -0.7678 -0.3641
 3624TIP3    H210879   0.279   3.245   1.214 -0.6442  1.8974  0.1733
 3625TIP3   OH210880   3.428   2.737   0.686 -0.2736 -0.2083  0.4960
 3625TIP3    H110881   3.399   2.759   0.774  0.8456  1.3685  0.5010
 3625TIP3    H210882   3.466   2.817   0.652  2.9886 -1.7605  0.0696
 3626TIP3   OH210883   5.486   5.195   4.425 -0.2348  0.6793 -0.2370
 3626TIP3    H110884   5.494   5.137   4.350  0.6465 -0.6626  0.8430
 3626TIP3    H210885   5.536   5.273   4.401 -1.3187  0.9750 -1.6523
 3627TIP3   OH210886   4.488   3.155   2.516 -0.1650  0.5111  0.4619
 3627TIP3    H110887   4.512   3.177   2.426 -0.8111 -0.0741  0.1361
 3627TIP3    H210888   4.507   3.235   2.566 -1.3542  1.4310 -0.4876
 3628TIP3   OH210889   0.162   5.392   4.990  0.4945  0.2805 -0.2258
 3628TIP3    H110890   0.138   5.413   5.080  0.0644  1.8435 -0.6681
 3628TIP3    H210891   0.253   5.420   4.982  0.4143  0.5045 -0.3762
 3629TIP3   OH210892   3.221   5.030   3.905 -0.6945  0.1004  0.2417
 3629TIP3    H110893   3.267   5.021   3.822 -1.1938 -2.9154  0.1981
 3629TIP3    H210894   3.270   4.974   3.966 -2.3180 -0.5155  1.0501
 3630TIP3   OH210895   5.926   5.443   4.249  0.3257  0.6131 -0.0243
 3630TIP3    H110896   5.842   5.473   4.282  0.4107  0.5971  0.2078
 3630TIP3    H210897   5.986   5.454   4.323  0.4061  0.0811 -0.0062
 3631TIP3   OH210898   2.130   4.008   3.435  0.0557  0.6660  0.0157
 3631TIP3    H110899   2.134   3.955   3.355 -4.7678 -0.7846  0.4281
 3631TIP3    H210900   2.138   3.944   3.506 -2.3192  0.8445  0.5327
 3632TIP3   OH210901   1.781   0.390   2.149  0.0231  0.2811 -0.1005
 3632TIP3    H110902   1.746   0.457   2.091 -0.7925  0.2572  0.3452
 3632TIP3    H210903   1.870   0.420   2.171 -0.2466  1.0866 -0.0973
 3633TIP3   OH210904   5.937   4.470   0.700  0.6388 -0.1041  0.8188
 3633TIP3    H110905   5.941   4.554   0.655 -2.3772  1.2473  2.7214
 3633TIP3    H210906   5.963   4.406   0.634 -0.1979  2.0027 -1.7371
 3634TIP3   OH210907   3.127   2.269   3.605  0.0703  0.2811  0.5184
 3634TIP3    H110908   3.058   2.209   3.576  0.7364 -0.9288  1.3351
 3634TIP3    H210909   3.119   2.270   3.700  1.3972 -0.1724  0.6521
 3635TIP3   OH210910   4.201   4.230   2.531  0.4389  0.1359  0.3372
 3635TIP3    H110911   4.183   4.148   2.576  3.6999 -0.2094  1.3128
 3635TIP3    H210912   4.216   4.293   2.602 -2.4011  1.7760 -0.3866
 3636TIP3   OH210913   0.343   1.149   4.792 -0.4750 -0.0480 -0.0257
 3636TIP3    H110914   0.403   1.075   4.803  0.6703  0.9521  0.7082
 3636TIP3    H210915   0.349   1.171   4.699 -0.5370 -0.6469 -0.1716
 3637TIP3   OH210916   6.208   5.220   3.913 -0.3976 -0.1751 -0.1264
 3637TIP3    H110917   6.183   5.305   3.950 -1.7877 -0.1938 -0.9284
 3637TIP3    H210918   6.273   5.241   3.846  1.2270 -0.0328  1.4203
 3638TIP3   OH210919   1.179   2.280   3.812  0.3610 -0.1216  0.1635
 3638TIP3    H110920   1.205   2.199   3.856  1.6627  0.0809 -0.2121
 3638TIP3    H210921   1.198   2.349   3.876 -2.7135 -0.2004  1.3442
 3639TIP3   OH210922   6.006   4.777   1.605  0.6461 -0.3969  0.1331
 3639TIP3    H110923   5.952   4.848   1.572  0.1636 -1.8365 -2.4944
 3639TIP3    H210924   5.958   4.742   1.680 -0.7284  0.0556 -0.5130
 3640TIP3   OH210925   4.555   1.809   4.237  0.5473  0.4816 -0.5397
 3640TIP3    H110926   4.541   1.733   4.180  1.6873 -1.3339  1.4638
 3640TIP3    H210927   4.577   1.880   4.177  2.4436 -1.5014 -2.3845
 3641TIP3   OH210928   2.127   0.299   0.425  0.0205  0.0888 -0.0889
 3641TIP3    H110929   2.195   0.345   0.474 -0.3660  0.0102  0.5237
 3641TIP3    H210930   2.052   0.296   0.484 -0.2800 -0.4719 -0.4880
 3642TIP3   OH210931   0.184   0.625   2.382 -0.0257 -0.3508  0.3476
 3642TIP3    H110932   0.111   0.685   2.375 -1.0623 -1.4805  1.0822
 3642TIP3    H210933   0.261   0.677   2.359 -0.9053  1.1819  0.7803
 3643TIP3   OH210934   0.179   5.890   0.795  0.7388  0.1822  0.0170
 3643TIP3    H110935   0.112   5.882   0.727  0.1225 -0.1754  0.6511
 3643TIP3    H210936   0.139   5.850   0.872  1.3530  0.7499  0.6408
 3644TIP3   OH210937   3.331   0.725   0.892 -0.1209  0.2161 -0.4496
 3644TIP3    H110938   3.244   0.713   0.930  0.2627  0.3009  0.4846
 3644TIP3    H210939   3.353   0.816   0.913 -0.2696  0.5532 -1.6783
 3645TIP3   OH210940   1.590   4.624   3.340  0.2655 -0.0638  0.3711
 3645TIP3    H110941   1.630   4.711   3.345 -1.0521  0.5657  0.5965
 3645TIP3    H210942   1.573   4.610   3.247  1.8053 -0.7382  0.1692
 3646TIP3   OH210943   2.193   0.910   0.142  0.5020  0.5555 -0.2237
 3646TIP3    H110944   2.258   0.853   0.100  1.2133  0.1501  1.3554
 3646TIP3    H210945   2.235   0.996   0.146  0.8270  0.3760  0.4698
 3647TIP3   OH210946   1.971   3.453   0.638 -0.2673 -0.1669 -0.2159
 3647TIP3    H110947   1.888   3.465   0.684 -0.3368 -0.0138 -0.3750
 3647TIP3    H210948   1.985   3.359   0.637 -0.1178 -0.1533  0.3690
 3648TIP3   OH210949   0.837   3.547   2.663 -0.2565  0.3637  0.2457
 3648TIP3    H110950   0.853   3.502   2.580  1.6630 -1.0916  1.3113
 3648TIP3    H210951   0.911   3.608   2.672  0.9452 -1.2235  1.9227
 3649TIP3   OH210952   4.568   3.302   0.009  0.5917 -0.2834  0.3433
 3649TIP3    H110953   4.521   3.339   0.084 -2.6175 -1.3811 -0.9697
 3649TIP3    H210954   4.576   3.209   0.031 -2.3712 -1.0855 -1.4430
 3650TIP3   OH210955   2.544   1.961   2.010  0.0538 -0.0082 -0.1331
 3650TIP3    H110956   2.454   1.992   2.023  0.1257 -0.1159  0.6866
 3650TIP3    H210957   2.587   2.031   1.961 -1.0022 -0.8149 -2.3247
 3651TIP3   OH210958   2.559   4.460   3.345 -0.3053  0.4790  0.4892
 3651TIP3    H110959   2.498   4.495   3.409 -0.1358 -0.3435  1.1125
 3651TIP3    H210960   2.530   4.497   3.261  0.1064  2.4007  1.1501
 3652TIP3   OH210961   0.874   5.625   1.233 -0.6885  0.3065  0.2788
 3652TIP3    H110962   0.802   5.687   1.239 -0.0297  1.0940  0.1335
 3652TIP3    H210963   0.892   5.600   1.324 -1.0880  0.1561  0.3212
 3653TIP3   OH210964   5.076   3.445   3.769  0.6664  0.0669  0.1068
 3653TIP3    H110965   5.067   3.510   3.838 -0.0709 -0.0533  0.1298
 3653TIP3    H210966   5.109   3.367   3.813 -0.5059 -0.2419  0.4639
 3654TIP3   OH210967   3.252   0.429   0.294 -0.1544  0.0231  0.4731
 3654TIP3    H110968   3.188   0.496   0.269 -2.0303 -1.6874  0.4077
 3654TIP3    H210969   3.245   0.363   0.226 -0.5197 -1.5973  2.0073
 3655TIP3   OH210970   5.690   5.194   3.057 -0.3507  0.5254 -0.5611
 3655TIP3    H110971   5.629   5.132   3.097  0.0070  0.0777 -0.7038
 3655TIP3    H210972   5.676   5.276   3.105 -0.9664  0.3864 -0.5062
 3656TIP3   OH210973   4.671   1.583   2.499  0.6332 -0.4741 -0.3399
 3656TIP3    H110974   4.614   1.513   2.469  0.0831 -0.4497  0.5972
 3656TIP3    H210975   4.680   1.642   2.424 -1.4958  0.1089 -0.2024
 3657TIP3   OH210976   4.265   3.476   0.714  0.1400 -0.7334  0.4379
 3657TIP3    H110977   4.357   3.456   0.695  0.5428  1.2268  0.0898
 3657TIP3    H210978   4.231   3.511   0.631 -0.1927  0.9055  1.2240
 3658TIP3   OH210979   2.335   1.181   0.751  0.4601  0.1021 -0.2196
 3658TIP3    H110980   2.401   1.247   0.731  1.2233 -0.7414 -0.5745
 3658TIP3    H210981   2.369   1.100   0.712 -1.0977 -0.2263 -1.0064
 3659TIP3   OH210982   4.261   4.178   0.581 -0.0295 -0.2154 -0.3628
 3659TIP3    H110983   4.183   4.211   0.535 -0.1317 -0.5358 -0.4261
 3659TIP3    H210984   4.333   4.194   0.520  0.3079  1.9963  0.5238
 3660TIP3   OH210985   4.098   2.686   5.041  0.1415  0.2803  0.5890
 3660TIP3    H110986   4.172   2.716   5.094 -0.5048  1.7308  0.7201
 3660TIP3    H210987   4.083   2.758   4.979 -0.7480 -0.2824  0.1439
 3661TIP3   OH210988   0.202   4.965   4.464  0.5151 -0.1172 -0.6503
 3661TIP3    H110989   0.161   4.937   4.382  0.5466  2.7661 -1.7933
 3661TIP3    H210990   0.129   4.997   4.517  0.7758  0.6225 -0.7298
 3662TIP3   OH210991   4.545   5.840   1.866 -0.0900 -0.1064 -0.1035
 3662TIP3    H110992   4.630   5.883   1.865 -0.0519 -0.1786 -0.0022
 3662TIP3    H210993   4.563   5.752   1.899  0.4493 -1.4737 -3.6265
 3663TIP3   OH210994   0.642   2.624   0.349  0.5646  0.3239 -0.2896
 3663TIP3    H110995   0.605   2.567   0.281  0.8957  1.8036 -1.7764
 3663TIP3    H210996   0.626   2.577   0.430 -3.0016  0.0029 -0.9884
 3664TIP3   OH210997   3.439   3.818   4.905 -0.3369  0.0321 -0.3034
 3664TIP3    H110998   3.389   3.745   4.941 -0.0967 -0.2900 -0.6199
 3664TIP3    H210999   3.465   3.789   4.817 -1.8561  1.2378 -1.1891
 3665TIP3   OH211000   1.498   5.494   1.354  0.4240 -0.1048  0.2750
 3665TIP3    H111001   1.571   5.459   1.404  0.3944  2.8115  2.6237
 3665TIP3    H211002   1.539   5.538   1.279  0.6136 -2.6128 -1.2065
 3666TIP3   OH211003   2.128   0.943   5.129 -0.1919  0.3612 -0.2196
 3666TIP3    H111004   2.119   1.019   5.071  0.8594 -0.0758 -0.9915
 3666TIP3    H211005   2.048   0.943   5.181 -2.1967 -0.3180 -3.0315
 3667TIP3   OH211006   1.083   5.290   4.152 -0.1566 -0.4931 -0.4664
 3667TIP3    H111007   1.012   5.225   4.144 -0.9770 -0.0099  1.8565
 3667TIP3    H211008   1.057   5.361   4.094 -1.9826 -0.0585  0.7846
 3668TIP3   OH211009   1.016   4.343   1.163  0.6380 -0.3250 -0.0606
 3668TIP3    H111010   0.953   4.302   1.222  0.8547 -1.1144 -0.3697
 3668TIP3    H211011   1.020   4.434   1.193 -0.0814 -0.4435  0.4372
 3669TIP3   OH211012   5.004   1.669   3.147  0.3909  0.1694  0.3254
 3669TIP3    H111013   5.022   1.763   3.150  0.2527  0.2678 -1.0774
 3669TIP3    H211014   5.064   1.631   3.210 -0.1809  1.2758  1.5955
 3670TIP3   OH211015   4.495   2.529   1.550 -0.0799  0.2217 -0.5556
 3670TIP3    H111016   4.421   2.477   1.518  0.3118  0.0945 -1.2912
 3670TIP3    H211017   4.523   2.485   1.630  1.1744 -1.6263 -1.9159
 3671TIP3   OH211018   4.128   5.950   2.563  0.5602  0.3383  0.1051
 3671TIP3    H111019   4.195   5.883   2.581  0.2281 -0.0659 -0.1458
 3671TIP3    H211020   4.172   6.033   2.582  0.7422  0.0184  1.1507
 3672TIP3   OH211021   4.356   1.990   3.888  0.4244  0.0482  0.0427
 3672TIP3    H111022   4.430   1.979   3.948 -1.3148  0.0653  2.3368
 3672TIP3    H211023   4.329   1.900   3.867  0.5068  0.0357 -0.0084
 3673TIP3   OH211024   0.019   3.857   0.418  0.1463  0.0401  0.5545
 3673TIP3    H111025  -0.035   3.865   0.340 -0.8502 -0.5661  1.1707
 3673TIP3    H211026   0.092   3.800   0.392  0.2859  0.5436 -0.1643
 3674TIP3   OH211027   1.670   3.931   2.922  0.1781 -0.3292  0.0286
 3674TIP3    H111028   1.650   4.024   2.907 -0.5546 -0.3211  0.9401
 3674TIP3    H211029   1.601   3.884   2.876 -1.2861 -0.3282  2.0756
 3675TIP3   OH211030   5.656   0.423   0.618 -0.2516  0.3438  0.1187
 3675TIP3    H111031   5.618   0.372   0.689 -0.5915 -0.7322 -0.7967
 3675TIP3    H211032   5.675   0.358   0.550  0.9815  1.2061 -0.3881
 3676TIP3   OH211033   4.893   1.306   2.065  0.3749 -0.0547  0.3311
 3676TIP3    H111034   4.898   1.297   1.970  0.0160  1.2455  0.1707
 3676TIP3    H211035   4.934   1.226   2.099  2.1149  0.2558 -0.9090
 3677TIP3   OH211036   5.206   0.288   2.759 -0.1189 -0.3224  0.5731
 3677TIP3    H111037   5.167   0.375   2.771  0.4587 -0.0908  0.7888
 3677TIP3    H211038   5.154   0.249   2.688 -0.5234  0.1121  0.6216
 3678TIP3   OH211039   0.288   0.763   0.045  0.2632  0.1753  0.4014
 3678TIP3    H111040   0.196   0.736   0.050 -0.0062  1.0064  0.1069
 3678TIP3    H211041   0.304   0.807   0.128  0.8202 -1.1766  1.0542
 3679TIP3   OH211042   0.493   5.061   0.954  0.3117  0.1692 -0.0356
 3679TIP3    H111043   0.476   5.154   0.971  0.8610 -0.0296  1.8383
 3679TIP3    H211044   0.588   5.052   0.963  0.6955 -0.0923 -3.1234
 3680TIP3   OH211045   1.152   1.680   4.604  0.4190 -0.3056  0.0015
 3680TIP3    H111046   1.092   1.754   4.609 -0.0812 -0.7763  1.7253
 3680TIP3    H211047   1.110   1.619   4.543 -0.7412 -0.5027  0.9694
 3681TIP3   OH211048   4.334   0.404   1.989 -0.2172  0.0353  0.3507
 3681TIP3    H111049   4.350   0.315   1.959  1.6664  0.1194  1.0083
 3681TIP3    H211050   4.297   0.449   1.912  0.7784 -0.7704 -0.6331
 3682TIP3   OH211051   5.818   0.916   0.809  0.3448 -0.0110  0.4011
 3682TIP3    H111052   5.795   0.850   0.744 -0.7429  0.9231 -0.2190
 3682TIP3    H211053   5.756   0.902   0.881  1.4466 -0.9451  1.1952
 3683TIP3   OH211054   3.313   3.107   0.498 -0.2837  0.4838 -0.2306
 3683TIP3    H111055   3.303   3.191   0.452 -0.3359  0.6469  0.0756
 3683TIP3    H211056   3.320   3.042   0.428 -3.3220  0.3377 -0.5445
 3684TIP3   OH211057   4.748   2.920   0.558  0.0259 -0.1725  0.5821
 3684TIP3    H111058   4.729   2.841   0.508 -0.7251  0.2804  0.1257
 3684TIP3    H211059   4.837   2.944   0.534 -0.3144  0.0298 -0.5368
 3685TIP3   OH211060   5.729   2.931   0.112  0.2798 -0.0175  0.5494
 3685TIP3    H111061   5.820   2.902   0.110 -0.3987 -2.3121  0.6550
 3685TIP3    H211062   5.705   2.940   0.019  0.1740 -0.9299  0.4829
 3686TIP3   OH211063   3.395   1.726   1.557 -0.4552  0.6066 -0.7123
 3686TIP3    H111064   3.351   1.674   1.624 -1.9855  2.8407  0.1372
 3686TIP3    H211065   3.484   1.739   1.591 -0.0671 -1.2534 -0.9003
 3687TIP3   OH211066   6.082   3.953   4.770 -0.6782 -0.0577  0.5345
 3687TIP3    H111067   6.049   4.030   4.817 -1.2443  1.0069 -1.4980
 3687TIP3    H211068   6.034   3.880   4.808 -1.4533  0.8169  1.2869
 3688TIP3   OH211069   5.612   4.787   0.522  0.0704 -0.0791  0.1597
 3688TIP3    H111070   5.662   4.802   0.441 -1.0924 -0.0106 -0.5633
 3688TIP3    H211071   5.538   4.846   0.516 -0.3255 -0.4677  1.0352
 3689TIP3   OH211072   2.187   5.146   3.108  0.0368  0.0693  0.5163
 3689TIP3    H111073   2.237   5.136   3.027 -0.2887  0.1612  0.3032
 3689TIP3    H211074   2.253   5.140   3.178  0.3718  0.3875  0.2309
 3690TIP3   OH211075   5.511   4.690   1.649 -0.2010  0.3015 -0.7153
 3690TIP3    H111076   5.448   4.739   1.701  0.0289  0.1205 -0.2565
 3690TIP3    H211077   5.516   4.737   1.566 -0.3125  0.8011 -0.4441
 3691TIP3   OH211078   4.573   4.433   2.612  0.0470  0.1462  0.5149
 3691TIP3    H111079   4.640   4.365   2.619  0.0336  0.1825  0.9944
 3691TIP3    H211080   4.606   4.506   2.664  1.0246  1.3118 -1.5931
 3692TIP3   OH211081   1.087   3.532   1.701 -0.0497  0.1930  0.0002
 3692TIP3    H111082   1.176   3.503   1.723  0.2399  0.7015 -0.4635
 3692TIP3    H211083   1.054   3.467   1.640 -0.6468 -0.9265  1.4555
 3693TIP3   OH211084   5.925   5.751   2.722  0.1631  1.0121 -0.4417
 3693TIP3    H111085   6.008   5.759   2.675 -0.0116  0.9774 -0.7587
 3693TIP3    H211086   5.950   5.749   2.815  0.4516  2.0453 -0.4772
 3694TIP3   OH211087   1.134   2.907   0.093 -0.2733 -0.6224  0.2185
 3694TIP3    H111088   1.114   2.979   0.033  0.5167 -1.5019 -1.1597
 3694TIP3    H211089   1.148   2.949   0.178 -0.0156  0.8172 -0.5124
 3695TIP3   OH211090   5.068   4.344   4.298  0.1521  0.5124  0.0469
 3695TIP3    H111091   5.142   4.304   4.345  1.4744  0.6564 -1.8252
 3695TIP3    H211092   5.095   4.435   4.285 -0.2228  0.4903 -0.9181
 3696TIP3   OH211093   5.922   2.706   2.805  0.7914  0.3102 -0.0333
 3696TIP3    H111094   6.003   2.684   2.850  1.8247  2.2998 -0.7911
 3696TIP3    H211095   5.935   2.675   2.715  0.0139 -0.8135  0.2137
 3697TIP3   OH211096   3.818   0.831   4.001  0.3091  0.2069 -0.0895
 3697TIP3    H111097   3.786   0.752   4.044  1.2409  0.0267  0.2882
 3697TIP3    H211098   3.874   0.799   3.930  2.0632  0.4976  1.1014
 3698TIP3   OH211099   2.812   3.461   2.550  0.4569 -1.0755  0.4610
 3698TIP3    H111100   2.735   3.518   2.551 -0.9046 -2.8662  0.9071
 3698TIP3    H211101   2.852   3.476   2.464  0.2553  0.6458  0.6216
 3699TIP3   OH211102   2.476   1.949   3.952 -0.1951 -0.1007  0.1917
 3699TIP3    H111103   2.542   1.915   3.891 -0.5221  0.2713 -0.3762
 3699TIP3    H211104   2.513   2.032   3.983  1.0383 -1.3450  2.2971
 3700TIP3   OH211105   1.966   5.407   2.673  0.1596  0.2900  0.5150
 3700TIP3    H111106   1.940   5.369   2.589 -0.5415  2.2656 -0.2212
 3700TIP3    H211107   2.051   5.447   2.657  0.7870 -0.7040  1.2214
 3701TIP3   OH211108   3.478   3.208   0.118 -0.2426  0.0174 -0.3526
 3701TIP3    H111109   3.497   3.245   0.204  0.6530 -0.0637 -0.4969
 3701TIP3    H211110   3.391   3.170   0.126 -1.1529  2.0732 -0.1755
 3702TIP3   OH211111   3.179   2.003   3.127  0.4635 -0.4557  0.0022
 3702TIP3    H111112   3.241   1.940   3.089  0.6278 -1.5904  1.9616
 3702TIP3    H211113   3.105   2.004   3.067  1.3147 -1.0295 -1.0861
 3703TIP3   OH211114   2.803   1.171   4.296 -0.1501  0.0777 -0.0301
 3703TIP3    H111115   2.887   1.216   4.297  0.6365 -1.2814 -0.9133
 3703TIP3    H211116   2.820   1.090   4.345 -0.8420 -0.3684 -0.5212
 3704TIP3   OH211117   4.140   4.025   0.774  0.4832  0.0711  0.2848
 3704TIP3    H111118   4.197   3.967   0.826 -0.5135  0.6665  2.1098
 3704TIP3    H211119   4.200   4.069   0.713  1.9131  0.2749  1.7759
 3705TIP3   OH211120   2.957   1.773   1.867  0.7994  0.0548  0.1772
 3705TIP3    H111121   3.003   1.812   1.941  0.7332  1.8265 -0.6611
 3705TIP3    H211122   2.976   1.832   1.793 -1.8337  0.2299 -0.4678
 3706TIP3   OH211123   2.462   3.483   4.388  0.5615  0.3710  0.1448
 3706TIP3    H111124   2.370   3.501   4.409  0.8286 -0.1177  1.9286
 3706TIP3    H211125   2.461   3.400   4.341  0.1497 -0.2050  1.1353
 3707TIP3   OH211126   0.420   3.968   0.273 -0.5688  0.0614 -0.5001
 3707TIP3    H111127   0.495   4.026   0.284 -0.8110  0.1282  1.1159
 3707TIP3    H211128   0.458   3.885   0.242  0.6285 -0.7794  2.7577
 3708TIP3   OH211129   0.585   5.088   0.071  0.5036  0.3043  0.3223
 3708TIP3    H111130   0.646   5.103   0.143  0.0889  0.5254  0.6315
 3708TIP3    H211131   0.588   4.993   0.057  3.5819  0.5751 -2.0327
 3709TIP3   OH211132   1.671   3.984   3.249 -0.1114 -0.2757  0.2268
 3709TIP3    H111133   1.735   3.938   3.305  0.3458  0.0713 -0.0027
 3709TIP3    H211134   1.608   3.917   3.225  0.2157 -0.6477  0.3864
 3710TIP3   OH211135   2.540   0.127   0.235 -0.7015 -0.3114  0.1838
 3710TIP3    H111136   2.478   0.062   0.202 -0.3891 -0.4753 -0.0846
 3710TIP3    H211137   2.570   0.173   0.158  1.1885 -1.7110  0.0083
 3711TIP3   OH211138   2.716   3.769   3.249  0.1303 -0.4721 -0.0278
 3711TIP3    H111139   2.779   3.772   3.178  0.0352  0.7480 -0.0920
 3711TIP3    H211140   2.649   3.833   3.224 -0.1195 -0.3319  0.9492
 3712TIP3   OH211141   4.814   5.036   2.675  0.5236 -0.0058  0.1338
 3712TIP3    H111142   4.722   5.015   2.660  0.4387  1.2609 -1.2820
 3712TIP3    H211143   4.862   4.981   2.613  0.4729  1.7148 -1.5161
 3713TIP3   OH211144   5.799   2.769   1.334 -0.4082 -0.5627 -0.0048
 3713TIP3    H111145   5.847   2.699   1.379 -2.4978 -1.2680  1.3415
 3713TIP3    H211146   5.740   2.803   1.402 -2.8129 -0.7765 -1.8562
 3714TIP3   OH211147   2.749   0.784   3.228  0.0193  0.2173 -0.4386
 3714TIP3    H111148   2.686   0.792   3.156 -0.0363  0.3094 -0.3803
 3714TIP3    H211149   2.697   0.751   3.301  0.1336 -0.1365 -0.5197
 3715TIP3   OH211150   1.615   2.542   2.756  0.4302  0.4159 -0.0132
 3715TIP3    H111151   1.597   2.560   2.848 -0.7429  0.5902 -0.2575
 3715TIP3    H211152   1.573   2.457   2.739  0.6126  0.3963 -0.3884
 3716TIP3   OH211153   1.853   0.846   1.180  0.0875 -0.5111  0.4794
 3716TIP3    H111154   1.803   0.835   1.099 -1.7485  2.9397  0.9310
 3716TIP3    H211155   1.921   0.909   1.157  0.6845 -0.8870  1.2048
 3717TIP3   OH211156   1.465   5.923   0.436 -0.7366  0.1613  0.5651
 3717TIP3    H111157   1.497   5.840   0.400  0.8327  0.5812  0.8803
 3717TIP3    H211158   1.527   5.944   0.506 -0.9069  1.7453  0.2913
 3718TIP3   OH211159   3.867   4.888   1.249  0.3116 -0.0273  0.1622
 3718TIP3    H111160   3.777   4.900   1.219 -0.0905  0.2237  1.3909
 3718TIP3    H211161   3.870   4.933   1.333  1.5223 -0.2534  0.2556
 3719TIP3   OH211162   1.884   5.725   1.271 -0.1523  0.0682 -0.2750
 3719TIP3    H111163   1.923   5.782   1.338  1.9023 -0.7629 -0.6893
 3719TIP3    H211164   1.952   5.661   1.251 -1.6641 -1.3084 -1.2952
 3720TIP3   OH211165   5.242   5.618   1.271  0.3810  0.3276 -0.0999
 3720TIP3    H111166   5.207   5.681   1.334  0.6588  0.2471  0.1365
 3720TIP3    H211167   5.332   5.648   1.254 -0.3110  1.5366 -2.0043
 3721TIP3   OH211168   4.734   1.942   2.144  0.4537 -0.5579  0.3701
 3721TIP3    H111169   4.723   1.858   2.189  1.8821 -0.1899  1.4663
 3721TIP3    H211170   4.804   1.925   2.081  1.2732 -0.0126  1.1136
 3722TIP3   OH211171   5.114   3.254   1.097  0.0214 -0.2479  0.3589
 3722TIP3    H111172   5.160   3.273   1.016 -0.6011  0.8422  0.2476
 3722TIP3    H211173   5.048   3.189   1.072  1.6852 -2.1634  0.6037
 3723TIP3   OH211174   4.814   0.684   2.268  0.7199  0.2801  0.8546
 3723TIP3    H111175   4.833   0.593   2.288  0.4487  0.0918  0.2893
 3723TIP3    H211176   4.898   0.729   2.274  1.0777 -0.2403 -0.0292
 3724TIP3   OH211177   0.641   3.905   3.359  0.0798 -0.7033 -0.2190
 3724TIP3    H111178   0.619   3.897   3.452  0.8369 -1.8938 -0.1123
 3724TIP3    H211179   0.701   3.979   3.354 -0.2360 -0.4186  0.1876
 3725TIP3   OH211180   0.340   3.612   3.141 -0.7319 -0.3488 -0.4416
 3725TIP3    H111181   0.248   3.610   3.114 -1.1253 -0.1933  0.8455
 3725TIP3    H211182   0.338   3.636   3.233  0.6108 -0.3246 -0.3971
 3726TIP3   OH211183   2.456   4.674   4.031 -0.4201  0.3374  0.1185
 3726TIP3    H111184   2.532   4.689   4.088  0.3743 -1.1827 -0.4730
 3726TIP3    H211185   2.482   4.710   3.946 -1.7219  2.8845  0.6931
 3727TIP3   OH211186   0.409   3.878   2.817 -0.1725  0.0752 -0.5360
 3727TIP3    H111187   0.328   3.829   2.803 -1.5340  2.3518 -1.0267
 3727TIP3    H211188   0.382   3.957   2.863  1.6823  1.1799 -1.2514
 3728TIP3   OH211189   4.447   5.853   2.153 -0.6121  0.1029  0.0381
 3728TIP3    H111190   4.504   5.899   2.092 -0.4981  0.4640  0.4111
 3728TIP3    H211191   4.365   5.839   2.105 -0.3495 -0.0621 -0.3628
 3729TIP3   OH211192   0.967   4.914   2.281 -0.1031 -0.1117 -0.5181
 3729TIP3    H111193   0.889   4.951   2.240 -0.8560 -1.1750 -0.0788
 3729TIP3    H211194   0.992   4.978   2.348 -0.5063  0.3141 -0.7752
 3730TIP3   OH211195   3.702   3.648   4.928  0.5145  0.0494 -0.3071
 3730TIP3    H111196   3.623   3.603   4.899  0.7730  0.3947 -1.5994
 3730TIP3    H211197   3.731   3.599   5.005  0.3925 -1.5761 -1.2592
 3731TIP3   OH211198   2.182   5.980   2.583  0.5200  0.0766  0.2891
 3731TIP3    H111199   2.094   5.952   2.559  0.7815  0.1871 -0.8961
 3731TIP3    H211200   2.172   6.024   2.667 -0.4809 -0.2754  0.3656
 3732TIP3   OH211201   3.805   2.449   3.954 -0.7503  0.3723 -0.6080
 3732TIP3    H111202   3.807   2.509   3.880 -0.4835 -0.1071 -0.9987
 3732TIP3    H211203   3.891   2.408   3.954 -1.0566 -0.2810 -0.5773
 3733TIP3   OH211204   0.777   0.400   2.419  0.4975 -0.0941 -0.0573
 3733TIP3    H111205   0.864   0.440   2.423  1.3717 -1.9927  1.6876
 3733TIP3    H211206   0.735   0.429   2.500 -0.7372  1.1885 -1.1006
 3734TIP3   OH211207   4.246   0.269   3.331 -0.0100  0.6599  0.1693
 3734TIP3    H111208   4.297   0.190   3.315  0.7593  0.9654  1.0380
 3734TIP3    H211209   4.311   0.339   3.335 -0.7150  1.4293 -1.0366
 3735TIP3   OH211210   2.125   3.177   4.529 -0.3716 -0.4186  0.0602
 3735TIP3    H111211   2.039   3.206   4.499 -0.2773 -0.1778  0.0243
 3735TIP3    H211212   2.136   3.091   4.488 -0.6490 -0.5079  0.1668
 3736TIP3   OH211213   5.587   2.866   3.775 -0.1936 -0.2497  0.6915
 3736TIP3    H111214   5.578   2.893   3.866 -0.5427  1.5873  0.1608
 3736TIP3    H211215   5.679   2.882   3.754 -0.2532 -0.0747  0.5585
 3737TIP3   OH211216   1.256   4.015   4.569 -0.1478 -0.6188  0.0411
 3737TIP3    H111217   1.350   4.005   4.588 -0.1532  0.5009  0.7725
 3737TIP3    H211218   1.213   3.994   4.651 -0.5229 -0.7833 -0.1954
 3738TIP3   OH211219   2.575   4.846   0.315 -0.1208  0.3518 -0.4341
 3738TIP3    H111220   2.525   4.916   0.272 -0.9740  0.1283  0.1572
 3738TIP3    H211221   2.645   4.825   0.253 -0.7414  0.6994 -1.2788
 3739TIP3   OH211222   1.651   2.174   0.373 -0.4478 -0.2107 -0.0520
 3739TIP3    H111223   1.611   2.087   0.368  1.5453 -1.1604 -0.7765
 3739TIP3    H211224   1.666   2.188   0.467 -0.8839 -0.6162  0.0827
 3740TIP3   OH211225   1.917   4.273   2.197  0.7314  0.0826  0.5614
 3740TIP3    H111226   1.884   4.334   2.131  0.8076  0.2685  0.6927
 3740TIP3    H211227   1.893   4.314   2.281 -1.5931 -1.3364  0.6797
 3741TIP3   OH211228   3.271   2.143   2.142 -0.6393 -0.5033  0.1551
 3741TIP3    H111229   3.336   2.151   2.072 -1.6328 -1.3762 -0.9041
 3741TIP3    H211230   3.216   2.221   2.132 -0.8930 -0.7211 -0.1627
 3742TIP3   OH211231   5.055   0.654   0.533  0.1175  0.0120  0.0856
 3742TIP3    H111232   5.040   0.701   0.615  1.1471 -0.0956  0.3437
 3742TIP3    H211233   4.981   0.680   0.477  0.4901  1.7019  0.3186
 3743TIP3   OH211234   3.382   0.986   0.952 -0.1331  0.5463  0.3471
 3743TIP3    H111235   3.308   0.956   1.004 -0.4801  2.2269  0.8805
 3743TIP3    H211236   3.355   1.072   0.918  1.0962  0.6497 -0.4606
 3744TIP3   OH211237   3.756   3.022   5.098  0.7677 -0.0077  0.1340
 3744TIP3    H111238   3.804   2.995   5.176  0.4811  0.2087  0.3866
 3744TIP3    H211239   3.664   3.015   5.123  0.6313 -1.4184 -0.6814
 3745TIP3   OH211240   0.746   2.903   1.559 -0.7269  0.4389  0.1152
 3745TIP3    H111241   0.696   2.965   1.507 -0.8699  0.0633 -0.2008
 3745TIP3    H211242   0.699   2.896   1.642 -1.7989 -0.6983 -0.5606
 3746TIP3   OH211243   0.045   0.229   4.032  0.4932  0.0468  0.4337
 3746TIP3    H111244  -0.004   0.303   3.998  2.0189  0.1562 -1.8073
 3746TIP3    H211245   0.117   0.268   4.082  0.6763  0.0645  0.1621
 3747TIP3   OH211246   4.619   5.521   3.378 -0.2403  0.1845 -0.1728
 3747TIP3    H111247   4.663   5.438   3.360  0.1108  0.2033  0.5516
 3747TIP3    H211248   4.600   5.518   3.471  2.9088  2.3416  0.7005
 3748TIP3   OH211249   1.519   3.487   3.406 -0.3683  0.5232 -0.4920
 3748TIP3    H111250   1.516   3.504   3.500 -0.0684 -2.4420  0.1341
 3748TIP3    H211251   1.460   3.413   3.393  1.0204 -0.3485 -2.3009
 3749TIP3   OH211252   4.182   3.061   2.449  0.0468  1.1797 -0.1876
 3749TIP3    H111253   4.275   3.063   2.428  0.3606 -1.7517  0.4382
 3749TIP3    H211254   4.178   3.050   2.544 -0.8260 -0.1464 -0.3343
 3750TIP3   OH211255   1.675   4.266   4.164  0.0989 -0.4623  0.2940
 3750TIP3    H111256   1.580   4.277   4.157  0.1710  1.2092  1.3807
 3750TIP3    H211257   1.707   4.273   4.074 -0.5667  2.0583  0.1900
 3751TIP3   OH211258   4.661   5.044   4.295  0.0339  0.0693  0.4403
 3751TIP3    H111259   4.614   4.962   4.278 -1.5140  0.5377  2.1363
 3751TIP3    H211260   4.703   5.030   4.380 -1.5517  1.5193  1.5260
 3752TIP3   OH211261   0.561   1.966   2.453 -0.2118  0.0178 -0.7393
 3752TIP3    H111262   0.622   1.902   2.489 -0.8831 -0.4884 -0.4779
 3752TIP3    H211263   0.523   1.923   2.376 -1.4976 -0.3757  0.0754
 3753TIP3   OH211264   1.560   1.028   0.850  0.0323 -0.4565 -0.1213
 3753TIP3    H111265   1.608   1.106   0.876  0.7051 -1.0545  0.4848
 3753TIP3    H211266   1.486   1.061   0.799  1.3602  0.4595 -1.5265
 3754TIP3   OH211267   0.014   4.741   4.586  0.6892 -0.1860  0.0660
 3754TIP3    H111268   0.095   4.691   4.579  1.6134  1.4255 -1.8777
 3754TIP3    H211269  -0.025   4.737   4.499 -1.3040 -0.7768  0.9093
 3755TIP3   OH211270   1.551   3.034   2.382 -0.6125  0.1348 -0.4831
 3755TIP3    H111271   1.501   3.113   2.404  0.6160  2.5247 -4.9651
 3755TIP3    H211272   1.526   3.016   2.291  0.9513 -3.3108 -0.3514
 3756TIP3   OH211273   0.712   0.443   2.696  0.3855  0.3668 -0.2052
 3756TIP3    H111274   0.755   0.409   2.775  0.7617 -0.1652 -0.6265
 3756TIP3    H211275   0.634   0.389   2.686  0.2564  0.5359 -0.1121
 3757TIP3   OH211276   4.099   4.568   0.200  0.0874  0.3399  0.1577
 3757TIP3    H111277   4.126   4.476   0.190 -0.9000  0.1969 -1.7553
 3757TIP3    H211278   4.007   4.562   0.225 -0.0259  0.7898 -0.1408
 3758TIP3   OH211279   5.239   3.814   1.874  0.2276  0.2928 -0.1557
 3758TIP3    H111280   5.255   3.722   1.893  0.8886  0.6301  1.0246
 3758TIP3    H211281   5.282   3.830   1.790 -0.6279 -0.6669 -0.7880
 3759TIP3   OH211282   1.616   3.261   5.008 -0.3777  0.2749  0.3801
 3759TIP3    H111283   1.667   3.338   4.983 -1.2364  0.9078  0.5302
 3759TIP3    H211284   1.547   3.255   4.941 -0.3742 -0.3061  0.4255
 3760TIP3   OH211285   1.870   2.271   3.857  0.1883 -0.3020  0.0578
 3760TIP3    H111286   1.780   2.280   3.825  0.1116  0.4119  0.4523
 3760TIP3    H211287   1.924   2.276   3.779 -0.1410 -1.1697 -0.2273
 3761TIP3   OH211288   1.402   0.662   0.061  0.2317 -0.4795  0.2537
 3761TIP3    H111289   1.324   0.614   0.090  0.1880  0.1042  1.1702
 3761TIP3    H211290   1.475   0.619   0.106  0.1441  0.5562  1.4496
 3762TIP3   OH211291   6.116   2.943   1.112  0.0479 -0.2449 -0.2554
 3762TIP3    H111292   6.149   2.876   1.171  1.2775 -1.3609 -2.1026
 3762TIP3    H211293   6.138   3.026   1.155 -0.3178 -0.9950  1.4465
 3763TIP3   OH211294   2.163   2.850   0.902  0.1904 -0.2915 -0.2807
 3763TIP3    H111295   2.183   2.761   0.934 -0.5275 -0.5739 -0.6045
 3763TIP3    H211296   2.166   2.904   0.981  1.0719 -0.5227 -0.1440
 3764TIP3   OH211297   4.665   2.513   4.369 -0.4776  0.0690 -0.4549
 3764TIP3    H111298   4.627   2.475   4.448  1.4044  1.5415  1.2823
 3764TIP3    H211299   4.734   2.451   4.344  1.4397  1.2806  1.3780
 3765TIP3   OH211300   5.125   5.122   2.279  0.2380 -0.4819  0.6799
 3765TIP3    H111301   5.036   5.137   2.312 -0.0424  0.0124 -0.2641
 3765TIP3    H211302   5.175   5.098   2.357 -1.0142 -2.2135  1.0249
 3766TIP3   OH211303   4.383   5.441   1.809  0.5175  0.2174 -0.0529
 3766TIP3    H111304   4.358   5.394   1.730  0.9564  0.7132 -0.4948
 3766TIP3    H211305   4.306   5.493   1.831  0.6992  0.7588 -0.6710
 3767TIP3   OH211306   3.836   4.565   3.102 -0.2396 -0.1968 -0.0458
 3767TIP3    H111307   3.858   4.625   3.173  0.0017 -0.3617  0.0212
 3767TIP3    H211308   3.828   4.621   3.025 -0.8211  0.0244  0.1718
 3768TIP3   OH211309   5.902   1.232   2.903 -0.0711  0.4290 -0.1066
 3768TIP3    H111310   5.877   1.186   2.983 -0.9196 -0.1516 -0.6956
 3768TIP3    H211311   5.954   1.307   2.934 -0.1874  0.0848  0.9659
 3769TIP3   OH211312   1.237   2.957   5.144 -0.3115 -0.0683 -0.1910
 3769TIP3    H111313   1.277   2.882   5.101 -0.4255  0.6041 -1.5410
 3769TIP3    H211314   1.162   2.922   5.190 -0.6131 -0.7268 -1.1622
 3770TIP3   OH211315   3.164   3.404   2.323 -0.2275 -0.1307 -0.4645
 3770TIP3    H111316   3.210   3.369   2.400  1.2613 -1.7634 -2.0122
 3770TIP3    H211317   3.100   3.337   2.300 -0.1521 -0.0041 -1.0683
 3771TIP3   OH211318   1.652   3.911   2.087 -0.2537  0.4395 -0.5638
 3771TIP3    H111319   1.658   3.816   2.076 -0.5085  0.3237  0.2260
 3771TIP3    H211320   1.558   3.927   2.093 -0.1632  0.5006  1.1845
 3772TIP3   OH211321   0.752   1.443   1.798 -0.2823 -0.5884  0.5322
 3772TIP3    H111322   0.845   1.421   1.793 -0.4614 -1.2260 -0.2493
 3772TIP3    H211323   0.750   1.527   1.844  0.8249  0.3510 -1.0171
 3773TIP3   OH211324   3.954   3.553   1.666 -0.1643 -0.3831  0.0717
 3773TIP3    H111325   4.023   3.546   1.599 -0.3349  0.3388 -0.1847
 3773TIP3    H211326   4.002   3.558   1.749  0.0907  0.0284 -0.0975
 3774TIP3   OH211327   1.123   0.719   0.930  0.0142  0.7831  0.9415
 3774TIP3    H111328   1.188   0.690   0.994  0.2684  0.6845  0.6378
 3774TIP3    H211329   1.149   0.677   0.848 -0.4315  0.7432  0.8178
 3775TIP3   OH211330   2.035   0.469   1.956 -0.4639  0.2811 -0.2185
 3775TIP3    H111331   2.026   0.490   2.049 -1.8776  1.7623 -0.6444
 3775TIP3    H211332   2.067   0.379   1.955  3.7961  1.5215  1.6963
 3776TIP3   OH211333   0.783   0.078   2.922  0.2288 -0.3785 -0.0056
 3776TIP3    H111334   0.772   0.076   2.827 -0.2340  3.6893 -0.2315
 3776TIP3    H211335   0.712   0.134   2.953  2.7269  1.8892  2.1508
 3777TIP3   OH211336   3.804   5.124   2.786  0.0910 -0.5442  0.1846
 3777TIP3    H111337   3.849   5.174   2.854  0.8301 -0.7051 -0.1807
 3777TIP3    H211338   3.766   5.050   2.833  2.0309 -1.5977  0.2113
 3778TIP3   OH211339   4.406   0.277   3.981  0.5334  0.8653  0.3460
 3778TIP3    H111340   4.410   0.363   4.024  0.1056  1.5932 -1.0245
 3778TIP3    H211341   4.361   0.294   3.898  1.2036 -0.5238 -0.3248
 3779TIP3   OH211342   2.485   5.658   4.656 -0.0402  0.4589 -0.3552
 3779TIP3    H111343   2.414   5.692   4.602 -0.1078 -1.0556 -1.2690
 3779TIP3    H211344   2.551   5.630   4.593  0.2037 -0.6526  0.3748
 3780TIP3   OH211345   0.208   0.836   3.212  0.0845  0.0124 -0.6987
 3780TIP3    H111346   0.148   0.799   3.276  0.2526 -0.3931 -0.7727
 3780TIP3    H211347   0.161   0.912   3.177 -0.0988  0.1046 -0.2623
 3781TIP3   OH211348   3.197   0.348   3.028  0.1598 -0.2555  0.4483
 3781TIP3    H111349   3.159   0.267   2.993 -3.0363  0.6174  1.5591
 3781TIP3    H211350   3.218   0.400   2.950 -0.7350 -0.9052 -0.2549
 3782TIP3   OH211351   2.670   4.892   1.500  0.0678  0.0858 -0.6319
 3782TIP3    H111352   2.714   4.867   1.581  1.3068 -1.3782 -1.7031
 3782TIP3    H211353   2.588   4.843   1.501  0.8958 -1.3592 -1.0656
 3783TIP3   OH211354   0.554   0.062   3.487  0.7716 -0.3526 -0.5819
 3783TIP3    H111355   0.513  -0.024   3.472  0.2228  0.0147 -1.3035
 3783TIP3    H211356   0.645   0.042   3.506  0.6766 -1.0993 -0.8525
 3784TIP3   OH211357   5.772   5.650   1.165  0.3018  0.3829  0.2486
 3784TIP3    H111358   5.805   5.719   1.109  1.1120 -0.5855 -0.5039
 3784TIP3    H211359   5.833   5.577   1.152  0.1125 -0.1018  1.8599
 3785TIP3   OH211360   5.526   0.164   1.404 -0.5461 -0.6021 -0.6223
 3785TIP3    H111361   5.590   0.183   1.473 -1.5466  1.0538 -0.0938
 3785TIP3    H211362   5.576   0.119   1.337  0.9228 -0.3767  0.2793
 3786TIP3   OH211363   2.798   0.266   3.386  0.0758  0.2209  0.1169
 3786TIP3    H111364   2.705   0.286   3.390  0.6723  3.7026 -0.1640
 3786TIP3    H211365   2.819   0.270   3.292  0.5500 -0.3251  0.1949
 3787TIP3   OH211366   4.320   4.219   3.147 -1.1196  0.1902 -0.2336
 3787TIP3    H111367   4.290   4.189   3.062 -0.9357  1.0995 -0.6272
 3787TIP3    H211368   4.243   4.259   3.187 -0.5896  2.1168 -1.0590
 3788TIP3   OH211369   5.446   3.524   3.179 -0.1653 -0.1781  0.2072
 3788TIP3    H111370   5.359   3.541   3.142  0.1300 -0.6116 -0.7393
 3788TIP3    H211371   5.440   3.435   3.214  0.3106 -0.8203 -1.2478
 3789TIP3   OH211372   0.283   5.559   2.215  0.4947 -0.0033  0.0880
 3789TIP3    H111373   0.245   5.508   2.286  0.4737  0.2616  0.2696
 3789TIP3    H211374   0.357   5.507   2.184  1.1108  0.3333  0.9618
 3790TIP3   OH211375   0.747   4.109   0.049  0.5082 -0.2835  0.0099
 3790TIP3    H111376   0.775   4.114  -0.042 -0.8667 -1.1352 -0.4861
 3790TIP3    H211377   0.652   4.116   0.046  0.4360 -0.2377  1.4001
 3791TIP3   OH211378   6.271   2.172   3.456 -0.3171 -0.4787 -0.2574
 3791TIP3    H111379   6.224   2.243   3.501  1.1450  1.0172 -0.9688
 3791TIP3    H211380   6.203   2.125   3.408 -1.0918  1.9749 -1.7410
 3792TIP3   OH211381   4.942   2.646   4.068 -0.1955  0.7364  0.2280
 3792TIP3    H111382   4.943   2.578   4.136  1.2398  1.9277  1.4757
 3792TIP3    H211383   4.852   2.649   4.038 -0.1818 -2.1989 -0.3929
 3793TIP3   OH211384   3.507   3.670   0.297  0.1313 -0.2879 -0.4614
 3793TIP3    H111385   3.588   3.715   0.275 -0.2255  0.4083 -0.3565
 3793TIP3    H211386   3.466   3.724   0.365 -0.2702 -0.8007 -0.2814
 3794TIP3   OH211387   6.298   0.407   0.488 -0.3066 -0.2111  0.2450
 3794TIP3    H111388   6.339   0.415   0.574  0.6478  1.0751 -0.2946
 3794TIP3    H211389   6.321   0.489   0.443 -0.4723 -1.0154 -1.3612
 3795TIP3   OH211390   5.040   0.622   4.071 -0.0442 -0.0143  0.0003
 3795TIP3    H111391   4.965   0.630   4.131 -0.0008  0.3851  0.0041
 3795TIP3    H211392   5.113   0.662   4.119 -0.1956  1.0605 -0.6431
 3796TIP3   OH211393   3.231   2.615   2.391  0.5534 -0.1729  0.1868
 3796TIP3    H111394   3.252   2.529   2.353  1.5182 -0.1240  0.5799
 3796TIP3    H211395   3.294   2.675   2.350 -0.4688  0.4629 -0.4998
 3797TIP3   OH211396   2.407   2.175   1.775  0.4886  0.3411 -0.3928
 3797TIP3    H111397   2.402   2.079   1.767  1.3562  0.1281  1.1273
 3797TIP3    H211398   2.324   2.200   1.815  0.3175  0.2048 -0.6622
 3798TIP3   OH211399   2.561   0.491   2.787  0.2811  0.2448 -0.0939
 3798TIP3    H111400   2.470   0.491   2.817 -0.2202 -0.1916 -1.5781
 3798TIP3    H211401   2.612   0.493   2.868 -1.0334  1.8707  0.7469
 3799TIP3   OH211402   3.326   2.394   2.614  0.0180  0.6824  0.5522
 3799TIP3    H111403   3.354   2.374   2.525  0.0691  2.8388  0.0180
 3799TIP3    H211404   3.403   2.433   2.655 -0.1368  0.1088  1.4234
 3800TIP3   OH211405   1.856   1.341   0.032  0.0100 -0.3074 -0.3880
 3800TIP3    H111406   1.857   1.437   0.040  0.5198 -0.3055 -0.4048
 3800TIP3    H211407   1.947   1.316   0.047 -0.4710 -0.9757  1.7428
 3801TIP3   OH211408   4.362   5.741   0.278  0.2125 -0.2409 -0.1674
 3801TIP3    H111409   4.437   5.742   0.338  0.9153 -0.5626 -1.0213
 3801TIP3    H211410   4.287   5.763   0.334  1.0134  0.6729  0.6000
 3802TIP3   OH211411   4.280   5.794   3.712 -0.0161 -0.2779 -0.3738
 3802TIP3    H111412   4.361   5.802   3.763 -0.9701  2.1525  0.9482
 3802TIP3    H211413   4.237   5.717   3.748 -0.7897  1.4885  2.9306
 3803TIP3   OH211414   5.586   5.480   0.814  0.3796  0.1067  0.3608
 3803TIP3    H111415   5.646   5.547   0.846  1.1753 -0.9542  1.1790
 3803TIP3    H211416   5.607   5.470   0.721 -0.0706  1.2982  0.1167
 3804TIP3   OH211417   0.239   1.467   0.613  0.0656 -0.2142  0.1166
 3804TIP3    H111418   0.203   1.426   0.535  1.1776  1.2198 -1.1931
 3804TIP3    H211419   0.184   1.545   0.626  1.3414  0.8479 -0.6728
 3805TIP3   OH211420   1.360   4.831   3.730  0.4790 -0.3902  0.0678
 3805TIP3    H111421   1.404   4.875   3.803 -1.0456  1.6218 -0.1399
 3805TIP3    H211422   1.416   4.850   3.654  1.1613 -1.0199  0.3982
 3806TIP3   OH211423   2.323   4.471   0.853  0.0026  0.4713 -0.3770
 3806TIP3    H111424   2.280   4.436   0.775 -1.2364  1.9255 -0.3919
 3806TIP3    H211425   2.416   4.475   0.830 -0.1923 -0.2292 -1.3289
 3807TIP3   OH211426   1.197   2.229   2.944  0.0137  0.5353 -0.0691
 3807TIP3    H111427   1.230   2.310   2.904  0.5381 -0.2141 -1.2104
 3807TIP3    H211428   1.231   2.159   2.889 -0.7654 -0.4587  0.6597
 3808TIP3   OH211429   4.629   1.847   4.569  0.3255  0.2878  0.0595
 3808TIP3    H111430   4.635   1.807   4.656 -0.5856  0.7228  0.3382
 3808TIP3    H211431   4.696   1.915   4.570 -1.4767  2.1470  1.4637
 3809TIP3   OH211432   3.639   2.484   0.066 -0.3871 -0.1002  0.1303
 3809TIP3    H111433   3.578   2.555   0.082 -0.4972  0.1286 -1.1959
 3809TIP3    H211434   3.692   2.479   0.146 -0.3541  1.4776  0.2261
 3810TIP3   OH211435   6.061   1.141   1.466  0.5794 -0.0263 -0.1894
 3810TIP3    H111436   6.082   1.230   1.435 -0.6402  0.2397 -0.2964
 3810TIP3    H211437   5.966   1.140   1.472  0.6745 -0.6656  1.8431
 3811TIP3   OH211438   1.998   2.249   0.317  0.2733 -0.0722  0.4854
 3811TIP3    H111439   1.987   2.344   0.312  1.5323  0.0461 -0.2607
 3811TIP3    H211440   1.909   2.215   0.311 -0.2056  1.0592  0.8852
 3812TIP3   OH211441   4.863   1.765   0.478 -0.1824  0.2921 -0.1797
 3812TIP3    H111442   4.870   1.785   0.571  0.0593  1.6194 -0.4659
 3812TIP3    H211443   4.872   1.849   0.434  1.1429 -0.4709 -1.4810
 3813TIP3   OH211444   2.650   4.241   1.473 -0.0451 -0.7252 -0.4134
 3813TIP3    H111445   2.605   4.175   1.420 -0.3839 -0.7017 -0.1555
 3813TIP3    H211446   2.725   4.195   1.510 -0.5351 -1.0883  0.1346
 3814TIP3   OH211447   6.093   5.594   4.692  0.5427  0.1505  0.5388
 3814TIP3    H111448   6.016   5.620   4.742  0.6437  1.2856  0.1345
 3814TIP3    H211449   6.167   5.630   4.741  0.6481  1.2154 -0.3535
 3815TIP3   OH211450   0.843   2.465   4.544  0.4558 -0.1590  0.1374
 3815TIP3    H111451   0.757   2.508   4.544  0.0795 -0.8836  1.1932
 3815TIP3    H211452   0.901   2.526   4.588  0.2963 -0.0142  0.1459
 3816TIP3   OH211453   4.231   5.921   1.417 -0.6541  0.1094  1.0239
 3816TIP3    H111454   4.196   6.010   1.411  1.4108  0.9142 -0.0340
 3816TIP3    H211455   4.165   5.867   1.372 -0.7746  1.4944 -0.5851
 3817TIP3   OH211456   4.330   5.121   3.988  0.4791 -0.2867  0.2115
 3817TIP3    H111457   4.388   5.067   3.933  1.8486  0.7865  0.5635
 3817TIP3    H211458   4.381   5.199   4.008 -2.1330  2.2163 -1.9988
 3818TIP3   OH211459   5.758   4.542   4.896 -0.4916 -0.1047  0.1481
 3818TIP3    H111460   5.785   4.612   4.836  0.1751  0.4211  1.0335
 3818TIP3    H211461   5.760   4.583   4.982  3.4872 -2.0208  1.2296
 3819TIP3   OH211462   0.093   1.980   1.771 -0.4209  0.3480  0.0034
 3819TIP3    H111463   0.145   1.901   1.757 -2.3093 -1.1183  0.9510
 3819TIP3    H211464   0.057   2.000   1.685 -1.7541 -1.1924  0.1621
 3820TIP3   OH211465   3.530   5.730   3.042  0.1666  0.0295  0.0319
 3820TIP3    H111466   3.511   5.759   3.132  1.2128 -0.5247  0.4611
 3820TIP3    H211467   3.512   5.807   2.988  0.8997  0.8414  0.8960
 3821TIP3   OH211468   5.836   3.878   4.203  0.0489  0.4308 -0.1578
 3821TIP3    H111469   5.920   3.900   4.165 -0.2723  0.5004 -0.8426
 3821TIP3    H211470   5.854   3.868   4.297  1.2089 -1.5161 -0.5418
 3822TIP3   OH211471   0.148   0.297   1.716 -0.4303  0.0011  0.1409
 3822TIP3    H111472   0.208   0.249   1.659 -0.4220  0.9041 -0.6316
 3822TIP3    H211473   0.205   0.336   1.783 -0.0543  1.2659 -0.8748
 3823TIP3   OH211474   2.485   2.499   0.238 -0.0683 -0.4668 -0.2240
 3823TIP3    H111475   2.407   2.526   0.189  0.2276 -0.9234 -0.9706
 3823TIP3    H211476   2.556   2.548   0.197  0.2584 -1.2483 -0.6122
 3824TIP3   OH211477   1.091   4.020   0.634  0.1109 -0.2093  0.4759
 3824TIP3    H111478   1.116   3.940   0.680  0.8534 -0.7123 -0.7548
 3824TIP3    H211479   1.020   4.057   0.687  1.2680 -0.4785  2.2770
 3825TIP3   OH211480   3.162   3.105   0.713 -0.1275 -0.6641  0.0191
 3825TIP3    H111481   3.222   3.142   0.778  0.6289 -0.5702 -0.7261
 3825TIP3    H211482   3.213   3.099   0.633 -0.1440 -3.5656  0.1268
 3826TIP3   OH211483   0.748   5.036   2.143  0.3973 -0.4874  0.1955
 3826TIP3    H111484   0.722   5.091   2.217 -0.6930  1.7574 -1.7160
 3826TIP3    H211485   0.668   4.989   2.120 -0.5077  1.8566 -1.9250
 3827TIP3   OH211486   1.947   5.380   2.403  0.0299 -0.0615  0.0223
 3827TIP3    H111487   1.957   5.290   2.374  0.0748  0.1469 -0.6278
 3827TIP3    H211488   1.949   5.432   2.322  0.0099  0.5204  0.3870
 3828TIP3   OH211489   2.278   3.161   5.143  0.3760 -0.5119 -0.1883
 3828TIP3    H111490   2.204   3.212   5.110 -0.4255 -0.0735  2.0951
 3828TIP3    H211491   2.238   3.087   5.188  1.2521  0.0991  1.6912
 3829TIP3   OH211492   0.706   4.152   4.903 -0.3077 -0.1559  0.5060
 3829TIP3    H111493   0.694   4.217   4.973  1.3803 -1.4634  2.1364
 3829TIP3    H211494   0.744   4.201   4.831  2.1492  0.5873  2.1500
 3830TIP3   OH211495   2.413   5.822   1.623 -0.3768  1.0297  0.1340
 3830TIP3    H111496   2.495   5.802   1.578 -1.5811 -0.6584 -1.4491
 3830TIP3    H211497   2.424   5.786   1.711  1.0187  1.9701  0.3705
 3831TIP3   OH211498   4.456   4.419   2.348 -0.2386  0.0216  0.0406
 3831TIP3    H111499   4.407   4.500   2.335 -1.9568 -0.6965  1.6147
 3831TIP3    H211500   4.522   4.442   2.414 -0.3098  0.2849  0.0225
 3832TIP3   OH211501   4.617   2.683   4.797  0.3567  0.2089  0.1902
 3832TIP3    H111502   4.705   2.657   4.824 -0.2036 -0.3135  1.6060
 3832TIP3    H211503   4.582   2.731   4.871 -1.2487 -1.2702  0.4626
 3833TIP3   OH211504   1.596   0.830   5.163 -0.1897  0.1838  0.2510
 3833TIP3    H111505   1.585   0.823   5.258 -1.6445  2.7737  0.3552
 3833TIP3    H211506   1.514   0.797   5.127  0.3633 -0.7988 -0.1662
 3834TIP3   OH211507   2.435   4.028   4.697  0.4701  0.1006  0.1394
 3834TIP3    H111508   2.516   4.056   4.738 -0.1633  1.2235  0.6970
 3834TIP3    H211509   2.390   4.110   4.675  0.6396 -0.4270 -2.5657
 3835TIP3   OH211510   0.491   3.983   1.897  0.2284 -0.0020 -0.4541
 3835TIP3    H111511   0.587   3.976   1.895  0.3120  0.9977 -0.9587
 3835TIP3    H211512   0.473   4.068   1.856 -0.9409 -0.6657 -1.3607
 3836TIP3   OH211513   3.995   3.876   3.349 -0.5531  0.4862 -0.2166
 3836TIP3    H111514   4.047   3.867   3.269  1.1137  0.1429  0.8601
 3836TIP3    H211515   4.058   3.863   3.420 -1.8389  1.5307  1.1719
 3837TIP3   OH211516   0.749   3.654   4.284 -0.5031 -0.1851 -0.0319
 3837TIP3    H111517   0.692   3.726   4.310 -1.4160 -1.3199  1.2569
 3837TIP3    H211518   0.771   3.610   4.366  0.7616 -0.8667 -0.7011
 3838TIP3   OH211519   1.176   4.544   0.671  0.1417  0.0136  0.0260
 3838TIP3    H111520   1.109   4.516   0.734 -0.3889  0.1479 -0.4635
 3838TIP3    H211521   1.245   4.478   0.678  0.0375 -0.0283  0.6712
 3839TIP3   OH211522   3.741   3.822   0.249 -0.0138 -0.2516  0.4784
 3839TIP3    H111523   3.797   3.899   0.238 -0.2619 -0.1795 -0.3002
 3839TIP3    H211524   3.803   3.749   0.260  0.2199  0.0206  1.0135
 3840TIP3   OH211525   0.837   2.475   3.932 -0.3850 -0.2035  0.5866
 3840TIP3    H111526   0.776   2.548   3.921 -0.3225 -0.2761 -0.3239
 3840TIP3    H211527   0.884   2.495   4.012 -1.4558 -0.0382  1.1968
 3841TIP3   OH211528   4.153   2.662   4.288 -0.2973  0.0271 -0.0269
 3841TIP3    H111529   4.190   2.575   4.279  0.9147  0.4172  0.9517
 3841TIP3    H211530   4.067   2.648   4.328 -0.0931 -0.7078  0.1649
 3842TIP3   OH211531   1.701   1.358   1.858  0.3631  0.2133 -0.1734
 3842TIP3    H111532   1.687   1.263   1.865  1.3908  0.1097  0.6617
 3842TIP3    H211533   1.720   1.386   1.947 -1.5686  1.5136 -0.1143
 3843TIP3   OH211534   3.810   3.532   1.141 -0.2773  0.2458 -0.2311
 3843TIP3    H111535   3.887   3.528   1.085 -0.4483  0.0426 -0.4483
 3843TIP3    H211536   3.828   3.470   1.212 -0.2392  0.2032 -0.2784
 3844TIP3   OH211537   3.721   4.183   2.200  0.0419 -0.0602  0.2685
 3844TIP3    H111538   3.811   4.151   2.205  0.8578  1.4974 -2.5600
 3844TIP3    H211539   3.729   4.278   2.207 -1.4401  0.0881  0.2322
 3845TIP3   OH211540   1.687   0.835   0.190 -0.0692  0.2821 -0.0419
 3845TIP3    H111541   1.731   0.755   0.162  1.0797  0.8898 -0.0287
 3845TIP3    H211542   1.693   0.835   0.285 -0.8653 -0.0513  0.0140
 3846TIP3   OH211543   2.252   3.634   1.448  0.1068 -0.2789 -0.4282
 3846TIP3    H111544   2.275   3.638   1.355 -0.9950  2.1478 -0.6802
 3846TIP3    H211545   2.205   3.551   1.458  0.4001 -0.6542 -1.9828
 3847TIP3   OH211546   5.038   0.272   0.771  0.0978  0.5817  0.1737
 3847TIP3    H111547   4.947   0.300   0.775  0.0887  0.9111 -1.6856
 3847TIP3    H211548   5.048   0.234   0.684  1.7772  0.6595  0.2981
 3848TIP3   OH211549   3.045   1.209   3.227  0.4267 -0.0461  0.0759
 3848TIP3    H111550   3.078   1.262   3.154 -0.7684  0.6342 -0.0003
 3848TIP3    H211551   3.014   1.273   3.291  1.2895 -0.6369  1.1241
 3849TIP3   OH211552   4.871   3.791   0.993 -0.0248 -0.1659  0.1870
 3849TIP3    H111553   4.900   3.701   1.010 -0.1794  0.0511  1.8346
 3849TIP3    H211554   4.932   3.845   1.043  0.5112  0.7142 -1.3769
 3850TIP3   OH211555   1.751   4.035   2.547 -0.2438 -0.0937 -0.1082
 3850TIP3    H111556   1.661   4.054   2.573 -0.3441 -0.9689  0.2003
 3850TIP3    H211557   1.787   4.121   2.524 -1.1798  0.2544 -0.3393
 3851TIP3   OH211558   3.996   2.198   3.674 -0.5337  0.0877  0.2011
 3851TIP3    H111559   4.051   2.121   3.684  0.0756  0.5521  0.5205
 3851TIP3    H211560   3.915   2.165   3.637  0.3353 -0.4600 -1.2740
 3852TIP3   OH211561   0.930   5.003   3.275 -0.1267 -0.0137 -0.0202
 3852TIP3    H111562   1.001   5.058   3.245  0.4767 -0.2278  0.9702
 3852TIP3    H211563   0.964   4.914   3.269 -0.4713 -0.1529  0.0371
 3853TIP3   OH211564   5.862   4.738   3.301  0.7718 -0.0109 -0.3379
 3853TIP3    H111565   5.796   4.680   3.264  1.0279  0.7048 -1.9657
 3853TIP3    H211566   5.934   4.737   3.238  2.5232 -1.0530  1.5628
 3854TIP3   OH211567   4.499   0.735   4.225  0.5039  0.5571  0.1967
 3854TIP3    H111568   4.594   0.748   4.224  0.5007  1.6028  3.0545
 3854TIP3    H211569   4.479   0.715   4.317 -1.7941 -2.0106 -0.7435
 3855TIP3   OH211570   3.650   3.477   4.101  0.7171  0.0094 -0.0992
 3855TIP3    H111571   3.725   3.466   4.160  1.2083  0.7689 -0.5565
 3855TIP3    H211572   3.638   3.390   4.062  0.1812 -0.5837  1.3244
 3856TIP3   OH211573   0.987   2.434   2.323  0.2279  0.3635 -0.4970
 3856TIP3    H111574   0.899   2.441   2.286 -0.3115  0.4327  0.7502
 3856TIP3    H211575   1.020   2.350   2.291  0.8901  1.5892 -3.3644
 3857TIP3   OH211576   4.565   0.597   3.012  0.4405 -0.5177 -0.2165
 3857TIP3    H111577   4.529   0.510   2.996 -0.2315 -0.9660  3.0321
 3857TIP3    H211578   4.489   0.655   3.017  0.5980 -0.3860  0.8909
 3858TIP3   OH211579   1.940   3.622   3.616  0.4322  0.1529 -0.1666
 3858TIP3    H111580   1.871   3.581   3.563 -0.1252 -0.0233  0.6680
 3858TIP3    H211581   2.012   3.560   3.613 -0.8969 -1.6908  2.2458
 3859TIP3   OH211582   2.543   5.880   3.398 -0.4545 -0.0545  0.3032
 3859TIP3    H111583   2.537   5.970   3.364  1.4722 -0.8089 -2.3844
 3859TIP3    H211584   2.457   5.843   3.383 -0.1901  0.2192 -2.3220
 3860TIP3   OH211585   5.849   5.392   0.385  0.2401 -0.3707  0.2268
 3860TIP3    H111586   5.819   5.460   0.446  0.1917 -0.6531  0.5181
 3860TIP3    H211587   5.907   5.438   0.324 -2.2170  0.6251 -1.5347
 3861TIP3   OH211588   1.625   4.690   0.789 -0.2789  0.6026 -0.7330
 3861TIP3    H111589   1.595   4.699   0.699 -1.4051 -0.7894 -0.5348
 3861TIP3    H211590   1.545   4.693   0.842 -0.0379 -1.8729 -0.0828
 3862TIP3   OH211591   1.604   5.257   0.412 -0.0704  0.4811 -0.0332
 3862TIP3    H111592   1.522   5.286   0.371 -0.9325 -0.1820  1.1495
 3862TIP3    H211593   1.655   5.220   0.340 -2.3827 -2.6058 -0.3013
 3863TIP3   OH211594   2.628   4.529   0.750  0.0155  0.5164  0.2811
 3863TIP3    H111595   2.592   4.472   0.682 -0.9108 -0.4806  1.5433
 3863TIP3    H211596   2.722   4.513   0.747 -0.1086 -0.1794 -0.1921
 3864TIP3   OH211597   5.916   0.066   0.991 -0.1002  0.0065 -0.3097
 3864TIP3    H111598   5.863   0.115   0.928 -0.6865  0.3647  0.4559
 3864TIP3    H211599   5.870   0.075   1.074  1.5624  1.0358  0.5707
 3865TIP3   OH211600   2.069   1.484   3.242  0.0186  0.4162 -0.1204
 3865TIP3    H111601   2.045   1.442   3.159 -0.3076  0.8344 -0.2439
 3865TIP3    H211602   1.995   1.541   3.262  1.1535  2.2008 -0.8055
 3866TIP3   OH211603   2.258   0.730   2.719  0.4190  0.1348  0.1953
 3866TIP3    H111604   2.256   0.642   2.756  0.0158  0.1016  0.0990
 3866TIP3    H211605   2.288   0.717   2.629  0.9968  0.1710  0.3776
 3867TIP3   OH211606   3.180   1.295   4.561  0.1421  0.1054 -0.2018
 3867TIP3    H111607   3.112   1.292   4.495  0.7374  1.7047 -0.9437
 3867TIP3    H211608   3.160   1.222   4.620 -2.0376  0.3706 -0.5334
 3868TIP3   OH211609   0.077   2.755   0.104 -0.9612  0.6071  0.6141
 3868TIP3    H111610   0.097   2.708   0.024  2.5880  1.3604  0.9277
 3868TIP3    H211611   0.034   2.690   0.160  0.0438 -1.0610 -0.4815
 3869TIP3   OH211612   3.279   4.502   1.263 -1.1033  0.3341 -0.4925
 3869TIP3    H111613   3.365   4.489   1.303 -0.2839 -1.7289 -2.7031
 3869TIP3    H211614   3.285   4.589   1.224 -0.4264  0.6573  0.2809
 3870TIP3   OH211615   5.529   5.835   4.650  0.4559  0.5173 -0.2999
 3870TIP3    H111616   5.455   5.888   4.679  0.5251 -0.0066  0.9167
 3870TIP3    H211617   5.490   5.766   4.597 -0.1111 -0.4631  1.3133
 3871TIP3   OH211618   5.678   5.224   0.919 -0.4091 -0.3216  0.3309
 3871TIP3    H111619   5.614   5.236   0.989 -0.8675  0.5506 -0.2218
 3871TIP3    H211620   5.711   5.311   0.900  1.6318 -0.8517  1.1939
 3872TIP3   OH211621   5.975   1.217   0.439  0.5058 -0.0211  0.1311
 3872TIP3    H111622   5.880   1.215   0.453  0.6556 -1.6972  1.2051
 3872TIP3    H211623   5.992   1.146   0.377  0.9874  0.9234 -0.8676
 3873TIP3   OH211624   5.825   1.063   3.103  0.3608 -0.0101  0.0426
 3873TIP3    H111625   5.819   0.968   3.108 -0.7080 -0.0157 -1.0722
 3873TIP3    H211626   5.828   1.092   3.194  0.6048 -1.0907  0.3907
 3874TIP3   OH211627   0.311   2.062   2.633  0.1050  0.6542  0.2047
 3874TIP3    H111628   0.296   1.972   2.605  0.6442  0.0636  1.6924
 3874TIP3    H211629   0.308   2.114   2.553  0.4265 -0.7713 -0.7554
 3875TIP3   OH211630   1.328   3.317   1.857  0.2623 -0.1567  0.6058
 3875TIP3    H111631   1.361   3.373   1.786 -1.5428  0.1399 -0.0559
 3875TIP3    H211632   1.351   3.228   1.830  1.6716  0.1334  0.8268
 3876TIP3   OH211633   0.597   1.714   0.877 -0.0569 -0.5440 -0.1450
 3876TIP3    H111634   0.677   1.722   0.927 -0.8191  0.0964  1.0107
 3876TIP3    H211635   0.576   1.803   0.849 -0.2277 -0.7416 -0.6740
 3877TIP3   OH211636   6.133   4.819   4.727 -0.1959  0.1865  0.5224
 3877TIP3    H111637   6.067   4.774   4.781 -0.7849  0.1130 -0.2397
 3877TIP3    H211638   6.217   4.783   4.758 -0.5447 -0.1514  1.1094
 3878TIP3   OH211639   5.439   5.582   3.469 -0.5266 -0.0666  0.0110
 3878TIP3    H111640   5.398   5.555   3.387  2.2325 -2.0250 -0.8878
 3878TIP3    H211641   5.470   5.671   3.452  0.3191 -0.5701 -1.2765
 3879TIP3   OH211642   6.126   1.082   3.929 -0.3938 -0.5492 -0.0951
 3879TIP3    H111643   6.184   1.136   3.982 -2.4218  0.9694  0.7051
 3879TIP3    H211644   6.174   1.000   3.917  2.0682  0.7430  0.1254
 3880TIP3   OH211645   1.464   4.228   4.456 -0.0518 -0.1935 -0.0553
 3880TIP3    H111646   1.465   4.164   4.527  1.8707 -0.7749 -0.5462
 3880TIP3    H211647   1.527   4.295   4.483 -0.5442  0.4372 -0.4546
 3881TIP3   OH211648   2.327   2.701   3.819  0.4090 -0.3438 -0.2278
 3881TIP3    H111649   2.367   2.773   3.868 -0.6311  0.1749 -0.1086
 3881TIP3    H211650   2.234   2.707   3.840  0.3408 -1.9618  0.0689
 3882TIP3   OH211651   2.929   1.546   1.486  0.3009 -0.1461 -0.2931
 3882TIP3    H111652   2.936   1.628   1.437 -1.9508  0.5500  0.4437
 3882TIP3    H211653   2.987   1.559   1.561 -1.7871  1.8834  1.1406
 3883TIP3   OH211654   3.536   4.654   1.052 -1.1244 -0.1659 -0.4260
 3883TIP3    H111655   3.620   4.640   1.008  0.0565  0.3565  1.5577
 3883TIP3    H211656   3.487   4.709   0.991  0.1332 -0.1263 -1.4598
 3884TIP3   OH211657   3.098   2.618   1.926  0.0451 -0.1026  0.0494
 3884TIP3    H111658   3.020   2.673   1.935 -0.1348 -0.6514  4.2449
 3884TIP3    H211659   3.168   2.679   1.904 -0.7771  1.2887  1.1027
 3885TIP3   OH211660   1.797   2.712   1.966 -0.2360 -0.3021  0.2012
 3885TIP3    H111661   1.780   2.704   1.872  0.5275  1.5205 -0.1236
 3885TIP3    H211662   1.890   2.734   1.972 -0.3938  0.1311  1.3493
 3886TIP3   OH211663   4.371   0.112   1.906 -0.6484  0.1002  0.0139
 3886TIP3    H111664   4.404   0.149   1.824  0.2761 -0.2917  0.1908
 3886TIP3    H211665   4.331   0.029   1.880 -1.3006  0.4609 -0.1686
 3887TIP3   OH211666   3.245   1.716   2.765  0.1081  0.1768  0.3161
 3887TIP3    H111667   3.335   1.703   2.737  0.0317  2.0949 -1.0834
 3887TIP3    H211668   3.211   1.628   2.779  1.8571 -0.6375 -0.2530
 3888TIP3   OH211669   2.439   1.658   3.424 -0.4409 -0.0092 -0.1837
 3888TIP3    H111670   2.369   1.675   3.361 -1.9420 -0.3790  1.3162
 3888TIP3    H211671   2.422   1.719   3.495  1.3214  0.5170 -0.1798
 3889TIP3   OH211672   3.122   1.378   3.035 -0.2675  0.7662  0.1217
 3889TIP3    H111673   3.063   1.432   2.983  1.2071  0.8428 -1.5805
 3889TIP3    H211674   3.202   1.373   2.983 -0.0845 -2.5015  0.5125
 3890TIP3   OH211675   2.885   3.041   3.837  0.1963  0.1961 -0.2079
 3890TIP3    H111676   2.920   2.984   3.906  1.4255 -0.3803 -1.2757
 3890TIP3    H211677   2.941   3.024   3.761 -1.1970  0.7414 -1.3922
 3891TIP3   OH211678   0.790   0.117   1.367  0.3185 -0.1832  0.3398
 3891TIP3    H111679   0.771   0.054   1.298  0.1433  0.3047 -0.0639
 3891TIP3    H211680   0.740   0.195   1.342 -0.1867 -0.1796  1.2960
 3892TIP3   OH211681   2.213   1.702   1.750 -0.4364 -0.1806 -1.0740
 3892TIP3    H111682   2.289   1.653   1.783 -1.8201 -2.1116 -0.5751
 3892TIP3    H211683   2.204   1.676   1.659 -1.1192 -0.8287 -0.8346
 3893TIP3   OH211684   4.836   5.486   0.417  0.0589  0.5480 -0.3942
 3893TIP3    H111685   4.765   5.452   0.471 -0.1277  3.0308  1.0686
 3893TIP3    H211686   4.794   5.511   0.334 -0.2513 -0.3851 -0.5253
 3894TIP3   OH211687   4.722   0.249   2.696 -0.0554  0.1424 -0.0433
 3894TIP3    H111688   4.743   0.164   2.656  0.5766 -0.4631  1.4915
 3894TIP3    H211689   4.663   0.228   2.768 -0.5547  1.1074 -0.1642
 3895TIP3   OH211690   5.653   5.940   1.961  0.0047  0.1751  0.0179
 3895TIP3    H111691   5.595   5.867   1.943 -0.5501  0.5988  0.0810
 3895TIP3    H211692   5.615   5.984   2.037  0.5153  0.3372  0.1882
 3896TIP3   OH211693   5.719   2.915   4.695 -0.0768  0.2191 -0.5248
 3896TIP3    H111694   5.805   2.932   4.658 -0.7275  3.8892 -0.7973
 3896TIP3    H211695   5.660   2.914   4.619 -0.5146 -0.2399 -0.1880
 3897TIP3   OH211696   2.792   1.730   0.911 -0.1107  0.2571  0.1823
 3897TIP3    H111697   2.848   1.710   0.986 -0.8250 -4.0447 -0.1496
 3897TIP3    H211698   2.853   1.744   0.838  0.5641  0.1069  0.7123
 3898TIP3   OH211699   2.444   4.123   2.863 -0.5324 -0.8498 -0.1387
 3898TIP3    H111700   2.457   4.206   2.910  0.2389 -1.1719  0.2399
 3898TIP3    H211701   2.352   4.123   2.839 -0.3295  0.6597 -1.1446
 3899TIP3   OH211702   0.448   2.550   1.864  0.7222 -0.1714  0.1835
 3899TIP3    H111703   0.363   2.555   1.907  0.7520  0.5031  0.1695
 3899TIP3    H211704   0.431   2.578   1.774  1.3417  2.2008  0.7337
 3900TIP3   OH211705   4.726   3.051   1.686  0.5559  0.0231  0.4473
 3900TIP3    H111706   4.731   2.956   1.696  0.5304 -0.1405 -0.8743
 3900TIP3    H211707   4.732   3.085   1.775 -2.0656 -1.3045  1.2351
 3901TIP3   OH211708   4.076   1.142   0.942 -0.1107 -0.0408  0.1518
 3901TIP3    H111709   4.168   1.117   0.945  0.2236  1.1536  1.0682
 3901TIP3    H211710   4.078   1.238   0.932 -1.2809 -0.1895 -2.1830
 3902TIP3   OH211711   3.059   5.708   1.687 -0.3445 -0.0679 -0.2561
 3902TIP3    H111712   2.983   5.703   1.745 -0.2337 -1.3030 -0.2013
 3902TIP3    H211713   3.050   5.793   1.644 -2.5775 -0.7843 -1.3776
 3903TIP3   OH211714   6.000   0.145   2.763 -0.2665  0.1387  0.2663
 3903TIP3    H111715   6.070   0.194   2.720  0.2719  0.3695  1.3573
 3903TIP3    H211716   6.022   0.053   2.749 -1.1813  0.1709 -1.6344
 3904TIP3   OH211717   3.198   0.035   1.152 -0.0817  0.2385  0.0235
 3904TIP3    H111718   3.220   0.018   1.060 -0.4339  0.8396 -0.1762
 3904TIP3    H211719   3.281   0.023   1.198  0.9650  3.3516 -0.8367
 3905TIP3   OH211720   3.469   1.749   3.706 -0.2769  0.4145 -0.0191
 3905TIP3    H111721   3.438   1.660   3.688  0.1519 -0.3002  2.4039
 3905TIP3    H211722   3.545   1.737   3.761  0.9644  2.2950 -1.2025
 3906TIP3   OH211723   5.151   3.001   4.315 -0.3489 -0.3403 -0.7438
 3906TIP3    H111724   5.204   3.005   4.236  0.8252 -3.0452 -0.2093
 3906TIP3    H211725   5.087   2.932   4.298 -1.9486  0.9551 -0.3072
 3907TIP3   OH211726   5.327   5.016   0.989 -0.0464 -0.2564 -0.0795
 3907TIP3    H111727   5.277   5.051   1.063  0.0020  0.1399 -0.2352
 3907TIP3    H211728   5.293   5.062   0.913 -0.0804 -0.6497 -0.3068
 3908TIP3   OH211729   5.178   4.350   1.461 -0.5791  0.1881  0.0870
 3908TIP3    H111730   5.104   4.407   1.440 -0.5962  0.3302  0.5362
 3908TIP3    H211731   5.209   4.380   1.546 -2.2485 -2.1477  1.6270
 3909TIP3   OH211732   5.232   4.538   3.944 -0.2630  0.7463 -0.1183
 3909TIP3    H111733   5.182   4.597   3.888 -0.5672  0.1904 -0.4444
 3909TIP3    H211734   5.176   4.461   3.953 -0.3625  0.9495  1.2259
 3910TIP3   OH211735   1.801   5.925   3.009 -0.5513  0.6116 -0.5179
 3910TIP3    H111736   1.791   5.914   2.914  0.4212 -1.4222 -0.4380
 3910TIP3    H211737   1.792   6.020   3.023 -1.9030  0.8490 -2.4660
 3911TIP3   OH211738   4.860   3.809   3.155  0.1684 -0.0079  0.4667
 3911TIP3    H111739   4.869   3.719   3.124  0.2568 -0.7486  2.4764
 3911TIP3    H211740   4.765   3.822   3.163  0.1095  0.4364 -0.6907
 3912TIP3   OH211741   1.431   5.297   1.793 -0.0379  0.1230  0.6690
 3912TIP3    H111742   1.409   5.390   1.802  0.4891  0.3376 -0.1930
 3912TIP3    H211743   1.346   5.253   1.789 -0.3541  0.8094 -1.1807
 3913TIP3   OH211744   3.479   3.555   1.094 -0.6441  0.4065 -0.2297
 3913TIP3    H111745   3.476   3.477   1.038  0.9402 -0.4808  0.8269
 3913TIP3    H211746   3.389   3.567   1.124 -0.8568 -1.3118 -0.0551
 3914TIP3   OH211747   2.766   0.495   2.581  0.5155  0.3899 -0.7632
 3914TIP3    H111748   2.707   0.503   2.656 -0.4527  0.4649 -1.5136
 3914TIP3    H211749   2.729   0.423   2.529  2.5028 -1.2739 -0.0075
 3915TIP3   OH211750   2.650   1.456   2.039 -0.3406  0.5161 -1.2512
 3915TIP3    H111751   2.668   1.534   1.986  0.4247  0.6826 -0.7626
 3915TIP3    H211752   2.614   1.490   2.121  0.8182  0.4328 -0.6850
 3916TIP3   OH211753   2.412   0.066   3.265 -0.2127 -0.8420  0.3474
 3916TIP3    H111754   2.434   0.016   3.187 -0.6514 -0.6809  0.1165
 3916TIP3    H211755   2.489   0.121   3.280 -0.5354 -0.1128 -0.5822
 3917TIP3   OH211756   4.455   2.170   0.353  0.6430  0.3252  0.1938
 3917TIP3    H111757   4.500   2.241   0.306  0.7097  0.1559 -0.0017
 3917TIP3    H211758   4.363   2.195   0.351  0.5319 -0.1104 -0.8100
 3918TIP3   OH211759   0.577   2.808   4.129 -0.4548  0.0907  0.3950
 3918TIP3    H111760   0.565   2.896   4.165 -0.3017 -0.6354  2.3426
 3918TIP3    H211761   0.558   2.749   4.202 -0.8842 -1.5242 -0.9558
 3919TIP3   OH211762   0.643   3.191   3.716  0.9316 -0.2715 -0.3640
 3919TIP3    H111763   0.735   3.191   3.688  0.5284 -0.3655 -1.7542
 3919TIP3    H211764   0.593   3.194   3.634 -0.3070  0.9243  0.3935
 3920TIP3   OH211765   4.832   0.456   0.733 -0.0368  0.1466 -0.0952
 3920TIP3    H111766   4.772   0.506   0.677  1.8255  0.4824 -1.9073
 3920TIP3    H211767   4.867   0.520   0.795 -0.3400  0.2871 -0.0685
 3921TIP3   OH211768   2.161   4.666   3.652  0.3816  1.2598 -0.6698
 3921TIP3    H111769   2.089   4.656   3.715 -0.5438  0.1177 -1.8559
 3921TIP3    H211770   2.137   4.609   3.579  2.8621  0.2765 -0.7955
 3922TIP3   OH211771   2.897   5.280   5.133 -0.1925 -0.3497  0.3534
 3922TIP3    H111772   2.922   5.243   5.218 -0.5750 -0.3016  0.4843
 3922TIP3    H211773   2.836   5.351   5.154  1.0313  0.8072  0.1528
 3923TIP3   OH211774   3.781   2.078   2.425 -0.0443 -0.0356  1.0189
 3923TIP3    H111775   3.776   2.123   2.341 -1.3808  2.1689  2.1878
 3923TIP3    H211776   3.875   2.064   2.439  0.2839  0.6894 -0.2543
 3924TIP3   OH211777   0.279   4.335   1.703 -0.3531  0.0731  0.1930
 3924TIP3    H111778   0.320   4.300   1.782 -0.8748  2.6198  1.6948
 3924TIP3    H211779   0.186   4.312   1.711 -0.6493  1.4334  1.0541
 3925TIP3   OH211780   3.276   2.811   1.841  0.1477  0.0463  0.3315
 3925TIP3    H111781   3.362   2.817   1.882  0.7124 -0.2361 -0.7481
 3925TIP3    H211782   3.239   2.899   1.849  1.0920  0.5252 -0.3028
 3926TIP3   OH211783   5.052   3.170   3.257  0.1819 -0.4921 -0.8665
 3926TIP3    H111784   5.015   3.222   3.186 -0.1717 -1.6909 -1.5900
 3926TIP3    H211785   5.012   3.206   3.336  0.2714  0.5921 -1.2978
 3927TIP3   OH211786   3.128   2.200   4.025  0.0096  0.7343 -0.3044
 3927TIP3    H111787   3.080   2.246   4.093  0.4856  1.1375 -0.2343
 3927TIP3    H211788   3.185   2.267   3.986  1.5344 -0.0218  0.5453
 3928TIP3   OH211789   0.044   0.275   3.191  0.2063 -0.3532 -0.4234
 3928TIP3    H111790   0.114   0.341   3.192 -1.0194  1.0072  1.2750
 3928TIP3    H211791   0.041   0.246   3.100 -0.3641  3.2831 -1.7384
 3929TIP3   OH211792   4.191   3.254   3.839 -0.0661 -0.3936  0.1282
 3929TIP3    H111793   4.237   3.193   3.896  1.5528  0.5414 -0.1099
 3929TIP3    H211794   4.110   3.275   3.887  1.4121  0.6826  2.3612
 3930TIP3   OH211795   0.149   4.516   2.616 -0.1838  0.3151 -0.1673
 3930TIP3    H111796   0.225   4.507   2.559  0.6129 -0.1431  0.9344
 3930TIP3    H211797   0.099   4.435   2.602  0.2214  0.0166  0.0715
 3931TIP3   OH211798   0.837   3.056   0.338 -0.2035  0.2959 -0.3952
 3931TIP3    H111799   0.805   3.011   0.259  1.5507  2.6061 -2.5690
 3931TIP3    H211800   0.765   3.115   0.362 -0.8422 -0.5882 -0.0564
 3932TIP3   OH211801   4.504   2.816   1.556 -0.1574 -0.2740 -0.6510
 3932TIP3    H111802   4.576   2.842   1.613  0.4768  0.4011 -1.7060
 3932TIP3    H211803   4.514   2.722   1.545  0.5202 -0.2061 -0.6944
 3933TIP3   OH211804   0.253   2.074   0.383  0.1521  0.5238 -0.2810
 3933TIP3    H111805   0.336   2.038   0.352  0.2093 -0.5545  1.0435
 3933TIP3    H211806   0.209   2.106   0.304  2.0551  1.6329 -0.9481
 3934TIP3   OH211807   1.442   1.197   3.948 -0.0806 -0.3460 -0.1614
 3934TIP3    H111808   1.358   1.241   3.966 -0.2011 -0.0138 -1.4589
 3934TIP3    H211809   1.495   1.264   3.905  1.0519 -0.4083  1.0689
 3935TIP3   OH211810   4.361   5.085   3.539 -0.4114 -0.3059  0.2054
 3935TIP3    H111811   4.390   5.007   3.492  1.1088  0.6148 -0.4570
 3935TIP3    H211812   4.302   5.130   3.477 -0.1008 -0.1809 -0.0030
 3936TIP3   OH211813   0.207   3.082   2.757 -0.4574 -0.2509 -1.0663
 3936TIP3    H111814   0.264   3.070   2.833  0.0289 -0.3731 -1.4449
 3936TIP3    H211815   0.185   3.176   2.759  0.6163  0.0218 -1.5073
 3937TIP3   OH211816   4.365   4.965   1.730 -0.5560  0.0187 -0.1293
 3937TIP3    H111817   4.400   5.015   1.655  0.6081  1.5237  1.3433
 3937TIP3    H211818   4.274   4.993   1.737 -0.1753  1.2628  0.0900
 3938TIP3   OH211819   2.317   2.199   4.267 -0.1460 -0.1845  0.3008
 3938TIP3    H111820   2.378   2.175   4.197 -0.6971 -2.0776  0.4100
 3938TIP3    H211821   2.286   2.286   4.244  1.1853  0.0355 -0.7427
 3939TIP3   OH211822   6.309   3.297   0.327  0.0767 -0.0310  0.0607
 3939TIP3    H111823   6.317   3.331   0.417  0.0550 -0.4366  0.2180
 3939TIP3    H211824   6.399   3.299   0.293  0.4764 -1.9763  0.8726
 3940TIP3   OH211825   3.541   1.244   1.963 -0.3471 -0.7263 -0.2386
 3940TIP3    H111826   3.474   1.302   1.998  1.6338  2.6751 -1.6075
 3940TIP3    H211827   3.506   1.216   1.878  0.4733  2.4658 -1.7804
 3941TIP3   OH211828   1.145   3.110   0.260 -0.3769  0.3434 -0.2038
 3941TIP3    H111829   1.170   3.172   0.329 -1.5463  0.8153 -0.1849
 3941TIP3    H211830   1.051   3.123   0.249 -0.2172  0.2917 -1.9118
 3942TIP3   OH211831   4.185   1.802   5.052 -0.2915 -0.3122 -0.6696
 3942TIP3    H111832   4.118   1.734   5.063  0.7403 -1.0790  1.2444
 3942TIP3    H211833   4.262   1.766   5.095  1.1263  0.9263 -2.0762
 3943TIP3   OH211834   0.974   2.230   2.049 -0.0436 -0.1086  0.8440
 3943TIP3    H111835   0.968   2.263   1.960 -0.3552  1.5279  1.4456
 3943TIP3    H211836   1.067   2.228   2.069 -0.0346  0.7476  0.9095
 3944TIP3   OH211837   5.721   4.596   0.156 -0.4440 -0.5124  0.2116
 3944TIP3    H111838   5.724   4.573   0.249  1.3913  0.9544  0.5805
 3944TIP3    H211839   5.664   4.529   0.117 -1.2469 -1.1898  2.3552
 3945TIP3   OH211840   4.544   4.711   4.037  0.1448  0.0777 -0.4728
 3945TIP3    H111841   4.543   4.764   3.958 -1.1669  0.1520 -0.4272
 3945TIP3    H211842   4.465   4.657   4.031  0.4312 -0.4713  0.4196
 3946TIP3   OH211843   4.189   5.855   1.670 -0.1381 -0.2499 -0.1850
 3946TIP3    H111844   4.215   5.885   1.583  1.6179 -0.7025  0.1504
 3946TIP3    H211845   4.223   5.922   1.730  1.5678 -1.5515  0.3708
 3947TIP3   OH211846   0.788   1.455   1.317 -0.3198  0.2697 -0.0556
 3947TIP3    H111847   0.839   1.532   1.292  0.7971  0.1372  1.6621
 3947TIP3    H211848   0.745   1.480   1.399  0.6324 -1.1422  0.9173
 3948TIP3   OH211849   4.304   0.395   3.731 -0.3454 -0.2082 -0.0981
 3948TIP3    H111850   4.368   0.458   3.697 -1.1209  1.2130  0.9503
 3948TIP3    H211851   4.242   0.382   3.658  0.3453 -0.5262 -0.6446
 3949TIP3   OH211852   2.610   0.409   4.867  0.2802 -0.4315 -0.1937
 3949TIP3    H111853   2.544   0.344   4.892  1.5673 -1.4933  0.5595
 3949TIP3    H211854   2.569   0.493   4.886 -0.9917 -1.0502 -0.0882
 3950TIP3   OH211855   0.528   1.671   0.431 -0.0070 -0.0050  0.1771
 3950TIP3    H111856   0.530   1.576   0.426 -0.6404 -0.0201  0.0560
 3950TIP3    H211857   0.469   1.697   0.360 -0.7962  0.3974  0.9504
 3951TIP3   OH211858   4.310   3.386   4.477  0.0850 -0.6293 -0.0125
 3951TIP3    H111859   4.370   3.415   4.545  0.5906 -0.5779 -0.4797
 3951TIP3    H211860   4.333   3.438   4.400  0.8808 -2.1093 -0.8205
 3952TIP3   OH211861   1.943   5.191   4.071 -0.4533  0.1095 -0.5490
 3952TIP3    H111862   1.971   5.190   3.979 -0.6218  1.3842 -0.6250
 3952TIP3    H211863   1.896   5.108   4.082  2.1054 -1.4770 -0.7825
 3953TIP3   OH211864   5.248   1.713   1.987  0.2097 -0.9458  0.4999
 3953TIP3    H111865   5.289   1.770   1.922 -0.6855 -0.7934  0.0563
 3953TIP3    H211866   5.311   1.642   2.000  1.5515  0.3377  1.3868
 3954TIP3   OH211867   2.212   2.485   4.627  0.1246 -0.5416  0.3093
 3954TIP3    H111868   2.281   2.433   4.668  0.6039  0.5915  0.9800
 3954TIP3    H211869   2.131   2.437   4.647  0.6611 -1.6486 -0.1190
 3955TIP3   OH211870   0.283   3.647   1.209  0.2936 -0.4474  0.4265
 3955TIP3    H111871   0.343   3.658   1.284 -0.2885 -1.2386  1.0277
 3955TIP3    H211872   0.232   3.569   1.231 -0.5653 -0.1130 -0.3529
 3956TIP3   OH211873   2.876   5.085   4.309 -0.2609  0.6469  0.4959
 3956TIP3    H111874   2.876   5.033   4.229  0.6090  1.7365 -0.2431
 3956TIP3    H211875   2.964   5.072   4.346  0.0260  1.6990  0.2134
 3957TIP3   OH211876   1.182   3.568   3.519  0.2640  0.4168  0.5503
 3957TIP3    H111877   1.211   3.563   3.610 -1.8812  0.8291  1.2990
 3957TIP3    H211878   1.203   3.657   3.492  0.6242  0.3875  0.7245
 3958TIP3   OH211879   1.798   5.041   2.834  0.4051 -0.5216 -0.2040
 3958TIP3    H111880   1.832   5.065   2.921 -0.5324  2.0307 -0.4680
 3958TIP3    H211881   1.871   4.995   2.792  1.7989  0.4725  1.0163
 3959TIP3   OH211882   5.973   2.988   1.490  0.0649 -0.3670 -0.0464
 3959TIP3    H111883   5.906   3.057   1.493  0.7424  0.3378 -0.9498
 3959TIP3    H211884   5.948   2.929   1.562  0.1627  1.4508  1.5783
 3960TIP3   OH211885   5.979   1.242   3.758  0.1544  0.1550 -0.0779
 3960TIP3    H111886   6.029   1.191   3.822  1.2885 -0.5719 -1.4825
 3960TIP3    H211887   5.957   1.180   3.689 -0.0079  1.1529 -0.9583
 3961TIP3   OH211888   6.071   0.140   4.509  0.0714  0.1360 -0.4726
 3961TIP3    H111889   6.133   0.150   4.436  0.7525 -1.1367 -0.1134
 3961TIP3    H211890   6.125   0.153   4.587 -0.2594 -0.2949 -0.1701
 3962TIP3   OH211891   3.335   3.828   1.258 -0.5609 -0.1052 -0.2207
 3962TIP3    H111892   3.301   3.820   1.348 -0.7293  0.6008 -0.2128
 3962TIP3    H211893   3.418   3.780   1.260 -1.6373 -2.0952 -0.3090
 3963TIP3   OH211894   4.221   1.532   4.235 -0.1834 -0.1944 -0.1655
 3963TIP3    H111895   4.220   1.481   4.155 -0.6783  1.4725 -1.2670
 3963TIP3    H211896   4.176   1.477   4.300 -0.0513 -1.4258 -1.0902
 3964TIP3   OH211897   0.881   4.296   4.724  0.1414 -0.0296  0.3205
 3964TIP3    H111898   0.926   4.307   4.641  0.0344  0.1212  0.2830
 3964TIP3    H211899   0.925   4.356   4.784 -0.3345  0.4979  0.1570
 3965TIP3   OH211900   0.634   2.058   3.076  0.2030  0.0911 -0.1003
 3965TIP3    H111901   0.667   2.012   2.999  1.1109  0.4362  0.0711
 3965TIP3    H211902   0.707   2.113   3.105 -0.8500  1.6406 -0.2882
 3966TIP3   OH211903   2.199   5.099   1.674  0.2343 -0.0090 -0.3145
 3966TIP3    H111904   2.177   5.086   1.766  1.0484 -1.0839 -0.2460
 3966TIP3    H211905   2.118   5.079   1.627  0.0068 -0.1674  0.1304
 3967TIP3   OH211906   1.632   4.009   4.336 -0.2988  0.0038 -0.1576
 3967TIP3    H111907   1.697   4.023   4.405 -1.3146 -1.0384  1.0610
 3967TIP3    H211908   1.614   4.097   4.302 -1.4182  0.9102  2.4865
 3968TIP3   OH211909   4.349   4.604   3.218  0.1808 -0.2677  0.1922
 3968TIP3    H111910   4.286   4.673   3.241 -0.6029 -0.9995  0.2754
 3968TIP3    H211911   4.390   4.580   3.302  0.7369  0.3515  0.1087
 3969TIP3   OH211912   1.807   4.596   3.029 -0.0127 -0.0470  0.1422
 3969TIP3    H111913   1.778   4.643   2.951  0.8885 -0.8356 -0.7003
 3969TIP3    H211914   1.880   4.648   3.063  1.6420 -1.2656 -1.3608
 3970TIP3   OH211915   2.869   2.797   1.894 -0.9571 -0.0993 -0.2289
 3970TIP3    H111916   2.852   2.801   1.800  0.3729 -1.7767 -0.5767
 3970TIP3    H211917   2.795   2.748   1.930  0.2038 -2.5369 -0.9499
 3971TIP3   OH211918   5.369   0.458   2.072 -0.5054 -0.7843  0.1774
 3971TIP3    H111919   5.433   0.393   2.047  1.2999  1.0905 -0.3771
 3971TIP3    H211920   5.420   0.531   2.107 -2.3761  0.4948  0.4382
 3972TIP3   OH211921   1.284   3.413   1.240  0.4610 -0.4493 -0.3099
 3972TIP3    H111922   1.269   3.490   1.296 -0.7306 -0.2231 -0.9061
 3972TIP3    H211923   1.241   3.435   1.158  0.8044 -1.4419 -0.7611
 3973TIP3   OH211924   1.104   2.953   3.585  0.0389  0.2555 -0.0876
 3973TIP3    H111925   1.144   2.905   3.513  0.2766  1.6294 -0.9059
 3973TIP3    H211926   1.085   2.886   3.651  2.0837 -0.6979 -0.3802
 3974TIP3   OH211927   4.306   3.582   1.223  0.3066 -0.1589 -0.2620
 3974TIP3    H111928   4.262   3.664   1.244  0.8170  0.1980 -0.5808
 3974TIP3    H211929   4.371   3.605   1.158 -1.0762 -1.1929 -2.1268
 3975TIP3   OH211930   2.940   3.969   0.362  0.2252  0.3908 -0.4976
 3975TIP3    H111931   2.870   3.981   0.297 -0.8259 -2.3046 -0.0147
 3975TIP3    H211932   2.940   3.875   0.380  2.9886  0.5149  0.6975
 3976TIP3   OH211933   0.611   3.491   3.029 -0.3659 -0.4321  0.2370
 3976TIP3    H111934   0.588   3.548   3.102 -1.6117  0.5905 -0.8821
 3976TIP3    H211935   0.617   3.404   3.067 -1.3843  0.0127  1.5014
 3977TIP3   OH211936   4.453   3.995   5.027  0.0963 -0.3952 -0.3558
 3977TIP3    H111937   4.427   3.904   5.015  0.3819 -0.2295 -2.5226
 3977TIP3    H211938   4.543   3.990   5.059 -0.5522 -0.8575  1.5591
 3978TIP3   OH211939   2.169   2.546   2.253 -0.4730  0.5184  0.0843
 3978TIP3    H111940   2.127   2.632   2.249 -1.4512  0.0544  0.0591
 3978TIP3    H211941   2.097   2.483   2.240 -0.2692 -0.4125  2.8280
 3979TIP3   OH211942   3.472   2.247   1.933  0.1860  0.6704  0.1516
 3979TIP3    H111943   3.473   2.298   1.852 -1.2347  1.7805  0.7761
 3979TIP3    H211944   3.529   2.296   1.992 -0.0911  0.7821  0.3285
 3980TIP3   OH211945   2.243   5.908   1.241 -0.5322  0.4752  0.3472
 3980TIP3    H111946   2.183   5.976   1.211 -1.9797 -0.8589  0.0968
 3980TIP3    H211947   2.301   5.954   1.302 -2.6658  1.5839  1.6858
 3981TIP3   OH211948   4.710   3.435   3.135  0.0513 -0.2699 -0.2890
 3981TIP3    H111949   4.746   3.357   3.094  0.7732 -0.5474  0.8350
 3981TIP3    H211950   4.711   3.502   3.066 -0.3672 -1.1761 -1.1907
 3982TIP3   OH211951   5.929   3.896   4.460  0.1823  0.0837 -0.0187
 3982TIP3    H111952   5.978   3.818   4.486  0.6973  0.1647 -0.7038
 3982TIP3    H211953   5.910   3.941   4.542  0.0206 -0.6772  0.3660
 3983TIP3   OH211954   2.596   2.606   5.116 -0.4584  0.1619  0.1460
 3983TIP3    H111955   2.576   2.571   5.029  1.5577 -0.6834 -0.0388
 3983TIP3    H211956   2.689   2.625   5.113 -0.5447  1.0031  1.8443
 3984TIP3   OH211957   2.459   4.821   5.031 -0.0206 -0.5069 -0.4677
 3984TIP3    H111958   2.474   4.772   5.112 -2.0113  1.0928  0.9749
 3984TIP3    H211959   2.396   4.769   4.982  1.8405 -1.9197 -1.5046
 3985TIP3   OH211960   1.955   4.875   3.669  0.0705  0.3040 -0.1136
 3985TIP3    H111961   1.951   4.931   3.747  1.2059 -0.5117  0.5561
 3985TIP3    H211962   1.875   4.896   3.621 -0.9864  0.3730  1.5885
 3986TIP3   OH211963   3.250   1.545   3.744  0.1216 -0.0357 -0.0395
 3986TIP3    H111964   3.184   1.513   3.805  1.7117 -0.5289  1.4941
 3986TIP3    H211965   3.204   1.610   3.691 -1.5043 -0.1582  1.1526
 3987TIP3   OH211966   4.719   3.755   4.287  0.1240 -0.4907  0.5034
 3987TIP3    H111967   4.722   3.668   4.246  0.7830 -0.5364  0.6355
 3987TIP3    H211968   4.669   3.741   4.367  0.0569 -0.7067  0.4254
 3988TIP3   OH211969   5.853   4.945   4.964  0.4081 -0.3176  0.4892
 3988TIP3    H111970   5.905   4.975   4.889  2.1197 -1.2628  1.2475
 3988TIP3    H211971   5.898   4.866   4.994 -0.7468 -0.4427  1.9820
 3989TIP3   OH211972   3.514   3.724   4.344  0.7685 -0.1214 -0.6064
 3989TIP3    H111973   3.458   3.652   4.314 -0.4826  0.9281 -0.9113
 3989TIP3    H211974   3.476   3.802   4.303  1.0089  0.9444  1.0980
 3990TIP3   OH211975   4.920   4.142   3.607 -0.1003 -0.2277  0.7793
 3990TIP3    H111976   4.949   4.074   3.546  0.4849  0.9003 -0.2381
 3990TIP3    H211977   5.001   4.183   3.638 -0.4688  1.6766 -0.6065
 3991TIP3   OH211978   4.686   4.299   5.139 -0.5768  0.4624  0.3369
 3991TIP3    H111979   4.717   4.326   5.052 -1.5828 -0.4089 -0.3181
 3991TIP3    H211980   4.760   4.314   5.197  0.6918 -0.5303 -0.9832
 3992TIP3   OH211981   5.499   1.306   3.135 -0.5537 -0.0708  0.2272
 3992TIP3    H111982   5.571   1.309   3.197 -0.4164 -1.0482  0.1283
 3992TIP3    H211983   5.457   1.221   3.150 -1.2176  0.1570 -0.2377
 3993TIP3   OH211984   3.964   1.907   3.771  0.1339 -0.5817 -0.3325
 3993TIP3    H111985   3.968   1.825   3.820 -0.0640 -0.3783  0.0360
 3993TIP3    H211986   3.998   1.973   3.833 -1.9659  0.0086  0.2711
 3994TIP3   OH211987   4.754   0.575   4.225  0.4012  0.3154 -0.3324
 3994TIP3    H111988   4.830   0.572   4.282  0.3938  0.9549 -0.2829
 3994TIP3    H211989   4.698   0.504   4.255  0.0407  1.1258  0.9575
 3995TIP3   OH211990   2.704   2.461   2.895  0.2393 -0.1257 -0.1437
 3995TIP3    H111991   2.707   2.553   2.870  0.1076  0.1759  0.9207
 3995TIP3    H211992   2.614   2.434   2.877  0.7429 -0.5899 -2.2484
 3996TIP3   OH211993   2.552   0.986   1.112  0.4782 -0.2547  0.0267
 3996TIP3    H111994   2.507   1.070   1.110  0.2652 -0.3757 -1.2648
 3996TIP3    H211995   2.546   0.957   1.203  1.4333  1.5901  0.7220
 3997TIP3   OH211996   4.930   5.785   4.643 -0.0094  0.4722 -0.6532
 3997TIP3    H111997   4.896   5.708   4.597  0.1481 -0.4970  0.7912
 3997TIP3    H211998   4.960   5.844   4.573  1.3762 -1.4530 -1.7678
 3998TIP3   OH211999   3.353   2.067   3.816 -0.5906  0.3412  0.5499
 3998TIP3    H112000   3.348   2.058   3.911 -0.5704 -0.6805  0.4709
 3998TIP3    H212001   3.287   2.005   3.783 -0.9507  1.0420 -0.0955
 3999TIP3   OH212002   5.026   0.395   0.408  0.3598 -0.1944  0.5102
 3999TIP3    H112003   5.012   0.466   0.471 -1.0021 -1.0079  1.1679
 3999TIP3    H212004   5.071   0.327   0.458 -0.3059 -0.6581  0.4809
 4000TIP3   OH212005   1.249   0.493   2.142  0.1217 -0.2233  0.3524
 4000TIP3    H112006   1.179   0.558   2.127 -1.5561 -1.4293  2.3569
 4000TIP3    H212007   1.304   0.532   2.210  1.0363  0.4202 -0.7228
 4001TIP3   OH212008   2.440   5.785   1.078 -0.0640  0.5903 -0.2237
 4001TIP3    H112009   2.358   5.809   1.122  0.1458 -0.3482  0.7263
 4001TIP3    H212010   2.442   5.840   0.999 -2.6230 -0.7639 -1.3598
 4002TIP3   OH212011   1.774   4.904   0.464  0.4182  0.5592 -0.2294
 4002TIP3    H112012   1.831   4.975   0.496  0.5195  0.5386 -0.3602
 4002TIP3    H212013   1.798   4.829   0.518  0.5192  0.5498 -0.2852
 4003TIP3   OH212014   4.249   2.325   3.588 -0.6290  1.2199 -0.0468
 4003TIP3    H112015   4.306   2.295   3.517 -1.0428  1.3276 -0.4308
 4003TIP3    H212016   4.160   2.314   3.554 -0.9371 -0.7927  1.2711
 4004TIP3   OH212017   2.935   4.165   3.683  0.0077 -0.0945 -0.4297
 4004TIP3    H112018   2.980   4.166   3.767 -0.1779 -0.4559 -0.3208
 4004TIP3    H212019   2.951   4.077   3.648  2.0820  0.7793 -1.8753
 4005TIP3   OH212020   5.963   5.714   4.932  0.4225 -0.0308 -0.1231
 4005TIP3    H112021   5.885   5.767   4.912 -0.3356 -0.9947  0.1825
 4005TIP3    H212022   5.929   5.639   4.980  1.3689 -1.1704 -1.1596
 4006TIP3   OH212023   2.913   5.855   3.894 -0.7941  0.0892 -0.3663
 4006TIP3    H112024   2.857   5.789   3.934  1.1870 -1.1479  0.4955
 4006TIP3    H212025   2.855   5.904   3.836 -2.3586 -2.3245 -0.9672
 4007TIP3   OH212026   4.469   1.915   1.067  0.0407 -0.1733  0.1339
 4007TIP3    H112027   4.402   1.847   1.081  0.1326 -0.3580 -0.3141
 4007TIP3    H212028   4.507   1.929   1.154 -1.6077  1.0176  0.7347
 4008TIP3   OH212029   3.806   1.588   2.400  0.1211 -0.4142  0.1922
 4008TIP3    H112030   3.749   1.628   2.334 -0.0660 -0.6275  0.2208
 4008TIP3    H212031   3.769   1.501   2.413  2.3889 -1.8935 -2.2286
 4009TIP3   OH212032   1.460   2.674   3.612 -0.1057  0.0818  0.0359
 4009TIP3    H112033   1.422   2.666   3.524  0.3840 -0.2186 -0.1574
 4009TIP3    H212034   1.460   2.584   3.645  1.7044 -0.1709 -0.5256
 4010TIP3   OH212035   1.510   5.267   4.274  0.3498 -0.5789  0.1091
 4010TIP3    H112036   1.580   5.318   4.234 -0.0506  0.4412  0.6832
 4010TIP3    H212037   1.542   5.177   4.271  1.5169 -0.1792  0.0134
 4011TIP3   OH212038   3.184   4.367   0.706  0.6954  0.3418 -0.0063
 4011TIP3    H112039   3.272   4.345   0.734  0.4659  1.1628  1.4622
 4011TIP3    H212040   3.196   4.417   0.625  1.5049 -0.4259 -0.3731
 4012TIP3   OH212041   1.234   4.588   3.223 -0.7586 -0.1150 -0.3653
 4012TIP3    H112042   1.254   4.533   3.298 -2.0754  0.6526  0.5815
 4012TIP3    H212043   1.320   4.613   3.188 -0.1343 -1.9918 -0.2757
 4013TIP3   OH212044   4.180   5.289   2.092  0.2181  0.3092 -0.2223
 4013TIP3    H112045   4.117   5.306   2.022  1.8747  2.1848 -1.3819
 4013TIP3    H212046   4.194   5.374   2.134 -0.1377 -0.6323  1.9381
 4014TIP3   OH212047   5.279   0.946   3.357  0.2150 -0.2503  0.3592
 4014TIP3    H112048   5.310   0.897   3.433 -0.3837 -0.3868  0.5169
 4014TIP3    H212049   5.240   0.881   3.300 -0.0280 -0.0418  0.2860
 4015TIP3   OH212050   6.008   1.445   3.598  0.5035 -0.5931  0.0232
 4015TIP3    H112051   5.998   1.375   3.663  0.1733 -1.8727 -1.3480
 4015TIP3    H212052   6.099   1.440   3.571  0.0887 -1.6624 -1.2933
 4016TIP3   OH212053   3.971   1.337   0.605  0.6019 -0.9505  0.0532
 4016TIP3    H112054   3.900   1.335   0.541  1.0092 -0.1649 -0.4322
 4016TIP3    H212055   3.945   1.272   0.671 -0.2230 -1.1729 -0.4719
 4017TIP3   OH212056   4.717   3.907   2.630  0.0459  0.4043 -0.0339
 4017TIP3    H112057   4.690   3.858   2.708 -0.3991  0.4482 -0.1588
 4017TIP3    H212058   4.640   3.906   2.573  0.5705 -0.1856 -0.7562
 4018TIP3   OH212059   4.599   1.033   2.088 -0.1314 -0.2621 -0.0425
 4018TIP3    H112060   4.546   0.958   2.060  0.3581  0.0364 -1.8446
 4018TIP3    H212061   4.686   1.016   2.051  0.4729  0.3201  1.0647
 4019TIP3   OH212062   0.677   2.716   5.132 -0.3918  0.0372 -0.3890
 4019TIP3    H112063   0.745   2.649   5.124 -0.0669  0.5598 -2.5547
 4019TIP3    H212064   0.642   2.704   5.220 -0.1791 -2.8346 -0.6076
 4020TIP3   OH212065   1.345   0.480   2.853  0.8388 -0.3653 -0.1553
 4020TIP3    H112066   1.351   0.384   2.859  0.4337 -0.5105 -1.6754
 4020TIP3    H212067   1.431   0.508   2.822  1.0891 -0.1854  0.6818
 4021TIP3   OH212068   2.607   1.949   3.274 -0.1730  0.1616 -0.6434
 4021TIP3    H112069   2.617   1.904   3.190 -1.7533 -1.7082  0.0804
 4021TIP3    H212070   2.514   1.968   3.281 -0.2563 -0.6185  1.0708
 4022TIP3   OH212071   0.592   5.548   3.273  0.5844  0.1027 -0.2857
 4022TIP3    H112072   0.502   5.531   3.299  0.2929  0.6145 -0.9097
 4022TIP3    H212073   0.633   5.587   3.350  0.2857 -0.1906  0.0196
 4023TIP3   OH212074   4.876   4.570   0.670  0.3300 -0.1225 -0.8897
 4023TIP3    H112075   4.786   4.550   0.694  0.2699  0.7830 -0.2904
 4023TIP3    H212076   4.927   4.497   0.706 -0.0279  0.0067 -0.1002
 4024TIP3   OH212077   4.485   3.452   4.699  0.6604  0.3343  0.2858
 4024TIP3    H112078   4.481   3.511   4.774 -1.4140 -0.0521  0.5442
 4024TIP3    H212079   4.480   3.364   4.737 -1.0003  0.1505 -0.2770
 4025TIP3   OH212080   0.996   3.806   4.597 -0.2282 -0.3988 -0.0919
 4025TIP3    H112081   1.050   3.726   4.594  1.2771  0.5809  0.0819
 4025TIP3    H212082   1.031   3.856   4.670  0.0965  1.2813 -1.3570
 4026TIP3   OH212083   5.744   3.851   3.001 -0.4801  0.1218  0.0578
 4026TIP3    H112084   5.806   3.820   2.935  0.0623  0.6639  0.3092
 4026TIP3    H212085   5.743   3.781   3.067 -0.4458 -0.0738 -0.1472
 4027TIP3   OH212086   6.292   3.023   2.605  0.1608  0.6814  0.3010
 4027TIP3    H112087   6.301   2.944   2.660  0.7728  1.9634  2.1459
 4027TIP3    H212088   6.378   3.065   2.610 -0.3833  1.8636 -0.0165
 4028TIP3   OH212089   1.571   0.240   0.181 -0.1963 -0.2026  0.0656
 4028TIP3    H112090   1.512   0.208   0.250  0.2625 -0.2604  0.4328
 4028TIP3    H212091   1.631   0.167   0.165  1.1767  0.6034  1.2602
 4029TIP3   OH212092   2.626   3.995   2.451  0.1175  0.2363  0.4839
 4029TIP3    H112093   2.647   3.910   2.492  2.1345  0.4612  0.0077
 4029TIP3    H212094   2.620   4.056   2.525 -0.3131 -0.1127  0.7439
 4030TIP3   OH212095   1.516   1.943   1.786 -0.2928 -0.6927  0.0525
 4030TIP3    H112096   1.473   2.027   1.805 -2.2568 -1.0222 -2.4307
 4030TIP3    H212097   1.464   1.879   1.835 -0.6182 -0.7527 -0.3683
 4031TIP3   OH212098   0.751   2.285   1.088 -0.2553 -0.9193  1.2521
 4031TIP3    H112099   0.822   2.318   1.143 -0.5236  1.7642  0.1334
 4031TIP3    H212100   0.793   2.268   1.003 -0.5112 -1.6096  1.2623
 4032TIP3   OH212101   3.826   5.581   4.483 -0.1359 -0.0289  0.2662
 4032TIP3    H112102   3.751   5.524   4.465  0.3858 -0.6190 -0.0606
 4032TIP3    H212103   3.896   5.548   4.427 -0.1876  1.7549 -0.9568
 4033TIP3   OH212104   1.671   1.316   0.952 -0.4746 -0.0392  0.3430
 4033TIP3    H112105   1.702   1.265   1.027  0.0931 -1.3451 -0.7225
 4033TIP3    H212106   1.601   1.371   0.987  0.1308 -0.2258  1.9217
 4034TIP3   OH212107   2.773   0.122   4.083 -0.5741  0.0579 -0.1551
 4034TIP3    H112108   2.807   0.033   4.077 -0.0809  0.2941 -0.9894
 4034TIP3    H212109   2.800   0.152   4.169  2.6756  0.7495 -1.2803
 4035TIP3   OH212110   4.285   1.108   2.644 -0.1089 -0.0316 -0.2374
 4035TIP3    H112111   4.346   1.042   2.612 -0.5046 -0.7390  0.4525
 4035TIP3    H212112   4.281   1.094   2.738 -0.6850  0.5642 -0.1652
 4036TIP3   OH212113   6.115   3.868   4.120 -0.0133  0.4262 -0.0897
 4036TIP3    H112114   6.137   3.893   4.209 -0.4922  0.1200  0.1183
 4036TIP3    H212115   6.133   3.774   4.116 -2.0785 -0.0443  0.3609
 4037TIP3   OH212116   2.872   5.796   4.389 -0.0495 -0.2792  0.5992
 4037TIP3    H112117   2.815   5.871   4.410  0.2915  0.1647 -0.0218
 4037TIP3    H212118   2.847   5.773   4.299 -0.1668 -0.9304  0.7971
 4038TIP3   OH212119   1.811   1.482   3.470  0.5312 -0.5476 -0.4720
 4038TIP3    H112120   1.747   1.438   3.414 -1.3612 -0.4354  1.4690
 4038TIP3    H212121   1.842   1.555   3.417  0.8037 -1.9137 -2.3118
 4039TIP3   OH212122   4.472   2.063   0.629 -0.3886 -0.0820 -0.3382
 4039TIP3    H112123   4.434   2.142   0.667  0.1696 -0.5113  1.1945
 4039TIP3    H212124   4.456   2.071   0.536 -1.7675  1.0663 -0.0326
 4040TIP3   OH212125   1.430   2.425   2.353 -0.1695  0.0171  0.5564
 4040TIP3    H112126   1.397   2.341   2.385 -0.4701 -0.2217 -0.3552
 4040TIP3    H212127   1.352   2.480   2.347 -0.4249 -0.4703 -1.3657
 4041TIP3   OH212128   2.326   1.397   0.369 -0.2985 -0.0299 -0.2945
 4041TIP3    H112129   2.346   1.414   0.461 -1.3409  1.1540 -0.2535
 4041TIP3    H212130   2.248   1.450   0.351 -0.0552 -0.1464 -1.8861
 4042TIP3   OH212131   2.677   0.953   3.906  0.1631  0.1863  0.3972
 4042TIP3    H112132   2.625   0.992   3.976 -0.6733  1.9041 -1.0848
 4042TIP3    H212133   2.765   0.987   3.918  0.7345 -1.7118  2.1600
 4043TIP3   OH212134   5.645   0.623   2.682 -0.0763  0.5004 -0.5791
 4043TIP3    H112135   5.600   0.544   2.655  0.6858 -0.2193  0.1917
 4043TIP3    H212136   5.709   0.594   2.747 -0.4512  1.8859  0.4589
 4044TIP3   OH212137   1.117   3.264   3.044  0.1884 -0.4456  0.2934
 4044TIP3    H112138   1.192   3.219   3.005  0.0297 -0.6065  0.1789
 4044TIP3    H212139   1.057   3.279   2.971  0.1629 -0.2039  0.3627
 4045TIP3   OH212140   1.834   5.201   4.384 -0.0161 -0.4971 -0.1794
 4045TIP3    H112141   1.760   5.159   4.428  0.3282  0.0397  0.9620
 4045TIP3    H212142   1.794   5.270   4.331 -0.4185 -0.9469 -0.4693
 4046TIP3   OH212143   5.235   2.631   3.288 -0.8509  0.1403 -0.1217
 4046TIP3    H112144   5.164   2.690   3.316 -0.1680 -0.5844  3.6620
 4046TIP3    H212145   5.190   2.551   3.260 -1.6098  0.8602 -1.0153
 4047TIP3   OH212146   0.980   2.666   3.336  0.3076 -0.3747  0.2438
 4047TIP3    H112147   1.012   2.614   3.410  0.6576 -1.3117 -0.5407
 4047TIP3    H212148   1.026   2.749   3.343  1.8903 -1.1807 -0.0426
 4048TIP3   OH212149   2.909   2.483   0.864  0.5599 -0.1437  0.6914
 4048TIP3    H112150   2.906   2.445   0.776 -0.4289 -1.6526  1.3314
 4048TIP3    H212151   2.819   2.512   0.881  0.6698 -0.1559  1.3294
 4049TIP3   OH212152   2.538   2.325   4.948  0.1818 -0.0865 -0.3724
 4049TIP3    H112153   2.492   2.376   5.015  1.0705  0.3316 -0.0705
 4049TIP3    H212154   2.576   2.251   4.995 -0.8929 -0.9281 -0.7708
 4050TIP3   OH212155   1.460   3.029   2.114  0.4358  0.2501 -0.0882
 4050TIP3    H112156   1.519   3.050   2.041  0.4715 -0.4260 -0.2656
 4050TIP3    H212157   1.396   2.968   2.075 -1.2320  2.0370 -0.2634
 4051TIP3   OH212158   2.709   4.559   0.169  0.0032  0.2474 -0.0103
 4051TIP3    H112159   2.709   4.628   0.102  0.5003 -0.4626 -0.7602
 4051TIP3    H212160   2.619   4.558   0.201 -0.0770  1.0639 -0.1769
 4052TIP3   OH212161   5.537   3.762   1.480 -0.0918 -0.4775  0.0214
 4052TIP3    H112162   5.529   3.792   1.570 -0.2544  0.1029 -0.1843
 4052TIP3    H212163   5.629   3.772   1.459 -0.2590  0.5337 -0.2676
 4053TIP3   OH212164   0.949   3.415   3.557  0.4235 -0.6739 -0.1815
 4053TIP3    H112165   0.930   3.455   3.642  1.1722 -0.5226 -0.0763
 4053TIP3    H212166   1.032   3.455   3.530 -0.7776  0.7894 -1.9398
 4054TIP3   OH212167   2.594   5.085   4.297  0.2254 -0.2477  0.1677
 4054TIP3    H112168   2.678   5.131   4.307  0.0373 -0.1529  1.4350
 4054TIP3    H212169   2.560   5.116   4.213  0.3709  1.4983  0.7228
 4055TIP3   OH212170   6.249   5.623   2.478  0.0345 -0.1470 -0.1516
 4055TIP3    H112171   6.176   5.569   2.508 -0.3853  1.3615  1.7696
 4055TIP3    H212172   6.212   5.678   2.409  0.5345 -2.3648 -2.3255
 4056TIP3   OH212173   3.355   5.753   1.250  0.2279  0.6383  0.0725
 4056TIP3    H112174   3.348   5.699   1.171  1.2766  0.8633 -0.1876
 4056TIP3    H212175   3.409   5.827   1.225 -1.0216  1.7424  0.4911
 4057TIP3   OH212176   5.491   4.008   2.747  0.2639 -0.6831  0.3044
 4057TIP3    H112177   5.506   3.998   2.653 -0.6314  0.6756 -0.0209
 4057TIP3    H212178   5.409   3.961   2.763 -0.2550  0.1507  0.1428
 4058TIP3   OH212179   5.618   0.325   2.338  0.1996 -0.3201  0.6092
 4058TIP3    H112180   5.675   0.313   2.262 -1.2115 -0.8226 -0.4075
 4058TIP3    H212181   5.568   0.244   2.343  0.5015 -0.4306  2.3079
 4059TIP3   OH212182   5.850   1.928   0.081 -0.0315 -0.2416  0.1007
 4059TIP3    H112183   5.786   1.986   0.040  0.7783  0.7748  0.2521
 4059TIP3    H212184   5.930   1.940   0.030  0.1564 -1.2442  0.1308
 4060TIP3   OH212185   2.764   3.681   3.512  0.1816  0.3748  0.2897
 4060TIP3    H112186   2.754   3.705   3.420  1.0554  0.4009  0.1927
 4060TIP3    H212187   2.687   3.628   3.532 -0.0269  0.3937 -0.4499
 4061TIP3   OH212188   1.755   3.095   1.077 -0.0771 -0.2505  0.1328
 4061TIP3    H112189   1.661   3.108   1.084 -0.1359 -0.5646 -0.0655
 4061TIP3    H212190   1.772   3.090   0.983  0.2184  0.3948  0.1475
 4062TIP3   OH212191   5.262   0.098   3.948  0.4338 -0.1573 -0.0085
 4062TIP3    H112192   5.295   0.124   3.862  0.2766 -1.3706 -0.4630
 4062TIP3    H212193   5.193   0.034   3.928 -0.3919  0.3923  0.9954
 4063TIP3   OH212194   3.142   2.696   3.413 -0.1539 -0.3025 -0.3322
 4063TIP3    H112195   3.190   2.719   3.493  1.6598 -0.9444 -1.1855
 4063TIP3    H212196   3.118   2.604   3.425  0.7715 -0.6196 -0.8055
 4064TIP3   OH212197   4.867   2.645   4.905 -0.2735  0.3223 -0.5634
 4064TIP3    H112198   4.938   2.685   4.854  0.2053  0.1600 -0.0323
 4064TIP3    H212199   4.874   2.686   4.991 -1.3613  0.9271 -0.7502
 4065TIP3   OH212200   0.489   5.601   4.471  0.0100 -0.0236 -0.5736
 4065TIP3    H112201   0.564   5.638   4.424  0.1477 -2.2233 -2.2734
 4065TIP3    H212202   0.528   5.557   4.547  0.1661  0.7949 -0.1764
 4066TIP3   OH212203   0.305   1.771   1.810 -0.4989  0.3007 -0.0849
 4066TIP3    H112204   0.309   1.675   1.806  0.8192  0.3218  0.3065
 4066TIP3    H212205   0.274   1.790   1.898  1.4655  0.2256  0.6829
 4067TIP3   OH212206   1.734   3.058   5.153 -0.1701 -0.6930 -0.2258
 4067TIP3    H112207   1.718   2.976   5.106 -0.3738 -0.5867 -0.3462
 4067TIP3    H212208   1.686   3.124   5.102 -1.0607 -0.7070  0.5777
 4068TIP3   OH212209   0.295   2.036   1.317  0.5723  0.2251 -0.3510
 4068TIP3    H112210   0.342   2.093   1.256  2.3228  0.5531  1.2267
 4068TIP3    H212211   0.361   1.974   1.348 -0.4234 -0.3364  0.7219
 4069TIP3   OH212212   3.572   1.705   3.087 -0.3304 -0.4425  0.0217
 4069TIP3    H112213   3.584   1.691   3.181  0.2647  1.4718  0.2590
 4069TIP3    H212214   3.658   1.684   3.048 -0.6083 -1.3491 -0.1429
 4070TIP3   OH212215   5.788   0.281   2.114 -0.5227 -0.2045  0.1750
 4070TIP3    H112216   5.838   0.199   2.115 -0.4183 -0.1349  0.7593
 4070TIP3    H212217   5.852   0.348   2.138 -0.7198 -0.0097  0.1586
 4071TIP3   OH212218   3.619   3.891   5.148  0.3712 -0.0143  0.9462
 4071TIP3    H112219   3.580   3.867   5.064 -1.8912  1.1178  1.5761
 4071TIP3    H212220   3.613   3.812   5.202  0.2935 -0.2711  0.5622
 4072TIP3   OH212221   3.077   2.677   0.530  0.3761  0.1462 -0.2375
 4072TIP3    H112222   3.049   2.589   0.556  0.5927  0.2584  0.3859
 4072TIP3    H212223   3.165   2.685   0.565  1.2432 -0.2102 -2.1889
 4073TIP3   OH212224   1.454   1.758   0.846 -0.2720  0.0370 -0.1447
 4073TIP3    H112225   1.507   1.680   0.831  0.9542  0.7643  0.2494
 4073TIP3    H212226   1.418   1.780   0.760 -0.6757 -0.9671 -0.2531
 4074TIP3   OH212227   4.265   3.661   2.294 -0.1727 -0.2502 -0.6072
 4074TIP3    H112228   4.291   3.659   2.202  1.5106  1.9185 -0.2814
 4074TIP3    H212229   4.259   3.755   2.315  0.0653 -0.6780  1.6161
 4075TIP3   OH212230   3.180   4.595   0.238 -0.1444  0.2846  0.3008
 4075TIP3    H112231   3.215   4.648   0.167  1.4653  1.2009  1.6979
 4075TIP3    H212232   3.096   4.635   0.259 -0.3238  0.4069 -0.6183
 4076TIP3   OH212233   5.892   2.001   4.343 -0.1337 -0.3153 -0.0803
 4076TIP3    H112234   5.819   2.041   4.391 -1.9645 -0.2974 -2.6751
 4076TIP3    H212235   5.897   2.051   4.261  2.0782 -1.0596 -0.4642
 4077TIP3   OH212236   5.878   3.071   4.408 -0.3455  0.0994  0.6190
 4077TIP3    H112237   5.867   3.005   4.339 -0.6271  0.0002  0.7604
 4077TIP3    H212238   5.926   3.026   4.477  0.4193  0.3509  0.2688
 4078TIP3   OH212239   4.543   0.568   0.240  0.5928 -0.0218  0.0646
 4078TIP3    H112240   4.632   0.568   0.204  0.8497 -0.3550  0.6816
 4078TIP3    H212241   4.492   0.516   0.179  0.6856  0.6527 -0.6065
 4079TIP3   OH212242   6.007   5.877   4.272 -0.7953  0.0360  0.1377
 4079TIP3    H112243   6.092   5.921   4.267  0.0522 -1.5505 -0.1641
 4079TIP3    H212244   5.981   5.887   4.364  0.4981 -0.7975  0.6316
 4080TIP3   OH212245   4.834   3.145   4.093 -0.4975  0.1313 -0.6714
 4080TIP3    H112246   4.771   3.079   4.064 -0.4608 -0.7713  1.1792
 4080TIP3    H212247   4.812   3.161   4.184  1.2972  0.5999 -0.2777
 4081TIP3   OH212248   6.143   3.146   2.059  0.1634  0.3791  0.2383
 4081TIP3    H112249   6.190   3.063   2.053  1.4583  1.1559 -0.5543
 4081TIP3    H212250   6.152   3.171   2.151  1.2900  0.5048  0.1040
 4082TIP3   OH212251   3.609   0.032   2.995 -0.3806 -0.3190  0.2689
 4082TIP3    H112252   3.639  -0.059   2.991  1.6524  0.3415 -1.0191
 4082TIP3    H212253   3.677   0.078   3.044  0.8833  1.2215 -2.6479
 4083TIP3   OH212254   2.764   2.101   0.311 -0.3068  0.1456  0.2472
 4083TIP3    H112255   2.686   2.063   0.353 -0.6838  0.2200 -0.3727
 4083TIP3    H212256   2.837   2.053   0.349 -0.8063 -1.6924 -0.9810
 4084TIP3   OH212257   0.517   3.062   2.494 -0.4086  0.8643 -0.4759
 4084TIP3    H112258   0.577   3.093   2.562  1.1242 -0.5902 -1.1030
 4084TIP3    H212259   0.511   3.136   2.433  1.0437  0.9252 -0.5763
 4085TIP3   OH212260   2.859   1.433   1.150  0.1557  0.0747 -0.4811
 4085TIP3    H112261   2.873   1.512   1.097 -1.8580 -0.5314 -2.0247
 4085TIP3    H212262   2.765   1.419   1.148  0.0654 -0.4495  2.7120
 4086TIP3   OH212263   3.378   5.344   1.532  0.0520  0.7591 -0.5412
 4086TIP3    H112264   3.360   5.377   1.444  0.1195 -0.7562 -1.1488
 4086TIP3    H212265   3.353   5.416   1.590  0.8246  2.1161 -1.8268
 4087TIP3   OH212266   1.602   4.797   4.013 -0.2916  0.0040 -0.1012
 4087TIP3    H112267   1.524   4.753   4.047  0.1943  0.7722  2.1294
 4087TIP3    H212268   1.675   4.744   4.043  0.1198 -1.0194 -2.6417
 4088TIP3   OH212269   4.352   4.443   4.438  0.7240 -0.4276  0.6071
 4088TIP3    H112270   4.347   4.404   4.351  0.1672 -1.0429  0.9033
 4088TIP3    H212271   4.313   4.377   4.496  0.4004  0.2845  1.2184
 4089TIP3   OH212272   3.466   4.156   2.896 -0.1225  0.6497  0.0336
 4089TIP3    H112273   3.536   4.172   2.833  0.7231  0.7910  0.9915
 4089TIP3    H212274   3.457   4.061   2.899 -0.3968  0.6510 -0.5312
 4090TIP3   OH212275   3.568   5.017   2.166  0.1692 -0.3972  0.4754
 4090TIP3    H112276   3.488   5.005   2.217  0.2838 -1.0537  0.5190
 4090TIP3    H212277   3.585   4.930   2.129  2.2642 -0.9678  2.5222
 4091TIP3   OH212278   2.735   1.960   3.540  0.1770 -0.2441  0.3846
 4091TIP3    H112279   2.665   2.009   3.584  1.1588  1.8394 -0.2378
 4091TIP3    H212280   2.701   1.945   3.452  0.3863  0.4931  0.1756
 4092TIP3   OH212281   5.317   5.770   3.658  0.4058 -0.3820  0.2734
 4092TIP3    H112282   5.329   5.786   3.564  0.3358  0.0514  0.3390
 4092TIP3    H212283   5.390   5.814   3.700  0.3470 -0.4386  0.4346
 4093TIP3   OH212284   4.683   1.920   2.699 -0.1890  1.0205  0.3276
 4093TIP3    H112285   4.768   1.953   2.669  0.6932 -1.8334 -0.6208
 4093TIP3    H212286   4.623   1.938   2.627  0.0784  1.1966  0.1464
 4094TIP3   OH212287   4.032   2.759   2.494 -0.7435 -0.7361 -0.0299
 4094TIP3    H112288   4.075   2.684   2.534  0.8660 -0.4572 -1.1375
 4094TIP3    H212289   4.073   2.768   2.408  0.1386  2.2148  0.5854
 4095TIP3   OH212290   4.077   4.830   0.274  0.6022 -0.2143 -0.0089
 4095TIP3    H112291   4.071   4.855   0.182 -1.0423 -0.7129 -0.0694
 4095TIP3    H212292   4.071   4.735   0.273  0.8714 -0.2406  0.6066
 4096TIP3   OH212293   3.776   4.448   2.231  0.5082 -0.3724  0.0601
 4096TIP3    H112294   3.760   4.482   2.319  1.2024  2.1577 -0.6922
 4096TIP3    H212295   3.872   4.446   2.223  0.4685  0.7925 -1.0634
 4097TIP3   OH212296   3.396   4.075   5.124  0.1214  0.1781 -0.3985
 4097TIP3    H112297   3.387   4.113   5.211  1.4405  0.7651 -0.4960
 4097TIP3    H212298   3.461   4.005   5.136  0.4434  0.3819 -0.9317
 4098TIP3   OH212299   2.944   1.769   3.611 -0.4406  0.1420 -0.0242
 4098TIP3    H112300   2.880   1.814   3.555  0.8071 -0.4884 -2.0611
 4098TIP3    H212301   2.992   1.712   3.552  1.9167  0.4712  1.4492
 4099TIP3   OH212302   2.991   1.947   4.792  0.4288  0.0662  0.1804
 4099TIP3    H112303   2.920   1.896   4.832  1.7461 -1.0356  1.2620
 4099TIP3    H212304   3.000   1.911   4.704 -2.1332  2.1224 -1.0368
 4100TIP3   OH212305   5.000   4.777   4.259 -0.5427 -0.2172  0.0676
 4100TIP3    H112306   4.944   4.710   4.298  0.6940 -2.1602 -1.3407
 4100TIP3    H212307   5.052   4.811   4.331 -2.5110  0.6772  1.1572
 4101TIP3   OH212308   0.754   5.647   4.430  0.5080  0.2236 -0.0058
 4101TIP3    H112309   0.782   5.726   4.477  1.6505  0.8842 -1.6687
 4101TIP3    H212310   0.830   5.623   4.377 -0.1758 -1.4225 -0.3024
 4102TIP3   OH212311   1.746   5.771   5.032  0.5453 -0.8525 -0.0360
 4102TIP3    H112312   1.731   5.716   5.109  1.0605 -1.0614 -0.0849
 4102TIP3    H212313   1.745   5.861   5.067 -0.3589 -0.8801  0.0309
 4103TIP3   OH212314   4.663   4.352   1.736  0.1734 -0.2888  0.1163
 4103TIP3    H112315   4.647   4.381   1.647  0.0507 -2.6347 -0.6913
 4103TIP3    H212316   4.731   4.411   1.769  1.2965 -0.3113 -2.0298
 4104TIP3   OH212317   1.198   5.832   3.328 -0.1335  0.4498  0.2352
 4104TIP3    H112318   1.245   5.898   3.277  0.4100 -0.3587 -0.3376
 4104TIP3    H212319   1.267   5.778   3.367 -0.4268  2.0848  3.3858
 4105TIP3   OH212320   5.465   4.998   2.835  0.7495 -0.3161 -0.1934
 4105TIP3    H112321   5.482   5.086   2.801  0.7231 -0.1958  0.0990
 4105TIP3    H212322   5.550   4.967   2.866  0.5181  0.1749  1.0139
 4106TIP3   OH212323   3.555   1.294   4.830  0.3091  0.0344  0.6976
 4106TIP3    H112324   3.623   1.359   4.814  0.5743 -0.2110  0.8142
 4106TIP3    H212325   3.484   1.343   4.872  0.3621  0.3158  0.4576
 4107TIP3   OH212326   0.213   5.444   3.940  0.0212  0.1258  0.5937
 4107TIP3    H112327   0.271   5.370   3.959  0.2268  0.2936  0.6174
 4107TIP3    H212328   0.168   5.418   3.859 -0.3979 -0.3161  0.9616
 4108TIP3   OH212329   4.043   1.645   3.899 -0.2119 -1.0720 -0.3561
 4108TIP3    H112330   4.020   1.552   3.906  0.5003 -1.2662 -0.5449
 4108TIP3    H212331   4.131   1.645   3.862 -0.0462 -0.3283  0.0322
 4109TIP3   OH212332   4.813   3.071   1.975  0.0395 -0.4382 -0.1398
 4109TIP3    H112333   4.731   3.045   2.016 -0.0583  0.2806  0.1334
 4109TIP3    H212334   4.871   2.995   1.986  0.0225 -0.2523  1.3640
 4110TIP3   OH212335   3.559   1.307   0.721 -0.0011  0.6452 -0.6026
 4110TIP3    H112336   3.630   1.366   0.745 -0.0528  0.0683  1.1090
 4110TIP3    H212337   3.600   1.240   0.666  0.8380  0.2248  0.5050
 4111TIP3   OH212338   2.881   4.543   2.250  0.0537 -0.0956 -0.0982
 4111TIP3    H112339   2.975   4.526   2.248 -0.1716 -1.3656 -0.3975
 4111TIP3    H212340   2.841   4.457   2.264 -1.0124  0.6146  1.5561
 4112TIP3   OH212341   3.897   0.285   4.319  0.1996  0.2365  0.0460
 4112TIP3    H112342   3.989   0.305   4.335  0.1522 -1.7268  3.9421
 4112TIP3    H212343   3.897   0.240   4.235  2.9952 -0.6303  0.4126
 4113TIP3   OH212344   5.995   2.604   4.111 -0.4999  0.2925  0.0585
 4113TIP3    H112345   5.964   2.688   4.080  2.1338  1.8429  1.2615
 4113TIP3    H212346   5.925   2.571   4.167 -2.3169  0.7665 -1.8084
 4114TIP3   OH212347   2.400   4.643   4.592 -0.5458  0.2617  0.2543
 4114TIP3    H112348   2.440   4.706   4.652  1.0022 -2.0248  1.7714
 4114TIP3    H212349   2.460   4.639   4.518 -0.2009 -0.0082  0.5430
 4115TIP3   OH212350   1.711   5.687   4.351 -0.5288  0.0445  0.2765
 4115TIP3    H112351   1.669   5.760   4.398  0.6460  0.0409  1.3791
 4115TIP3    H212352   1.685   5.609   4.401 -0.0569 -0.0607  0.3620
 4116TIP3   OH212353   1.771   0.103   1.532  0.4696 -0.2349 -0.2740
 4116TIP3    H112354   1.720   0.067   1.604  1.5840  1.1494  1.2839
 4116TIP3    H212355   1.857   0.123   1.570  2.1432 -2.1709 -2.7000
 4117TIP3   OH212356   2.005   3.852   4.930 -0.1574  0.0525  0.3474
 4117TIP3    H112357   2.016   3.899   5.013  0.3342 -0.3469  0.5152
 4117TIP3    H212358   2.093   3.847   4.894 -0.3211 -0.0761 -0.0347
 4118TIP3   OH212359   5.460   2.325   1.065 -0.1184 -0.4269 -0.5404
 4118TIP3    H112360   5.432   2.240   1.032 -0.4336  0.0601 -1.5409
 4118TIP3    H212361   5.550   2.335   1.032 -0.1040 -0.3381 -0.4749
 4119TIP3   OH212362   3.957   0.411   2.397  0.7492 -0.0208 -0.4317
 4119TIP3    H112363   4.024   0.358   2.352  0.3006 -0.5982 -0.4417
 4119TIP3    H212364   3.928   0.474   2.331  0.2200 -0.7509 -0.9210
 4120TIP3   OH212365   0.746   3.491   1.526  0.2542 -0.2176 -0.0871
 4120TIP3    H112366   0.673   3.430   1.524  1.2272 -1.4270 -0.2279
 4120TIP3    H212367   0.763   3.506   1.619  0.5885 -0.8923 -0.0354
 4121TIP3   OH212368   4.878   4.887   2.450 -0.0361  0.5560 -0.4587
 4121TIP3    H112369   4.932   4.810   2.466  1.1505  1.0475 -1.9312
 4121TIP3    H212370   4.788   4.853   2.448  0.0783 -0.1992  2.5099
 4122TIP3   OH212371   3.026   5.827   3.625 -0.9801 -0.7188  0.1176
 4122TIP3    H112372   2.934   5.812   3.601 -0.2663 -0.6198 -3.2931
 4122TIP3    H212373   3.038   5.921   3.615 -0.8237 -0.4810  2.1629
 4123TIP3   OH212374   1.072   2.032   0.983  0.1813 -0.2219 -0.0769
 4123TIP3    H112375   1.073   2.059   1.075 -0.0990 -1.5262  0.3221
 4123TIP3    H212376   1.051   2.112   0.935 -1.1064  0.1807  1.1027
 4124TIP3   OH212377   0.806   0.534   3.113  0.3134 -0.0181  0.2412
 4124TIP3    H112378   0.791   0.536   3.207  1.0500  0.9476  0.3612
 4124TIP3    H212379   0.763   0.613   3.080 -1.3977 -1.2067 -0.5018
 4125TIP3   OH212380   0.426   5.080   3.518  0.4785  0.5880  0.6651
 4125TIP3    H112381   0.485   5.015   3.556 -0.9833 -0.8234  0.6166
 4125TIP3    H212382   0.435   5.068   3.424 -1.5782 -1.3278  0.6346
 4126TIP3   OH212383   5.737   0.185   2.805 -0.1521  0.0454  0.5531
 4126TIP3    H112384   5.722   0.168   2.712  1.4675  0.2750  0.2315
 4126TIP3    H212385   5.830   0.169   2.818  0.1699  2.3710  1.6019
 4127TIP3   OH212386   1.753   1.699   2.294  0.3372 -0.2043  0.5058
 4127TIP3    H112387   1.661   1.721   2.308  0.8605  2.9138 -0.3653
 4127TIP3    H212388   1.778   1.651   2.373 -2.1176 -1.6105  0.5215
 4128TIP3   OH212389   4.413   3.919   4.351 -0.0128 -0.0889 -0.5108
 4128TIP3    H112390   4.445   4.000   4.311  1.4509 -0.0258  0.6794
 4128TIP3    H212391   4.477   3.900   4.420 -2.3931 -0.1075  1.8954
 4129TIP3   OH212392   1.448   0.121   3.292 -0.4706  0.0362 -0.8325
 4129TIP3    H112393   1.403   0.205   3.302  0.3321  0.3933 -0.0115
 4129TIP3    H212394   1.440   0.100   3.199  0.8562  1.9361 -1.4468
 4130TIP3   OH212395   5.733   4.963   1.638  0.7552 -0.3732  0.0079
 4130TIP3    H112396   5.676   5.025   1.683  1.6272 -1.2461  2.5351
 4130TIP3    H212397   5.673   4.901   1.597 -0.1381 -0.2455  1.0584
 4131TIP3   OH212398   0.366   5.209   3.813  0.4971  0.1663  0.4030
 4131TIP3    H112399   0.443   5.180   3.861  0.8383 -2.8870 -1.6933
 4131TIP3    H212400   0.401   5.254   3.736  0.1785 -0.5198 -0.1489
 4132TIP3   OH212401   4.594   3.347   1.955 -0.0229  0.1686  0.3501
 4132TIP3    H112402   4.604   3.366   1.862 -0.3465  1.5572  0.5705
 4132TIP3    H212403   4.623   3.256   1.965 -2.0797 -0.7827 -1.4792
 4133TIP3   OH212404   2.400   1.410   3.685 -0.0995  0.4262  0.2043
 4133TIP3    H112405   2.490   1.442   3.685  0.0556 -0.0103 -0.1889
 4133TIP3    H212406   2.366   1.435   3.599 -0.3356  0.5382  0.3302
 4134TIP3   OH212407   5.107   0.478   4.609  0.1511 -0.2861 -0.5007
 4134TIP3    H112408   5.038   0.471   4.675  0.8658 -0.3093  0.2441
 4134TIP3    H212409   5.143   0.390   4.603  0.8000 -0.0453 -0.1529
 4135TIP3   OH212410   2.484   5.820   2.742  0.0516 -0.6321 -0.5799
 4135TIP3    H112411   2.419   5.806   2.673 -1.5499 -1.9097  1.1163
 4135TIP3    H212412   2.510   5.732   2.769  2.5600 -0.1542 -1.2164
 4136TIP3   OH212413   4.401   4.591   1.000 -0.0169  0.3395 -0.4243
 4136TIP3    H112414   4.336   4.522   0.986  2.0638 -1.6103 -1.1565
 4136TIP3    H212415   4.432   4.613   0.912  0.6380  0.8927 -0.0631
 4137TIP3   OH212416   1.571   2.194   1.006  0.9196  0.2941 -0.2383
 4137TIP3    H112417   1.578   2.288   1.019 -0.0838  0.5135 -1.1971
 4137TIP3    H212418   1.576   2.182   0.911  0.1602 -0.5276 -0.1866
 4138TIP3   OH212419   4.119   5.555   2.250  0.6268  0.1076  0.0896
 4138TIP3    H112420   4.175   5.514   2.315 -0.0363  0.6606  1.0275
 4138TIP3    H212421   4.059   5.609   2.300 -0.5296 -0.2006 -0.9175
 4139TIP3   OH212422   2.814   4.624   4.814  0.1910 -0.1123 -0.0656
 4139TIP3    H112423   2.875   4.697   4.825 -0.5068  0.5563 -0.5308
 4139TIP3    H212424   2.844   4.559   4.877 -0.9354  1.7452  2.5715
 4140TIP3   OH212425   3.494   1.575   1.051  0.1917 -0.1838 -0.4188
 4140TIP3    H112426   3.545   1.498   1.077  0.0037 -0.1755 -0.0084
 4140TIP3    H212427   3.438   1.593   1.127  0.5589  0.6287 -0.3293
 4141TIP3   OH212428   2.985   2.904   4.105 -0.1777  0.6969  0.1082
 4141TIP3    H112429   2.908   2.895   4.161 -2.0433 -0.6507 -2.4978
 4141TIP3    H212430   3.040   2.829   4.128 -1.3439 -0.3488 -0.4684
 4142TIP3   OH212431   2.905   3.654   4.249 -0.1788 -0.0413  0.4456
 4142TIP3    H112432   2.960   3.656   4.327  1.8544 -0.5273 -0.8985
 4142TIP3    H212433   2.841   3.585   4.266  2.1093 -2.2787  0.5289
 4143TIP3   OH212434   6.304   5.745   5.038  0.6145  0.0645 -0.4264
 4143TIP3    H112435   6.361   5.821   5.038 -0.9642  1.2922 -0.3376
 4143TIP3    H212436   6.216   5.780   5.053 -0.3222 -1.6470 -1.5781
 4144TIP3   OH212437   3.108   2.777   2.909 -0.1995 -0.2381 -0.3108
 4144TIP3    H112438   3.100   2.765   2.814  2.8164 -1.5708 -0.5093
 4144TIP3    H212439   3.093   2.690   2.946 -1.1380  0.2317  0.4462
 4145TIP3   OH212440   1.752   1.363   2.230 -0.6870 -0.1487  0.2289
 4145TIP3    H112441   1.768   1.318   2.312 -1.0341 -1.4146 -0.3732
 4145TIP3    H212442   1.659   1.386   2.232 -0.1865  2.0994  1.2477
 4146TIP3   OH212443   0.709   5.067   0.727  0.5189 -0.6443 -0.4564
 4146TIP3    H112444   0.773   5.080   0.657 -0.0886  2.0111 -0.6109
 4146TIP3    H212445   0.740   5.121   0.799 -0.7468 -0.4969  0.0008
 4147TIP3   OH212446   3.899   2.910   0.701  0.5633  0.2246 -0.2561
 4147TIP3    H112447   3.893   2.826   0.747  0.2063 -0.4588 -1.4974
 4147TIP3    H212448   3.991   2.916   0.674  0.6589  0.3860  0.0999
 4148TIP3   OH212449   5.396   3.947   4.687 -0.0127 -0.4914  0.0879
 4148TIP3    H112450   5.481   3.926   4.648  0.8620  1.9142  0.4812
 4148TIP3    H212451   5.370   4.029   4.643 -0.6394  0.4276  2.0643
 4149TIP3   OH212452   2.590   3.600   2.468  0.2805  0.1531 -0.2175
 4149TIP3    H112453   2.620   3.656   2.396 -0.2818 -1.1789 -1.5274
 4149TIP3    H212454   2.525   3.542   2.428  0.2911 -0.9353  1.2747
 4150TIP3   OH212455   1.343   1.516   0.120  0.6059  0.3149  1.1974
 4150TIP3    H112456   1.382   1.438   0.081  0.8166  0.4568  1.1244
 4150TIP3    H212457   1.303   1.486   0.201 -0.0528 -0.0371  0.7543
 4151TIP3   OH212458   3.824   3.556   2.779 -0.2864 -0.5057 -0.1687
 4151TIP3    H112459   3.871   3.589   2.856 -0.6284  0.6530 -0.4420
 4151TIP3    H212460   3.770   3.484   2.814 -1.2017  0.6488  0.8819
 4152TIP3   OH212461   0.480   2.245   4.715  0.1981 -0.0368  0.3734
 4152TIP3    H112462   0.490   2.321   4.772  1.1687 -0.7557  1.2045
 4152TIP3    H212463   0.400   2.202   4.746  0.7549 -0.4585  1.2536
 4153TIP3   OH212464   2.269   2.563   0.773 -0.1949 -0.1826  0.4545
 4153TIP3    H112465   2.247   2.571   0.866  1.9390  2.3656  0.8776
 4153TIP3    H212466   2.317   2.481   0.767  1.4639  0.5863  2.1073
 4154TIP3   OH212467   2.980   4.885   3.173 -0.0294  0.2012  0.0667
 4154TIP3    H112468   2.963   4.867   3.266 -0.1088  0.8821  0.1845
 4154TIP3    H212469   3.062   4.933   3.172 -1.2011  2.3320  0.0063
 4155TIP3   OH212470   3.142   0.136   3.820 -0.8146 -0.3896  0.0370
 4155TIP3    H112471   3.234   0.162   3.811 -1.3322  1.6479  0.2120
 4155TIP3    H212472   3.134   0.106   3.910 -0.1902 -1.2842 -0.1851
 4156TIP3   OH212473   4.086   4.338   3.625  0.2698 -0.4094  0.4743
 4156TIP3    H112474   4.176   4.359   3.603 -0.0427  0.5669  0.0454
 4156TIP3    H212475   4.092   4.284   3.704  1.2145 -0.1342  0.5983
 4157TIP3   OH212476   0.244   2.711   1.275  0.5041  0.3130 -0.1604
 4157TIP3    H112477   0.245   2.692   1.181  1.1509 -1.2582  0.1261
 4157TIP3    H212478   0.270   2.803   1.281 -0.3497  0.6688 -1.5552
 4158TIP3   OH212479   2.059   1.406   1.671  0.0629  0.6099  0.1348
 4158TIP3    H112480   2.081   1.325   1.717 -0.2661  1.1052  1.2170
 4158TIP3    H212481   2.098   1.397   1.585  2.0810  0.2914  1.0337
 4159TIP3   OH212482   1.927   2.868   0.275  0.2541 -0.1961 -0.1860
 4159TIP3    H112483   1.876   2.895   0.351  0.8071  1.4407 -0.3588
 4159TIP3    H212484   2.011   2.838   0.312 -0.7479 -2.9445  0.1027
 4160TIP3   OH212485   4.851   0.167   2.270 -0.0325  0.1638 -0.4403
 4160TIP3    H112486   4.795   0.166   2.192  0.3002 -1.1295 -0.6797
 4160TIP3    H212487   4.931   0.122   2.243  0.7268  1.1117  0.1973
 4161TIP3   OH212488   3.131   3.052   2.497 -0.2386  0.4237 -0.3511
 4161TIP3    H112489   3.129   3.027   2.404 -0.4945  0.3364 -0.3239
 4161TIP3    H212490   3.184   3.132   2.499  0.6210 -0.1410 -0.4302
 4162TIP3   OH212491   1.949   3.608   1.982  0.1425  0.8137 -0.0841
 4162TIP3    H112492   2.009   3.674   1.948 -1.2336  2.2727  0.2302
 4162TIP3    H212493   1.987   3.524   1.954  1.1772  1.7832 -1.7008
 4163TIP3   OH212494   1.287   1.514   2.827  0.0335  0.5927 -0.2211
 4163TIP3    H112495   1.376   1.548   2.825 -0.5817  2.2796 -1.0372
 4163TIP3    H212496   1.275   1.483   2.917  2.0878 -1.6687 -0.6137
 4164TIP3   OH212497   0.884   3.140   3.537 -0.2655 -0.1467  0.0224
 4164TIP3    H112498   0.921   3.228   3.534 -0.8359  0.0774 -0.6565
 4164TIP3    H212499   0.958   3.084   3.561 -0.2159  0.6692  1.9682
 4165TIP3   OH212500   1.889   1.178   4.682 -0.2006  0.1546  0.5011
 4165TIP3    H112501   1.824   1.166   4.613  1.3375  2.0833 -1.4402
 4165TIP3    H212502   1.865   1.260   4.723  0.5473  0.4919  0.2765
 4166TIP3   OH212503   4.819   2.747   4.583 -0.1788 -0.2370  0.4845
 4166TIP3    H112504   4.788   2.817   4.525 -1.0900  0.1331  1.4043
 4166TIP3    H212505   4.744   2.689   4.592  0.4802 -1.1936 -0.0268
 4167TIP3   OH212506   0.119   4.036   4.839  0.2260 -0.2551 -0.3884
 4167TIP3    H112507   0.210   4.047   4.867  0.0006  1.1075 -0.1046
 4167TIP3    H212508   0.068   4.073   4.911 -0.5181 -0.2434 -0.9142
 4168TIP3   OH212509   2.345   3.228   3.514 -0.2440 -0.4708  0.2682
 4168TIP3    H112510   2.413   3.229   3.581  1.1995 -2.8252 -1.0276
 4168TIP3    H212511   2.387   3.187   3.438 -1.9040  1.7228 -1.9916
 4169TIP3   OH212512   4.410   4.791   2.376  0.5299  0.1638  0.0478
 4169TIP3    H112513   4.344   4.726   2.353  2.2513 -1.4162 -0.7618
 4169TIP3    H212514   4.386   4.869   2.328  0.5582 -1.1370 -2.2113
 4170TIP3   OH212515   1.611   0.867   2.081 -0.2761  0.2204 -0.1036
 4170TIP3    H112516   1.572   0.867   1.994  0.4584  1.9219 -0.4551
 4170TIP3    H212517   1.675   0.795   2.078 -2.5706 -1.9959  0.1865
 4171TIP3   OH212518   3.240   2.271   2.876 -0.0856  0.1666  0.3422
 4171TIP3    H112519   3.167   2.231   2.829 -1.4019 -0.0027  2.3936
 4171TIP3    H212520   3.283   2.198   2.921  0.1077  0.5176  0.7360
 4172TIP3   OH212521   1.564   1.997   4.502  0.1003  0.6279 -0.2773
 4172TIP3    H112522   1.653   1.962   4.500  0.2174  0.9248 -0.3936
 4172TIP3    H212523   1.507   1.920   4.501  0.3351  0.4581 -1.3976
 4173TIP3   OH212524   4.781   0.420   3.339 -0.2012  0.4012  0.3038
 4173TIP3    H112525   4.788   0.507   3.301  1.0213 -0.1747 -0.8673
 4173TIP3    H212526   4.772   0.361   3.264 -1.0930 -0.4976  1.0772
 4174TIP3   OH212527   5.179   1.334   3.094  0.1806 -0.1811 -0.3970
 4174TIP3    H112528   5.246   1.383   3.045 -1.2328  1.0750 -1.1704
 4174TIP3    H212529   5.179   1.374   3.181 -0.4594  0.7472 -0.8050
 4175TIP3   OH212530   5.330   0.379   0.538  0.1326  0.1714  0.4567
 4175TIP3    H112531   5.301   0.470   0.540 -1.1443 -0.1805 -0.3325
 4175TIP3    H212532   5.403   0.379   0.475 -0.7974  0.4337 -0.6662
 4176TIP3   OH212533   5.203   2.632   0.434  0.1797  0.0949 -0.3001
 4176TIP3    H112534   5.189   2.615   0.527 -0.5373  0.9656 -0.2340
 4176TIP3    H212535   5.182   2.550   0.391 -1.0511  0.1409  0.1711
 4177TIP3   OH212536   4.549   4.059   1.569  0.1807 -0.1596  0.0869
 4177TIP3    H112537   4.512   4.105   1.494  0.2996  1.4667  0.9929
 4177TIP3    H212538   4.643   4.053   1.550  0.3485  1.0426  0.4937
 4178TIP3   OH212539   1.334   5.645   4.290 -0.4123 -0.2817 -0.5696
 4178TIP3    H112540   1.404   5.586   4.319 -1.4297 -1.3420 -0.2478
 4178TIP3    H212541   1.362   5.731   4.323 -0.0940 -0.9759  1.0601
 4179TIP3   OH212542   5.728   4.093   1.802  0.8206 -0.5005 -0.6438
 4179TIP3    H112543   5.705   4.123   1.715 -1.9288  1.9810  0.7810
 4179TIP3    H212544   5.748   4.173   1.851 -0.9078 -1.4203  1.8002
 4180TIP3   OH212545   2.344   3.011   0.803  0.1189  0.6977  0.2890
 4180TIP3    H112546   2.405   2.942   0.777  0.6577  2.0601 -2.4012
 4180TIP3    H212547   2.268   2.964   0.837  0.9063 -1.1805 -0.4068
 4181TIP3   OH212548   1.745   2.325   2.548 -0.6654 -0.6423 -0.1988
 4181TIP3    H112549   1.692   2.295   2.623 -1.7476 -1.1708 -1.1423
 4181TIP3    H212550   1.684   2.377   2.496 -0.4757 -1.8808 -1.7065
 4182TIP3   OH212551   5.115   5.035   0.798  0.0970 -0.7565 -0.0912
 4182TIP3    H112552   5.178   5.089   0.751  0.7159 -1.5106 -0.1455
 4182TIP3    H212553   5.107   4.956   0.745 -0.9937 -0.6303 -0.1523
 4183TIP3   OH212554   1.373   4.916   1.081  0.3946 -0.0080 -0.3010
 4183TIP3    H112555   1.316   4.913   1.004  0.8573 -0.2157 -0.6354
 4183TIP3    H212556   1.404   5.006   1.085  0.5712 -0.0584 -0.5078
 4184TIP3   OH212557   5.731   4.116   3.046  0.2056  0.1421 -0.3652
 4184TIP3    H112558   5.717   4.021   3.045  1.8044 -0.1461 -1.8970
 4184TIP3    H212559   5.660   4.150   3.101 -1.3822 -1.7804 -1.0623
 4185TIP3   OH212560   0.353   5.544   4.178  0.4696  0.2862  0.6309
 4185TIP3    H112561   0.290   5.526   4.109  0.9828 -0.7254  0.4115
 4185TIP3    H212562   0.373   5.458   4.216  3.6661  0.1741 -1.0026
 4186TIP3   OH212563   1.249   4.690   4.628  0.5773 -0.5581 -0.1015
 4186TIP3    H112564   1.280   4.626   4.564  0.6056  0.4064 -1.0694
 4186TIP3    H212565   1.154   4.676   4.631  0.5467 -0.4454 -0.5258
 4187TIP3   OH212566   4.258   3.911   3.922 -0.1841 -0.1663 -0.0617
 4187TIP3    H112567   4.165   3.890   3.909  0.3109 -1.3139 -2.3866
 4187TIP3    H212568   4.278   3.974   3.853  0.9072 -0.4615 -0.0361
 4188TIP3   OH212569   3.701   5.469   4.168 -0.4036 -0.2050  0.0397
 4188TIP3    H112570   3.660   5.484   4.253 -1.3371 -1.4294 -0.1538
 4188TIP3    H212571   3.718   5.556   4.132 -0.3771  0.3182  1.2912
 4189TIP3   OH212572   0.237   3.722   1.936 -0.6892  0.9012 -0.0113
 4189TIP3    H112573   0.213   3.630   1.950 -2.0845  0.9176 -1.8561
 4189TIP3    H212574   0.304   3.720   1.868  1.8973  1.1314  2.3281
 4190TIP3   OH212575   1.715   4.398   2.072 -0.6095  0.0217 -0.0249
 4190TIP3    H112576   1.690   4.345   2.148 -0.8369 -0.2077 -0.2542
 4190TIP3    H212577   1.684   4.347   1.997 -1.3384  0.7438 -0.2282
 4191TIP3   OH212578   5.357   0.801   0.716 -0.5773  0.5458  0.0567
 4191TIP3    H112579   5.340   0.752   0.636  2.2632  1.7241 -1.3664
 4191TIP3    H212580   5.363   0.734   0.784 -0.8848 -0.6739 -1.0851
 4192TIP3   OH212581   1.596   2.973   3.395  0.3422  0.5017 -0.0556
 4192TIP3    H112582   1.530   3.001   3.458 -1.0513  0.1332 -1.3184
 4192TIP3    H212583   1.660   3.045   3.395 -0.8820  1.6278  0.0197
 4193TIP3   OH212584   4.401   1.107   4.659 -0.0932  0.4963 -0.4428
 4193TIP3    H112585   4.358   1.046   4.599  0.6399 -0.0075 -0.4703
 4193TIP3    H212586   4.479   1.136   4.611 -0.4205  1.4509 -0.4204
 4194TIP3   OH212587   3.137   0.908   1.046  0.6846 -0.0587 -0.7223
 4194TIP3    H112588   3.086   0.950   1.116  2.1936  1.2232 -0.3556
 4194TIP3    H212589   3.097   0.940   0.965 -2.3786 -3.0755 -0.6499
 4195TIP3   OH212590   3.958   3.368   3.957  0.3468 -0.2863  0.2322
 4195TIP3    H112591   3.893   3.323   4.011  0.2419  0.2452  0.5473
 4195TIP3    H212592   3.989   3.440   4.011  0.5323  0.0124 -0.2665
 4196TIP3   OH212593   0.612   0.333   3.383 -0.1229 -0.1637  0.0002
 4196TIP3    H112594   0.699   0.293   3.379  0.3290  0.7705  0.0875
 4196TIP3    H212595   0.558   0.268   3.427  0.2711 -1.1951 -1.0068
 4197TIP3   OH212596   1.165   5.574   3.717  0.1412  0.2597  0.7331
 4197TIP3    H112597   1.252   5.562   3.680  0.2291 -1.0379  1.3106
 4197TIP3    H212598   1.106   5.560   3.643  0.3970  0.8662  0.4034
 4198TIP3   OH212599   4.784   3.502   2.054 -0.4047  0.4599  0.1885
 4198TIP3    H112600   4.705   3.452   2.032 -0.1141  0.4069 -0.8253
 4198TIP3    H212601   4.846   3.437   2.086 -0.6158  0.4356  0.5520
 4199TIP3   OH212602   5.570   1.972   3.061 -0.0417  0.2592  0.0310
 4199TIP3    H112603   5.516   1.896   3.039  0.2897  0.0447 -0.0497
 4199TIP3    H212604   5.518   2.048   3.034 -0.3876  0.0627  0.1435
 4200TIP3   OH212605   2.264   4.452   0.042 -0.4730  0.3406  0.1836
 4200TIP3    H112606   2.344   4.425   0.087  1.9187  3.0201 -2.0050
 4200TIP3    H212607   2.198   4.459   0.111  1.4590 -0.9829  2.2827
 4201TIP3   OH212608   1.791   5.284   1.362  0.9216  0.1711 -0.4052
 4201TIP3    H112609   1.765   5.261   1.273 -0.1975 -1.7351  0.3509
 4201TIP3    H212610   1.722   5.248   1.418  2.5959 -0.4775  1.3761
 4202TIP3   OH212611   0.169   0.839   2.643  0.1873  0.3033  0.0105
 4202TIP3    H112612   0.196   0.829   2.734 -1.2470 -0.1234  0.4029
 4202TIP3    H212613   0.232   0.785   2.594  0.3980 -0.2311  0.8459
 4203TIP3   OH212614   0.616   0.671   0.853  0.1234  1.2350 -0.3262
 4203TIP3    H112615   0.590   0.585   0.886 -0.7464  0.9596 -1.6341
 4203TIP3    H212616   0.711   0.674   0.867  0.3975 -0.5150 -1.4252
 4204TIP3   OH212617   6.197   1.820   0.576  0.3186 -0.0122  0.2628
 4204TIP3    H112618   6.164   1.793   0.490 -1.3356 -0.6666  1.0421
 4204TIP3    H212619   6.146   1.898   0.597 -1.2268 -1.3199  1.7030
 4205TIP3   OH212620   0.952   1.631   4.029 -0.2108 -0.4851 -0.1531
 4205TIP3    H112621   0.941   1.555   4.086 -0.2784 -0.4912 -0.1743
 4205TIP3    H212622   0.941   1.707   4.087 -1.9185 -0.4701 -0.4474
 4206TIP3   OH212623   5.365   4.817   4.401 -0.5858 -0.1484 -0.3148
 4206TIP3    H112624   5.419   4.878   4.351 -1.4725  0.4225 -0.6223
 4206TIP3    H212625   5.406   4.731   4.388 -0.0149  0.2014 -0.8890
 4207TIP3   OH212626   3.578   2.631   1.274 -0.1133 -0.2048 -0.2555
 4207TIP3    H112627   3.618   2.659   1.192 -1.8793  0.4368 -0.9427
 4207TIP3    H212628   3.643   2.573   1.314  1.4523  0.7690 -1.3109
 4208TIP3   OH212629   3.085   0.803   3.988  0.2651  0.1409 -0.5479
 4208TIP3    H112630   3.073   0.730   4.048  0.7012 -1.1146 -1.9195
 4208TIP3    H212631   3.174   0.792   3.953  1.5567  3.0859  1.4255
 4209TIP3   OH212632   0.016   2.078   1.020 -0.3892  0.1659 -0.2385
 4209TIP3    H112633  -0.016   1.989   1.004 -0.4406  0.0447  0.5080
 4209TIP3    H212634   0.112   2.069   1.022 -0.1880  0.6165 -3.0140
 4210TIP3   OH212635   3.787   1.269   3.209  0.3199  0.3413 -0.2306
 4210TIP3    H112636   3.841   1.236   3.137 -0.7726  0.2686 -1.0471
 4210TIP3    H212637   3.718   1.203   3.219 -1.2955  1.8029 -1.1928
 4211TIP3   OH212638   3.913   5.847   2.181 -0.6236 -0.2527  0.2530
 4211TIP3    H112639   3.889   5.769   2.131  0.5081 -0.1623 -0.4624
 4211TIP3    H212640   3.990   5.882   2.136 -1.0375  1.2150  0.6350
 4212TIP3   OH212641   0.235   1.579   4.691  0.7703  0.3840  0.2579
 4212TIP3    H112642   0.242   1.674   4.681  4.2836  0.3482  1.1140
 4212TIP3    H212643   0.311   1.544   4.644 -1.0736 -2.1795 -1.0847
 4213TIP3   OH212644   2.769   1.403   3.640 -0.0808 -0.5577 -0.5737
 4213TIP3    H112645   2.792   1.367   3.725 -0.3459 -1.4078 -0.8478
 4213TIP3    H212646   2.702   1.468   3.659 -0.4488 -1.0440 -0.1570
 4214TIP3   OH212647   2.583   1.015   3.629  0.2219 -0.1536 -0.4511
 4214TIP3    H112648   2.646   1.061   3.685  2.0873 -0.0940 -2.4586
 4214TIP3    H212649   2.550   0.944   3.683 -0.9989  2.0830  1.9719
 4215TIP3   OH212650   4.214   5.235   3.264 -0.6550  0.3742  0.3361
 4215TIP3    H112651   4.307   5.247   3.242 -0.7451  0.4769  0.0067
 4215TIP3    H212652   4.183   5.324   3.285 -0.9101  0.4790 -0.4742
 4216TIP3   OH212653   0.245   2.382   0.765 -0.2501 -0.6026  0.3657
 4216TIP3    H112654   0.253   2.296   0.724  1.0157 -0.4760  0.2968
 4216TIP3    H212655   0.265   2.444   0.695  0.5863 -0.3347  0.8214
 4217TIP3   OH212656   1.898   4.409   4.523 -0.0867 -0.0753  0.4118
 4217TIP3    H112657   1.905   4.365   4.439 -1.1817 -2.8825  1.6536
 4217TIP3    H212658   1.985   4.444   4.540  0.2085  0.3586 -1.7329
 4218TIP3   OH212659   1.519   0.169   5.071 -0.4710 -0.3098  0.1407
 4218TIP3    H112660   1.464   0.175   4.993 -0.5972 -0.8344  0.1876
 4218TIP3    H212661   1.464   0.200   5.143 -1.4158 -2.7231  0.5266
 4219TIP3   OH212662   3.019   4.060   1.265  0.1759 -0.1211  0.2749
 4219TIP3    H112663   3.029   4.130   1.201  2.0852 -1.1696 -0.6579
 4219TIP3    H212664   3.002   4.105   1.348  1.7025  1.4690 -0.2317
 4220TIP3   OH212665   6.247   3.458   1.086  0.5208  0.7032  0.3127
 4220TIP3    H112666   6.163   3.445   1.043  0.7150  0.2744  0.0540
 4220TIP3    H212667   6.233   3.531   1.147 -0.7666 -0.9748  2.1698
 4221TIP3   OH212668   3.445   0.632   1.269 -0.5531 -0.2565  0.0742
 4221TIP3    H112669   3.481   0.704   1.321 -1.3862 -0.0177  0.3320
 4221TIP3    H212670   3.440   0.558   1.330 -0.5087 -0.2900  0.0377
 4222TIP3   OH212671   1.138   4.395   2.647  0.5180  0.3528  0.3070
 4222TIP3    H112672   1.227   4.379   2.615 -0.0018  2.1974 -2.4324
 4222TIP3    H212673   1.127   4.333   2.719  3.1681 -1.6286 -0.8073
 4223TIP3   OH212674   5.356   2.433   4.185 -0.0209 -0.4640 -0.2007
 4223TIP3    H112675   5.306   2.398   4.111  0.2786 -1.2809 -0.0341
 4223TIP3    H212676   5.321   2.387   4.261 -1.0311  1.1180  0.3262
 4224TIP3   OH212677   3.987   3.604   2.337 -0.1331  0.3042  0.3895
 4224TIP3    H112678   4.076   3.633   2.317 -0.0649  0.8559  1.4253
 4224TIP3    H212679   3.999   3.519   2.380 -0.3414 -1.4854 -2.7944
 4225TIP3   OH212680   1.692   1.682   1.907  0.0317 -0.2288  0.3866
 4225TIP3    H112681   1.764   1.634   1.947  1.3923  1.1335 -0.3200
 4225TIP3    H212682   1.723   1.702   1.818 -0.9076  0.9780  0.2949
 4226TIP3   OH212683   1.848   2.009   4.596 -0.0134  0.2768 -0.6118
 4226TIP3    H112684   1.800   1.950   4.653 -1.6859  1.1610 -1.0577
 4226TIP3    H212685   1.940   1.990   4.614 -0.5081 -0.5171  1.2436
 4227TIP3   OH212686   4.845   1.105   2.879  0.4723  0.0130 -0.1345
 4227TIP3    H112687   4.928   1.134   2.841 -0.7110  0.4472 -2.5987
 4227TIP3    H212688   4.833   1.160   2.957  1.9179  0.7780 -0.4301
 4228TIP3   OH212689   2.553   3.331   1.329  0.1145  0.0380  0.1398
 4228TIP3    H112690   2.596   3.393   1.270 -0.8851  2.8428  2.1421
 4228TIP3    H212691   2.621   3.303   1.390  0.1469  0.7826  0.4517
 4229TIP3   OH212692   0.933   2.887   0.591  0.2034 -0.1673 -0.1714
 4229TIP3    H112693   0.916   2.934   0.509  0.4195  0.1347 -0.0486
 4229TIP3    H212694   0.930   2.795   0.567 -0.8307 -0.1098 -0.3017
 4230TIP3   OH212695   3.988   4.912   4.918  0.4222 -0.2332  0.0477
 4230TIP3    H112696   3.937   4.977   4.869 -0.7902 -1.3096 -0.1894
 4230TIP3    H212697   4.071   4.955   4.937  0.3010  0.7927 -1.5687
 4231TIP3   OH212698   1.297   4.305   3.041 -0.2463  0.6994  0.7403
 4231TIP3    H112699   1.296   4.255   3.123  0.4435  0.1430  0.4251
 4231TIP3    H212700   1.357   4.378   3.059  0.2085  0.3608  0.6155
 4232TIP3   OH212701   2.220   2.577   1.433 -0.2324  1.2946 -0.2585
 4232TIP3    H112702   2.274   2.506   1.399  0.4680  2.1342 -0.9627
 4232TIP3    H212703   2.136   2.567   1.390 -0.8898 -0.3888  1.3026
 4233TIP3   OH212704   2.399   3.913   3.385  0.4646  0.2057 -0.0314
 4233TIP3    H112705   2.371   3.992   3.433  1.0981  0.2586  0.2638
 4233TIP3    H212706   2.404   3.941   3.294 -2.6498 -0.3906 -0.4880
 4234TIP3   OH212707   3.221   4.871   0.511 -0.1173 -0.1030 -0.1646
 4234TIP3    H112708   3.187   4.809   0.446  2.4465 -0.1146 -1.6478
 4234TIP3    H212709   3.143   4.916   0.545 -1.6090  0.3023 -3.6606
 4235TIP3   OH212710   2.755   4.756   1.730 -0.2125 -0.0080 -0.4956
 4235TIP3    H112711   2.730   4.692   1.796 -0.0313 -0.4473 -0.8531
 4235TIP3    H212712   2.775   4.705   1.652  2.3632  0.2437 -0.0871
 4236TIP3   OH212713   4.250   4.545   0.574  0.2363 -0.7775  0.1323
 4236TIP3    H112714   4.164   4.518   0.540 -0.6662  0.3738  1.3935
 4236TIP3    H212715   4.267   4.484   0.645 -0.4610  0.1565  1.1252
 4237TIP3   OH212716   5.412   3.292   5.201  0.0938  0.4716  0.0863
 4237TIP3    H112717   5.482   3.327   5.146 -0.3316 -1.9636 -2.1773
 4237TIP3    H212718   5.332   3.330   5.166  0.0364  1.3785  1.1353
 4238TIP3   OH212719   1.447   4.737   3.105  0.3176  0.2081 -0.6547
 4238TIP3    H112720   1.422   4.829   3.117  0.8996  0.7753 -3.0551
 4238TIP3    H212721   1.392   4.706   3.033 -0.8029 -1.7833  0.9787
 4239TIP3   OH212722   3.922   4.932   0.998 -0.0511 -0.0394 -0.1704
 4239TIP3    H112723   3.946   4.892   1.081 -0.4300  1.3480  0.6269
 4239TIP3    H212724   4.003   4.932   0.947  0.4835  0.2156  0.6655
 4240TIP3   OH212725   1.531   5.766   3.950  0.4521  0.1827  0.5775
 4240TIP3    H112726   1.436   5.766   3.953  0.4235 -0.4471 -0.0708
 4240TIP3    H212727   1.556   5.674   3.953  0.8436 -0.0180 -3.3863
 4241TIP3   OH212728   0.886   5.837   4.650 -1.0782  0.1570 -0.1403
 4241TIP3    H112729   0.981   5.833   4.661 -1.1591 -0.3592  0.4579
 4241TIP3    H212730   0.868   5.925   4.617 -0.2820 -0.1534 -1.4453
 4242TIP3   OH212731   4.225   5.796   2.928  0.2047 -0.0653  0.0989
 4242TIP3    H112732   4.306   5.815   2.976  0.4897 -1.8472  0.3576
 4242TIP3    H212733   4.255   5.764   2.843 -0.2723  0.7340 -0.3860
 4243TIP3   OH212734   1.843   0.248   4.717 -0.3018  0.1936  0.1378
 4243TIP3    H112735   1.887   0.312   4.661 -0.0163 -0.3368 -0.2601
 4243TIP3    H212736   1.835   0.292   4.802 -0.2069  0.7916 -0.1540
 4244TIP3   OH212737   4.033   5.563   4.978 -0.0074  0.4170  0.0891
 4244TIP3    H112738   3.960   5.566   5.039  0.8418  0.3363  1.1380
 4244TIP3    H212739   4.082   5.484   5.002  0.9430  0.9684  0.0356
 4245TIP3   OH212740   3.642   1.788   1.251  0.5585  0.2753  0.4795
 4245TIP3    H112741   3.571   1.841   1.215  1.1204  1.2973  0.8354
 4245TIP3    H212742   3.708   1.786   1.182 -0.5120 -2.2216 -0.6002
 4246TIP3   OH212743   0.300   2.149   1.866 -0.0499 -0.1645 -0.1021
 4246TIP3    H112744   0.234   2.095   1.822  1.0487 -0.0597 -2.0066
 4246TIP3    H212745   0.338   2.202   1.796  1.7343  0.1101  1.0043
 4247TIP3   OH212746   1.509   4.349   0.641  0.0356 -0.2850 -0.0916
 4247TIP3    H112747   1.455   4.371   0.717 -0.7392  0.3073 -0.7991
 4247TIP3    H212748   1.501   4.254   0.633 -3.1316 -0.0150 -1.7427
 4248TIP3   OH212749   3.712   3.315   2.383 -0.1380  0.4809 -0.2898
 4248TIP3    H112750   3.753   3.246   2.331 -0.0944 -0.2080  0.6274
 4248TIP3    H212751   3.774   3.387   2.382 -0.1227  0.4583 -1.1507
 4249TIP3   OH212752   4.062   3.158   1.506  0.1327  0.2502  0.5739
 4249TIP3    H112753   3.991   3.216   1.481  0.4159  0.6143  0.6076
 4249TIP3    H212754   4.057   3.152   1.601 -1.7950 -2.2168  0.4100
 4250TIP3   OH212755   3.498   0.200   2.821  0.1840 -0.2199  0.2009
 4250TIP3    H112756   3.545   0.129   2.863  0.1862 -0.4169 -0.1269
 4250TIP3    H212757   3.414   0.161   2.795  1.0500 -0.7730 -2.0273
 4251TIP3   OH212758   4.634   2.469   0.308  0.0758 -0.1673  0.2785
 4251TIP3    H112759   4.648   2.429   0.394  1.2823  0.9820  0.6441
 4251TIP3    H212760   4.673   2.408   0.246 -0.6664 -0.9275  0.5416
 4252TIP3   OH212761   1.170   0.562   0.700 -0.1178  0.0405  0.0854
 4252TIP3    H112762   1.262   0.537   0.705  0.4078  1.3275 -1.7285
 4252TIP3    H212763   1.122   0.486   0.731  1.5690 -0.2741  2.1246
 4253TIP3   OH212764   4.752   4.008   1.383 -0.3279  0.5185 -0.4702
 4253TIP3    H112765   4.840   3.971   1.388 -0.9022 -0.7383  1.2134
 4253TIP3    H212766   4.766   4.102   1.369  1.2944  0.4221  0.2718
 4254TIP3   OH212767   5.355   1.261   2.777 -0.2709 -0.4417 -0.3344
 4254TIP3    H112768   5.303   1.253   2.697 -0.8520 -1.9455  0.1792
 4254TIP3    H212769   5.391   1.174   2.791 -0.4964 -0.2961  1.2590
 4255TIP3   OH212770   3.271   2.993   1.092 -0.5616 -0.0577  0.0105
 4255TIP3    H112771   3.319   2.959   1.168 -2.0727 -0.3504  0.8826
 4255TIP3    H212772   3.186   2.949   1.096 -2.1093  2.7425  0.3651
 4256TIP3   OH212773   1.877   0.847   1.788  0.2352 -0.3206  0.1105
 4256TIP3    H112774   1.936   0.863   1.862  1.4299 -1.7362 -0.4958
 4256TIP3    H212775   1.899   0.915   1.725 -2.1506  2.1787  1.7205
 4257TIP3   OH212776   1.358   5.057   2.882 -0.0655 -0.0436  0.1483
 4257TIP3    H112777   1.337   5.030   2.793 -0.0075 -0.2749  0.2015
 4257TIP3    H212778   1.361   5.152   2.879  0.3477 -0.0647 -0.1893
 4258TIP3   OH212779   5.232   5.466   2.509 -0.5735  0.0614 -0.0813
 4258TIP3    H112780   5.324   5.450   2.488 -0.8661 -1.2464 -0.5128
 4258TIP3    H212781   5.201   5.382   2.545 -1.9230  0.0139 -1.2571
 4259TIP3   OH212782   6.002   0.288   3.981  0.7656  0.0618  0.1354
 4259TIP3    H112783   6.050   0.371   3.980  1.7077 -0.4603  0.2014
 4259TIP3    H212784   6.070   0.221   3.972 -0.1411 -0.6468 -1.9657
 4260TIP3   OH212785   0.107   2.446   1.725 -0.1320 -0.2122  0.1676
 4260TIP3    H112786   0.118   2.491   1.809  0.8346 -1.8844  0.9976
 4260TIP3    H212787   0.132   2.511   1.660 -0.0236  0.8536  1.2426
 4261TIP3   OH212788   5.123   1.110   1.358 -0.1969  0.0669 -0.0907
 4261TIP3    H112789   5.167   1.184   1.315 -0.4030  0.9957  1.2233
 4261TIP3    H212790   5.189   1.076   1.418  0.0704 -1.1742 -1.0659
 4262TIP3   OH212791   4.175   1.120   2.371 -0.3665  0.3358 -0.7518
 4262TIP3    H112792   4.171   1.028   2.398 -1.1376  0.1918 -1.3319
 4262TIP3    H212793   4.130   1.122   2.286  2.0732  0.7557 -2.1336
 4263TIP3   OH212794   4.968   2.129   2.360 -0.5390 -0.4359 -0.2241
 4263TIP3    H112795   4.905   2.143   2.289  1.6989  1.6299 -2.0335
 4263TIP3    H212796   5.027   2.061   2.327  0.4550  0.4621 -0.3920
 4264TIP3   OH212797   4.785   5.825   2.938 -0.2089 -0.1336  0.8959
 4264TIP3    H112798   4.794   5.804   2.845  0.8174  1.6465  0.5443
 4264TIP3    H212799   4.742   5.910   2.940  0.8396  0.4049  1.9896
 4265TIP3   OH212800   5.472   0.453   4.566 -0.0691 -0.5289 -0.5403
 4265TIP3    H112801   5.488   0.410   4.482  0.2268 -0.1337 -0.6837
 4265TIP3    H212802   5.377   0.445   4.578 -0.1183 -0.5633 -0.9245
 4266TIP3   OH212803   0.962   1.000   3.533 -0.2420  0.2393 -0.0580
 4266TIP3    H112804   0.993   1.049   3.609  0.0327 -1.1442  0.7533
 4266TIP3    H212805   0.867   1.017   3.531 -0.2810  0.1590  0.6921
 4267TIP3   OH212806   2.759   4.382   2.992 -0.7551 -0.1521  0.3460
 4267TIP3    H112807   2.674   4.400   2.953 -0.2192  2.3551  0.1758
 4267TIP3    H212808   2.777   4.459   3.047  1.2499 -0.7764  0.6382
 4268TIP3   OH212809   4.517   2.025   3.615 -0.1429 -0.8225  0.6072
 4268TIP3    H112810   4.598   2.020   3.666 -0.0948  2.2706  1.0228
 4268TIP3    H212811   4.447   2.017   3.680 -0.1516 -1.3745  0.5330
 4269TIP3   OH212812   4.155   2.437   2.236  0.1730 -0.3094  0.2887
 4269TIP3    H112813   4.197   2.437   2.323  0.9820 -1.4130 -0.0726
 4269TIP3    H212814   4.138   2.344   2.218 -0.9359  0.0003 -0.2937
 4270TIP3   OH212815   5.212   4.095   1.886  0.5049  0.0526 -0.4849
 4270TIP3    H112816   5.226   4.002   1.869  0.1997 -0.5050  1.8957
 4270TIP3    H212817   5.299   4.130   1.906  0.2751 -0.5422  1.8750
 4271TIP3   OH212818   4.508   0.896   1.506 -0.6013  0.1474  0.2444
 4271TIP3    H112819   4.457   0.960   1.557 -0.1455  0.9680 -0.2936
 4271TIP3    H212820   4.515   0.820   1.563 -0.7509  0.7587  1.1032
 4272TIP3   OH212821   1.528   2.087   4.184 -0.1349  0.2048 -0.2171
 4272TIP3    H112822   1.489   2.171   4.159  0.2588  1.4419  2.9100
 4272TIP3    H212823   1.615   2.109   4.217  0.1073 -1.4662  0.3729
 4273TIP3   OH212824   2.313   3.707   4.120  0.0655  0.4706 -0.0275
 4273TIP3    H112825   2.229   3.737   4.087 -2.9693 -1.8876  4.5504
 4273TIP3    H212826   2.351   3.784   4.163 -1.9240  0.6594  1.5225
 4274TIP3   OH212827   4.191   1.404   1.663 -0.5772 -0.0465  0.3240
 4274TIP3    H112828   4.102   1.379   1.687 -0.3718 -0.5400  0.5719
 4274TIP3    H212829   4.197   1.383   1.570 -1.0972  1.0878  0.0065
 4275TIP3   OH212830   5.971   3.853   1.700 -0.3994 -0.3094  0.7940
 4275TIP3    H112831   5.954   3.925   1.760  0.0482 -1.2075  2.0489
 4275TIP3    H212832   6.066   3.856   1.686 -0.3035 -0.9388  1.2577
 4276TIP3   OH212833   1.402   5.663   5.053  0.1658 -0.5109 -0.0851
 4276TIP3    H112834   1.491   5.682   5.022  0.5206 -1.8664  0.0105
 4276TIP3    H212835   1.352   5.742   5.034  1.7711  0.9286  1.3690
 4277TIP3   OH212836   3.741   3.740   2.289  0.0328 -0.4080  0.0601
 4277TIP3    H112837   3.786   3.824   2.287  0.1305 -0.4460  0.5755
 4277TIP3    H212838   3.809   3.676   2.265  0.4182 -0.5271  1.3642
 4278TIP3   OH212839   5.613   4.047   2.080 -0.2888  0.0720 -0.1227
 4278TIP3    H112840   5.531   4.008   2.111 -0.1892 -0.2757 -0.2946
 4278TIP3    H212841   5.590   4.086   1.996 -0.0535 -0.8855 -0.6433
 4279TIP3   OH212842   5.290   0.917   1.435  0.4138 -0.3494 -0.7155
 4279TIP3    H112843   5.272   0.824   1.426  0.4288 -0.3797 -0.4550
 4279TIP3    H212844   5.287   0.951   1.346 -3.9001  0.2301 -0.5597
 4280TIP3   OH212845   5.393   2.041   1.074  0.4821  0.0104 -0.1872
 4280TIP3    H112846   5.410   1.982   1.147 -1.9933 -0.4101  0.1392
 4280TIP3    H212847   5.385   1.983   0.998 -0.8111 -0.0104 -0.0633
 4281TIP3   OH212848   5.939   0.611   0.606 -0.2390 -0.1431 -0.2202
 4281TIP3    H112849   6.007   0.562   0.652  0.2783  1.4254  0.7330
 4281TIP3    H212850   5.857   0.569   0.632  0.1655 -0.3085  0.8184
 4282TIP3   OH212851   5.365   5.366   1.404  0.1766 -0.5824  0.1598
 4282TIP3    H112852   5.276   5.401   1.407  0.1725 -0.5936  0.1769
 4282TIP3    H212853   5.408   5.414   1.333 -0.1638 -1.3454 -0.5823
 4283TIP3   OH212854   0.692   0.835   2.471 -0.4472 -0.0193 -0.6629
 4283TIP3    H112855   0.639   0.778   2.415 -3.2255  1.4250  0.3392
 4283TIP3    H212856   0.696   0.918   2.424 -0.4839  0.3785  0.0217
 4284TIP3   OH212857   1.665   2.467   1.227 -0.2439  0.4406  0.8286
 4284TIP3    H112858   1.704   2.507   1.149 -1.7353 -0.6572 -0.5731
 4284TIP3    H212859   1.735   2.412   1.263 -0.1141 -0.7821 -1.0942
 4285TIP3   OH212860   4.386   1.510   2.774  0.3185 -0.1082  0.2182
 4285TIP3    H112861   4.364   1.603   2.779  1.5686  0.2598 -0.6725
 4285TIP3    H212862   4.354   1.473   2.856  1.5801  1.5118  1.5128
 4286TIP3   OH212863   1.247   1.391   1.722 -0.4417  0.7376  0.5847
 4286TIP3    H112864   1.157   1.361   1.718  0.1211 -0.9989 -2.2194
 4286TIP3    H212865   1.244   1.482   1.692 -1.3593  1.1387  1.8227
 4287TIP3   OH212866   2.483   2.238   3.376 -0.1258 -0.2183  0.2074
 4287TIP3    H112867   2.514   2.247   3.286 -1.0936 -1.2164 -0.2606
 4287TIP3    H212868   2.446   2.149   3.379 -2.6003  0.7378  0.7604
 4288TIP3   OH212869   2.208   5.227   1.396  0.0284 -0.2243  0.5012
 4288TIP3    H112870   2.207   5.307   1.450 -0.0776  1.4391 -1.8030
 4288TIP3    H212871   2.284   5.178   1.426  1.8838  2.2109  0.0748
 4289TIP3   OH212872   5.091   6.001   3.595  0.0686 -0.3129 -0.4642
 4289TIP3    H112873   5.042   6.002   3.677  2.2358  2.6289  0.9704
 4289TIP3    H212874   5.155   5.931   3.606  0.4745  0.1932  0.4776
 4290TIP3   OH212875   4.193   2.117   2.213  0.1685  0.2203  0.4371
 4290TIP3    H112876   4.283   2.086   2.225 -0.3494 -0.8532  1.8233
 4290TIP3    H212877   4.154   2.111   2.300 -1.5414 -0.3018 -0.3212
 4291TIP3   OH212878   3.896   1.741   4.127 -0.0890 -1.0650 -0.0024
 4291TIP3    H112879   3.975   1.769   4.172  0.4178 -1.1131 -0.8374
 4291TIP3    H212880   3.921   1.735   4.035 -1.4182  0.2502 -0.4985
 4292TIP3   OH212881   0.823   0.788   1.580 -0.0572 -0.0381  0.6121
 4292TIP3    H112882   0.851   0.772   1.490  0.3008  0.3336  0.6556
 4292TIP3    H212883   0.830   0.883   1.592 -0.8416  0.0125  0.7898
 4293TIP3   OH212884   3.222   0.072   1.855  0.1758  0.4819  0.4702
 4293TIP3    H112885   3.165   0.090   1.781  0.0889  0.3253  0.5000
 4293TIP3    H212886   3.218   0.152   1.908  2.6683  1.8684 -1.2529
 4294TIP3   OH212887   5.135   1.476   3.703  0.4976  0.0821 -0.8936
 4294TIP3    H112888   5.080   1.438   3.634  0.7804 -0.8796 -0.5977
 4294TIP3    H212889   5.204   1.522   3.656  1.3554 -1.5394 -1.2804
 4295TIP3   OH212890   3.043   1.898   4.137  0.5711 -0.0112  0.3104
 4295TIP3    H112891   3.043   1.934   4.226  1.9172  0.5122  0.1199
 4295TIP3    H212892   3.116   1.942   4.093 -1.3989  1.4556 -1.7678
 4296TIP3   OH212893   5.120   0.567   2.029 -0.1906  0.4666  0.9359
 4296TIP3    H112894   5.193   0.513   2.059  0.5955  0.0850 -1.4996
 4296TIP3    H212895   5.161   0.648   1.997 -0.7896  0.2171 -0.5263
 4297TIP3   OH212896   6.362   5.805   2.143  0.4140 -0.0716 -0.1041
 4297TIP3    H112897   6.382   5.737   2.078 -0.0812 -0.8838  0.5594
 4297TIP3    H212898   6.286   5.850   2.108 -1.3052 -2.0119  0.9322
 4298TIP3   OH212899   3.010   1.124   2.877 -0.0169 -0.3324  0.1799
 4298TIP3    H112900   2.985   1.067   2.950 -2.5078 -0.9783 -1.0824
 4298TIP3    H212901   3.106   1.123   2.878  0.0208 -1.6127  2.4233
 4299TIP3   OH212902   1.012   3.756   2.639 -0.3501 -0.3235 -0.4056
 4299TIP3    H112903   1.097   3.741   2.599  0.0156  3.5506 -1.5313
 4299TIP3    H212904   1.031   3.806   2.719 -1.4936 -1.4575  0.6253
 4300TIP3   OH212905   3.859   3.103   0.280 -0.2040  0.5265  0.0560
 4300TIP3    H112906   3.818   3.118   0.366 -0.6258  0.3474 -0.1083
 4300TIP3    H212907   3.810   3.159   0.220  0.6932  1.3588  0.0796
 4301TIP3   OH212908   2.285   1.844   4.408  0.0244  0.1748  0.0304
 4301TIP3    H112909   2.280   1.769   4.348  0.2413 -1.3004  1.7880
 4301TIP3    H212910   2.367   1.887   4.385  0.0954 -0.3573 -0.7594
 4302TIP3   OH212911   2.328   0.571   4.998 -0.1612 -0.2646  0.3499
 4302TIP3    H112912   2.277   0.636   4.949 -1.1464 -0.5958  0.9159
 4302TIP3    H212913   2.315   0.595   5.089 -1.5473 -1.9687  0.6419
 4303TIP3   OH212914   4.581   2.142   4.632  0.5002  0.6643  0.1417
 4303TIP3    H112915   4.550   2.203   4.698 -1.4797  2.2669 -2.1029
 4303TIP3    H212916   4.504   2.122   4.579  1.7750 -1.3183 -1.1163
 4304TIP3   OH212917   3.109   2.527   4.454  0.0233  0.2071  0.1050
 4304TIP3    H112918   3.180   2.473   4.490 -1.1505 -1.2288  0.3829
 4304TIP3    H212919   3.072   2.570   4.531 -1.2111 -1.3027  0.3970
 4305TIP3   OH212920   4.984   4.549   3.464  0.4706 -0.2447  0.2504
 4305TIP3    H112921   4.919   4.480   3.450  0.3289 -0.0681  0.0210
 4305TIP3    H212922   4.949   4.601   3.535 -0.3731  0.7141 -0.8279
 4306TIP3   OH212923   4.929   0.103   0.975  0.1013 -0.5527  0.6052
 4306TIP3    H112924   4.980   0.145   0.905 -0.7153  1.1433  0.9617
 4306TIP3    H212925   4.961   0.145   1.055 -1.6188  0.3379  0.8595
 4307TIP3   OH212926   0.972   3.054   1.586  0.1082 -0.0750 -0.0044
 4307TIP3    H112927   1.014   3.044   1.671 -1.1373  1.5161  0.8322
 4307TIP3    H212928   0.889   3.007   1.593 -0.9166  1.7192  0.3806
 4308TIP3   OH212929   1.851   1.500   4.272 -0.6728 -0.5166 -0.3277
 4308TIP3    H112930   1.816   1.434   4.211  1.5946  0.0612 -2.4069
 4308TIP3    H212931   1.780   1.563   4.282 -1.9759 -1.9132 -0.3307
 4309TIP3   OH212932   1.737   2.299   4.135  0.1259  0.2260 -0.0969
 4309TIP3    H112933   1.802   2.250   4.084  0.9876  1.8687 -0.6281
 4309TIP3    H212934   1.761   2.284   4.226  0.7465  0.1435 -0.2705
 4310TIP3   OH212935   0.792   3.915   0.997  0.1981  0.0950 -0.5421
 4310TIP3    H112936   0.874   3.928   0.950  0.6915 -0.6906  0.0579
 4310TIP3    H212937   0.723   3.944   0.937  0.8269 -0.5858 -1.6037
 4311TIP3   OH212938   5.408   3.561   0.726  0.1832 -0.5693  0.0468
 4311TIP3    H112939   5.417   3.615   0.647 -0.8966 -2.2440 -1.3041
 4311TIP3    H212940   5.319   3.526   0.721  0.4644 -1.5698  1.4737
 4312TIP3   OH212941   4.229   4.267   4.599 -0.0059  0.9823  0.3075
 4312TIP3    H112942   4.145   4.222   4.608  1.5510 -3.1066 -2.6701
 4312TIP3    H212943   4.290   4.217   4.654  1.1417  1.6502 -0.3092
 4313TIP3   OH212944   2.520   0.303   3.429  0.3111 -0.0633 -0.5339
 4313TIP3    H112945   2.548   0.368   3.365  0.2995 -0.3794 -0.8647
 4313TIP3    H212946   2.426   0.319   3.440  0.4589  0.4788 -0.0268
 4314TIP3   OH212947   6.063   5.081   4.804 -0.3795 -0.2488 -0.1539
 4314TIP3    H112948   6.114   5.008   4.767 -0.5026 -0.3807 -0.0622
 4314TIP3    H212949   6.060   5.146   4.733  1.3440  0.4747  0.3798
 4315TIP3   OH212950   0.339   3.546   2.865 -0.3869 -0.3781  0.1886
 4315TIP3    H112951   0.398   3.554   2.940 -0.3702 -1.7583  0.3479
 4315TIP3    H212952   0.301   3.633   2.854  0.4567  0.1122  1.1011
 4316TIP3   OH212953   1.785   0.131   3.180 -0.4255 -0.4972  0.1164
 4316TIP3    H112954   1.756   0.219   3.206 -0.3422 -0.6028  0.5738
 4316TIP3    H212955   1.707   0.090   3.144 -0.1687  0.2219 -1.3612
 4317TIP3   OH212956   6.248   1.855   4.763 -0.1048  0.5272 -0.4160
 4317TIP3    H112957   6.257   1.762   4.783 -1.6846  0.0536 -1.7626
 4317TIP3    H212958   6.159   1.878   4.792  0.2737  1.6370 -0.0618
 4318TIP3   OH212959   6.364   3.326   1.778 -0.4729 -0.0758  0.1157
 4318TIP3    H112960   6.384   3.269   1.703 -1.4806  2.6240 -2.4116
 4318TIP3    H212961   6.269   3.317   1.790 -0.6191  0.8679 -0.2108
 4319TIP3   OH212962   5.479   2.750   3.315  0.2658 -0.2658  0.2770
 4319TIP3    H112963   5.395   2.723   3.278  0.4735 -1.7128  0.7909
 4319TIP3    H212964   5.500   2.832   3.270 -0.8810 -0.4626 -0.6640
 4320TIP3   OH212965   0.560   2.577   2.258  0.6710  0.2329  0.0046
 4320TIP3    H112966   0.494   2.595   2.191  0.1276 -0.5885  0.3060
 4320TIP3    H212967   0.585   2.664   2.290  0.1998  0.5849 -0.5462
 4321TIP3   OH212968   0.640   5.420   4.064  0.5738  0.0937  0.3418
 4321TIP3    H112969   0.660   5.357   3.995 -3.2445 -0.3701 -0.5742
 4321TIP3    H212970   0.630   5.366   4.143 -0.6463 -0.2072 -0.0018
 4322TIP3   OH212971   1.882   1.958   0.273 -0.3231  0.0239 -0.2013
 4322TIP3    H112972   1.853   2.005   0.195 -0.9898  0.3338  0.2284
 4322TIP3    H212973   1.963   1.914   0.246 -0.9891 -0.5609 -1.2997
 4323TIP3   OH212974   3.138   0.150   0.675  0.5395 -0.7808 -0.9192
 4323TIP3    H112975   3.052   0.134   0.636  0.9008 -0.7541 -1.7494
 4323TIP3    H212976   3.173   0.225   0.627 -0.7317  2.1026  2.2221
 4324TIP3   OH212977   4.523   3.212   4.835  0.2766 -0.1050 -0.5134
 4324TIP3    H112978   4.517   3.144   4.769 -0.7440 -0.5459  0.0066
 4324TIP3    H212979   4.570   3.171   4.908  0.6051  0.0907 -0.6142
 4325TIP3   OH212980   5.398   0.601   0.899 -0.6579  0.1962 -0.2814
 4325TIP3    H112981   5.446   0.621   0.979 -1.6324  3.0842 -0.2731
 4325TIP3    H212982   5.322   0.551   0.928  0.8337 -1.9879  0.0469
 4326TIP3   OH212983   4.910   2.200   0.735 -0.2287  0.1516 -0.0003
 4326TIP3    H112984   4.873   2.224   0.820  0.8813  1.3493  0.1846
 4326TIP3    H212985   5.000   2.175   0.755  0.6618  2.3041 -0.9983
 4327TIP3   OH212986   5.513   5.829   1.259 -0.3082  0.0490  0.1118
 4327TIP3    H112987   5.521   5.829   1.354  0.0446  1.8227  0.1191
 4327TIP3    H212988   5.580   5.768   1.229  0.5126  0.4961  0.9697
 4328TIP3   OH212989   4.199   3.431   2.978  0.3686  0.4576  0.0947
 4328TIP3    H112990   4.235   3.431   3.066  0.0101 -1.4365  0.2785
 4328TIP3    H212991   4.105   3.416   2.991  0.5270 -1.4192 -0.6297
 4329TIP3   OH212992   2.823   4.916   4.586  0.0316 -0.2858  0.4457
 4329TIP3    H112993   2.742   4.915   4.637 -0.1286  0.1567  0.2087
 4329TIP3    H212994   2.795   4.940   4.497  0.6573  2.0692  0.8193
 4330TIP3   OH212995   2.475   2.112   3.667  0.1396 -0.2611 -0.1302
 4330TIP3    H112996   2.510   2.164   3.740 -0.5636 -0.0091  0.0424
 4330TIP3    H212997   2.416   2.172   3.622  0.3433 -0.5123 -0.7330
 4331TIP3   OH212998   0.521   1.696   3.073  0.8288 -0.1464 -0.0667
 4331TIP3    H112999   0.593   1.729   3.019 -1.1100  1.6823 -1.7069
 4331TIP3    H213000   0.496   1.770   3.128 -0.3958 -0.4193 -0.2252
 4332TIP3   OH213001   0.540   3.160   0.429  0.1128  0.4275  0.0424
 4332TIP3    H113002   0.529   3.065   0.427  1.1713  0.3146 -0.8939
 4332TIP3    H213003   0.592   3.177   0.508 -0.3751  0.2770  0.4034
 4333TIP3   OH213004   4.263   1.281   0.241  0.0017 -0.1755  0.1666
 4333TIP3    H113005   4.204   1.316   0.308 -0.5490 -1.1570  0.2045
 4333TIP3    H213006   4.264   1.187   0.256  0.6972 -0.2916 -0.5481
 4334TIP3   OH213007   1.328   2.667   0.861 -0.0253  0.6291 -0.2216
 4334TIP3    H113008   1.327   2.747   0.914 -1.8512  1.0035 -0.7592
 4334TIP3    H213009   1.328   2.699   0.770 -0.3620  0.0165 -0.4408
 4335TIP3   OH213010   5.530   2.106   2.722 -0.1860 -0.2090  0.3661
 4335TIP3    H113011   5.622   2.096   2.696  0.1269 -2.6553  2.0720
 4335TIP3    H213012   5.534   2.159   2.802 -0.3972  0.4961 -0.0750
 4336TIP3   OH213013   3.652   5.008   3.154 -0.0994 -0.6232  0.5584
 4336TIP3    H113014   3.560   5.037   3.158  0.3336  1.2065 -0.9971
 4336TIP3    H213015   3.694   5.055   3.226 -0.1370 -0.3696  0.4183
 4337TIP3   OH213016   3.098   4.715   4.239  0.5267  0.0439  0.4994
 4337TIP3    H113017   3.088   4.620   4.232  1.7632 -0.0894  0.3143
 4337TIP3    H213018   3.081   4.733   4.332 -1.7385 -0.0536  0.1642
 4338TIP3   OH213019   4.586   5.220   4.013  0.2058  0.5324 -0.2998
 4338TIP3    H113020   4.665   5.192   4.058 -0.2699 -0.1484  0.1397
 4338TIP3    H213021   4.602   5.311   3.989  0.2782  1.1103  1.7485
 4339TIP3   OH213022   0.245   5.248   4.577 -0.5466  0.4581 -0.4066
 4339TIP3    H113023   0.186   5.189   4.624 -1.0847  0.1356 -1.4525
 4339TIP3    H213024   0.188   5.319   4.547  0.2352  2.0551  1.6123
 4340TIP3   OH213025   4.558   3.616   4.476 -0.2200  0.7340  0.2565
 4340TIP3    H113026   4.514   3.568   4.546 -0.2024 -0.6548 -0.6421
 4340TIP3    H213027   4.501   3.606   4.400  0.9236  0.1291 -0.5499
 4341TIP3   OH213028   1.406   4.008   2.046 -0.3766 -0.0756  0.4110
 4341TIP3    H113029   1.450   4.088   2.075 -0.1973 -0.1260  0.2849
 4341TIP3    H213030   1.350   4.035   1.973 -1.5733  0.2248  1.4168
 4342TIP3   OH213031   5.496   5.539   3.751  0.1291 -0.0816 -0.8573
 4342TIP3    H113032   5.424   5.512   3.808  0.6614  0.3363  0.0400
 4342TIP3    H213033   5.453   5.577   3.675 -0.6408  1.0911  0.1092
 4343TIP3   OH213034   6.094   4.486   1.264  0.6631 -0.0557  0.5369
 4343TIP3    H113035   6.125   4.402   1.232  0.9339  0.3565 -0.3358
 4343TIP3    H213036   6.090   4.541   1.186 -1.1588  0.2549  0.8013
 4344TIP3   OH213037   5.226   4.183   1.050 -0.0223  0.3843 -0.0750
 4344TIP3    H113038   5.168   4.239   1.102  0.2374 -0.5459  1.2992
 4344TIP3    H213039   5.168   4.134   0.993 -0.4094  0.8331 -0.0693
 4345TIP3   OH213040   2.092   0.380   3.892  0.6480 -0.1701 -0.5831
 4345TIP3    H113041   2.131   0.400   3.806  1.0824  0.0377 -0.3413
 4345TIP3    H213042   2.011   0.333   3.871  0.6539  0.0427 -1.1130
 4346TIP3   OH213043   3.519   1.953   4.453 -0.0485  0.2856 -0.1656
 4346TIP3    H113044   3.538   1.872   4.501  0.7881  0.3671 -0.3283
 4346TIP3    H213045   3.560   1.938   4.367 -1.4652  0.1602 -0.8474
 4347TIP3   OH213046   2.694   5.169   1.732 -0.0829  0.5206  0.5409
 4347TIP3    H113047   2.758   5.098   1.736 -0.0524  0.5568  0.6957
 4347TIP3    H213048   2.650   5.166   1.817  0.1746  0.9259  0.6902
 4348TIP3   OH213049   1.018   0.152   1.498  0.3901 -0.1384  0.1073
 4348TIP3    H113050   1.048   0.243   1.506  0.2122 -0.1368  0.8219
 4348TIP3    H213051   0.937   0.158   1.448  0.2662  0.1169  0.3385
 4349TIP3   OH213052   5.240   3.787   3.486 -0.0457  0.3278  1.0250
 4349TIP3    H113053   5.182   3.798   3.411  0.2541 -0.1259  0.7208
 4349TIP3    H213054   5.224   3.698   3.516  0.0600  0.4026  1.3036
 4350TIP3   OH213055   6.046   0.798   3.790 -0.4051 -0.0835  0.7550
 4350TIP3    H113056   5.994   0.878   3.790 -0.0501  0.1564 -0.4818
 4350TIP3    H213057   6.070   0.786   3.882 -0.8106  0.9908  1.0198
 4351TIP3   OH213058   5.580   3.159   2.516  0.1642 -0.3838 -0.0890
 4351TIP3    H113059   5.607   3.250   2.527  1.4226 -0.9379  1.9057
 4351TIP3    H213060   5.627   3.129   2.438 -0.1487  0.6075 -0.6764
 4352TIP3   OH213061   4.334   1.376  -0.009  0.0705 -0.2762 -0.6184
 4352TIP3    H113062   4.300   1.350   0.076  0.3307 -1.6583 -0.9161
 4352TIP3    H213063   4.268   1.436  -0.044  0.4890  1.2307  0.9992
 4353TIP3   OH213064   2.151   3.412   1.572  0.1218 -0.1584  0.0429
 4353TIP3    H113065   2.193   3.421   1.658 -1.5313  1.4978  0.7286
 4353TIP3    H213066   2.081   3.348   1.586  0.6975 -0.9296 -0.4569
 4354TIP3   OH213067   1.069   1.780   0.748 -0.3846 -0.1385  0.5536
 4354TIP3    H113068   1.094   1.866   0.783 -1.1583  0.2288  0.2367
 4354TIP3    H213069   0.975   1.789   0.729 -0.2284 -0.6829 -0.5550
 4355TIP3   OH213070   0.718   1.894   0.147  0.0975  0.0645  0.4745
 4355TIP3    H113071   0.801   1.852   0.169  0.2102 -0.7904 -1.3730
 4355TIP3    H213072   0.707   1.877   0.053 -1.7130  0.9676  0.4810
 4356TIP3   OH213073   3.631   2.769   1.043 -0.1925 -0.3122 -0.0044
 4356TIP3    H113074   3.640   2.852   0.997 -0.2409 -1.1001 -1.5056
 4356TIP3    H213075   3.552   2.729   1.007  0.3876 -1.4518 -0.0875
 4357TIP3   OH213076   1.917   4.344   1.774 -0.3298 -0.0266  0.0611
 4357TIP3    H113077   2.008   4.320   1.761 -0.0234  1.2299 -0.2126
 4357TIP3    H213078   1.880   4.351   1.686 -0.6320 -0.2963  0.1618
 4358TIP3   OH213079   3.181   5.439   1.752  0.0717 -0.1067 -0.5292
 4358TIP3    H113080   3.120   5.368   1.771 -0.7574  0.7972  0.2727
 4358TIP3    H213081   3.132   5.500   1.697  0.1105  0.7875  0.3837
 4359TIP3   OH213082   5.518   4.473   4.774 -0.0732  0.3657 -0.1231
 4359TIP3    H113083   5.593   4.455   4.830 -0.4443  0.2595  0.3462
 4359TIP3    H213084   5.474   4.547   4.815  0.1128  0.8325 -0.7372
 4360TIP3   OH213085   6.109   2.037   1.439  0.1816 -0.2640 -0.0558
 4360TIP3    H113086   6.128   2.077   1.353  2.0977 -0.1449  0.3851
 4360TIP3    H213087   6.134   1.946   1.429  0.4356 -0.2426  0.3950
 4361TIP3   OH213088   3.052   1.918   3.808 -0.0939 -0.2167 -0.4832
 4361TIP3    H113089   2.991   1.872   3.751 -1.8195  0.3807  0.8050
 4361TIP3    H213090   3.075   1.853   3.875 -0.5346  0.0284 -0.0937
 4362TIP3   OH213091   1.322   1.105   4.616  0.1205 -0.3025 -0.1284
 4362TIP3    H113092   1.355   1.135   4.531 -2.7000  0.2049 -1.1694
 4362TIP3    H213093   1.250   1.045   4.594 -1.4840  0.7555  1.8360
 4363TIP3   OH213094   3.022   1.136   2.235 -0.7015 -0.1793  0.0639
 4363TIP3    H113095   3.101   1.190   2.235  0.2660 -1.5092 -1.4144
 4363TIP3    H213096   3.047   1.056   2.282 -1.1826 -0.5842 -0.3487
 4364TIP3   OH213097   1.209   0.109   2.155 -0.1230  0.0919  0.1941
 4364TIP3    H113098   1.199   0.150   2.241  0.0623  0.8115 -0.1160
 4364TIP3    H213099   1.121   0.076   2.134 -0.0667 -0.4837  0.8460
 4365TIP3   OH213100   4.061   0.143   0.501  0.0694 -0.0094 -0.1018
 4365TIP3    H113101   3.972   0.168   0.528 -0.1702 -0.8520 -0.0795
 4365TIP3    H213102   4.079   0.197   0.425 -0.1819  0.6914  0.3281
 4366TIP3   OH213103   3.060   1.584   3.443  0.2125 -0.1613 -0.3199
 4366TIP3    H113104   3.017   1.499   3.441  0.7016 -0.4844  1.4765
 4366TIP3    H213105   3.098   1.594   3.356 -3.1268  0.0058 -1.9353
 4367TIP3   OH213106   0.334   2.489   2.405 -0.0401  0.6347  0.3973
 4367TIP3    H113107   0.312   2.540   2.483  0.6172  1.3820  0.1042
 4367TIP3    H213108   0.430   2.482   2.408 -0.1466 -1.0993  0.7516
 4368TIP3   OH213109   2.983   1.140   1.741  0.6569 -0.0959 -0.2169
 4368TIP3    H113110   3.009   1.201   1.672  0.2384  0.4185  0.0796
 4368TIP3    H213111   2.931   1.192   1.802 -0.0107 -0.8187 -0.1474
 4369TIP3   OH213112   5.408   3.098   0.038 -0.0428  0.2831 -0.4143
 4369TIP3    H113113   5.341   3.067  -0.024 -0.2143 -1.9909  0.7994
 4369TIP3    H213114   5.401   3.038   0.112  2.6496  0.6412  0.2155
 4370TIP3   OH213115   5.175   4.147   3.702 -0.0746  0.5057  0.2082
 4370TIP3    H113116   5.195   4.179   3.790  0.5017  0.4883  0.0851
 4370TIP3    H213117   5.252   4.096   3.677  0.2567  1.4485 -0.7485
 4371TIP3   OH213118   0.196   2.453   2.172  0.6813  0.0052  0.1435
 4371TIP3    H113119   0.263   2.469   2.238  0.5558  0.2313  0.2195
 4371TIP3    H213120   0.127   2.405   2.218 -0.1489  1.5715  0.6185
 4372TIP3   OH213121   3.749   0.888   2.401 -0.1210 -0.3201  0.4869
 4372TIP3    H113122   3.664   0.866   2.363 -0.6403  2.1858 -0.0241
 4372TIP3    H213123   3.813   0.857   2.336 -0.8416  0.6390 -0.7405
 4373TIP3   OH213124   5.209   3.516   3.473 -0.0033  0.2863  0.0372
 4373TIP3    H113125   5.191   3.508   3.379 -1.6423  3.3893 -0.0466
 4373TIP3    H213126   5.180   3.433   3.510  0.1603 -0.8015 -2.0866
 4374TIP3   OH213127   2.490   1.016   3.200  0.1020 -0.1370  0.5412
 4374TIP3    H113128   2.482   1.029   3.294  2.0191  0.4594  0.6732
 4374TIP3    H213129   2.584   1.020   3.183 -0.1880 -0.3317 -1.3958
 4375TIP3   OH213130   4.110   3.002   3.136 -0.1197  0.2782 -0.2356
 4375TIP3    H113131   4.172   2.987   3.207 -0.3399 -0.8374 -0.2582
 4375TIP3    H213132   4.035   2.945   3.157 -1.4080  2.0237  0.1074
 4376TIP3   OH213133   2.501   3.330   5.068 -0.0234  0.1745  0.0005
 4376TIP3    H113134   2.452   3.270   5.124  0.3592 -1.2217 -1.0885
 4376TIP3    H213135   2.459   3.322   4.982  1.3374 -0.1371 -0.6609
 4377TIP3   OH213136   3.948   1.906   3.120  0.1781  0.0491  0.1580
 4377TIP3    H113137   3.998   1.825   3.121  1.2549  0.6947  0.4713
 4377TIP3    H213138   3.949   1.937   3.211  1.3402  1.3191 -0.2467
 4378TIP3   OH213139   1.939   5.119   3.785  0.0711  0.0819  0.7918
 4378TIP3    H113140   1.957   5.212   3.802  0.9040  0.0741  0.0585
 4378TIP3    H213141   1.846   5.108   3.802  0.2242  0.7658  2.1453
 4379TIP3   OH213142   1.001   1.363   4.930 -0.3597  0.3676 -0.5773
 4379TIP3    H113143   0.924   1.334   4.980  0.1447 -0.2528 -0.1447
 4379TIP3    H213144   1.036   1.436   4.980  0.1350 -0.2421 -0.0197
 4380TIP3   OH213145   3.302   2.394   3.961 -0.3650 -0.0906 -0.0532
 4380TIP3    H113146   3.376   2.367   4.015 -1.4863 -0.7243  1.2293
 4380TIP3    H213147   3.307   2.490   3.959  0.2560 -0.1123  0.3381
 4381TIP3   OH213148   4.364   1.142   4.248 -0.0510  0.1326 -0.4167
 4381TIP3    H113149   4.379   1.108   4.159 -1.3028 -1.3823 -0.1011
 4381TIP3    H213150   4.443   1.116   4.296  0.7643  1.2178 -1.1328
 4382TIP3   OH213151   5.438   0.361   1.659 -0.0305 -0.2759 -0.4094
 4382TIP3    H113152   5.456   0.271   1.685  0.1809 -0.4120 -1.0011
 4382TIP3    H213153   5.363   0.354   1.599  1.8759 -0.4461 -2.9315
 4383TIP3   OH213154   4.237   4.970   2.690  0.2647  0.1245 -0.0451
 4383TIP3    H113155   4.243   5.053   2.642 -0.2552  1.0442  1.4298
 4383TIP3    H213156   4.152   4.935   2.663  1.7970 -1.6283 -3.1969
 4384TIP3   OH213157   3.110   4.209   0.013  0.1646  0.0974  0.5880
 4384TIP3    H113158   3.066   4.259   0.082 -0.9660  0.2985 -0.2359
 4384TIP3    H213159   3.040   4.189  -0.049  0.7133 -2.0068  0.5872
 4385TIP3   OH213160   1.722   1.908   2.120 -0.1385  0.6921  0.3175
 4385TIP3    H113161   1.771   1.843   2.170 -2.1088 -0.4398  0.8652
 4385TIP3    H213162   1.667   1.857   2.060 -0.5511  1.9057 -0.3715
 4386TIP3   OH213163   6.074   0.833   0.883 -0.5362  0.0292 -0.0770
 4386TIP3    H113164   5.999   0.785   0.919 -0.1210 -1.0716 -0.6233
 4386TIP3    H213165   6.038   0.881   0.809 -0.8079 -0.0709 -0.0126
 4387TIP3   OH213166   2.714   0.004   1.932  0.5339 -0.0373  0.4363
 4387TIP3    H113167   2.729   0.058   1.854 -0.3337  0.5053  0.6225
 4387TIP3    H213168   2.657   0.058   1.988 -2.0806 -1.8617 -0.2399
 4388TIP3   OH213169   1.682   1.597   4.559 -0.1596 -0.8337  0.1669
 4388TIP3    H113170   1.616   1.534   4.530 -1.8226  1.5978 -1.7025
 4388TIP3    H213171   1.712   1.640   4.479  2.2956 -0.4792  1.1815
 4389TIP3   OH213172   1.837   3.100   0.771  0.3481  0.2380  0.1762
 4389TIP3    H113173   1.855   3.011   0.801 -0.8853 -0.1794 -0.2561
 4389TIP3    H213174   1.923   3.141   0.763  0.8331 -0.2237  2.4353
 4390TIP3   OH213175   0.442   5.024   0.616 -0.2702  0.3745 -0.0327
 4390TIP3    H113176   0.361   5.060   0.652 -0.0809  3.0771 -2.0303
 4390TIP3    H213177   0.511   5.066   0.666 -0.0660  0.2906 -0.2459
 4391TIP3   OH213178   5.383   0.440   1.288 -0.0098  0.6176  0.1573
 4391TIP3    H113179   5.445   0.369   1.272  0.9135  1.2213  0.9843
 4391TIP3    H213180   5.317   0.401   1.346  0.7540  0.5621  0.9997
 4392TIP3   OH213181   3.079   1.401   1.927  0.3577  1.3315 -0.1677
 4392TIP3    H113182   3.108   1.466   1.991 -0.1516  1.0288  0.3813
 4392TIP3    H213183   2.984   1.396   1.938  0.5511 -1.0093  1.3275
 4393TIP3   OH213184   5.977   5.175   2.992  0.4883  0.1299  0.4369
 4393TIP3    H113185   5.884   5.200   2.995  0.4784  0.2804 -0.6250
 4393TIP3    H213186   6.024   5.258   2.991  0.5584  0.0933 -0.5608
 4394TIP3   OH213187   3.280   0.100   2.711 -0.3702  0.2711 -0.3403
 4394TIP3    H113188   3.265   0.120   2.619 -1.2226  2.0176  0.1252
 4394TIP3    H213189   3.193   0.086   2.748 -0.1253  0.6236  0.4034
 4395TIP3   OH213190   1.450   2.251   1.619  0.2889  0.0414  0.2122
 4395TIP3    H113191   1.420   2.223   1.532  1.2741  3.0074 -1.2090
 4395TIP3    H213192   1.530   2.200   1.633  0.4803 -0.0013 -0.9335
 4396TIP3   OH213193   4.188   0.232   0.724  0.4547 -0.7425  0.1788
 4396TIP3    H113194   4.134   0.311   0.730  0.8995 -0.3634 -0.5824
 4396TIP3    H213195   4.159   0.189   0.644  1.5905 -0.2699 -0.5129
 4397TIP3   OH213196   3.673   4.281   0.065  0.3416  0.6690  0.1014
 4397TIP3    H113197   3.620   4.217   0.113  0.0739  0.9630  0.2027
 4397TIP3    H213198   3.620   4.360   0.065  0.4219  0.7247 -0.5258
 4398TIP3   OH213199   1.456   3.609   0.991 -0.1875  0.1092 -0.4824
 4398TIP3    H113200   1.457   3.514   0.981 -0.9621 -0.0228  0.5306
 4398TIP3    H213201   1.527   3.627   1.054 -1.2650 -0.0127  0.8074
 4399TIP3   OH213202   2.896   4.960   2.832  0.5048  0.9317  0.3439
 4399TIP3    H113203   2.825   4.965   2.897 -0.0707  1.0335 -0.2789
 4399TIP3    H213204   2.957   5.029   2.858  0.8339  0.2557  1.4166
 4400TIP3   OH213205   3.488   3.099   2.431 -0.1869  0.4684  0.1013
 4400TIP3    H113206   3.402   3.140   2.432 -0.4123  0.0601  2.1629
 4400TIP3    H213207   3.550   3.172   2.437 -0.3621  0.7563 -1.2844
 4401TIP3   OH213208   4.762   4.557   4.112 -0.0052 -0.1376 -0.0503
 4401TIP3    H113209   4.737   4.472   4.078  0.8616 -1.1535  1.7267
 4401TIP3    H213210   4.699   4.618   4.073 -1.6259 -1.7997 -0.1468
 4402TIP3   OH213211   5.037   3.140   3.767  0.2027 -0.0253  0.4920
 4402TIP3    H113212   4.998   3.153   3.854 -0.0945 -1.7210  0.6571
 4402TIP3    H213213   5.130   3.123   3.785 -0.2305 -2.5531  0.7518
 4403TIP3   OH213214   4.928   3.057   1.007  0.0025 -0.3549  0.2239
 4403TIP3    H113215   4.841   3.035   0.975 -0.0514  0.5754 -0.2843
 4403TIP3    H213216   4.988   3.004   0.954 -0.1446  0.4615 -0.7762
 4404TIP3   OH213217   5.017   3.255   1.706  0.3202  0.0863 -0.1258
 4404TIP3    H113218   4.955   3.315   1.749  0.2345 -0.3366  0.3541
 4404TIP3    H213219   4.972   3.228   1.626  0.6720  1.2430 -0.7269
 4405TIP3   OH213220   1.509   1.017   3.142  0.2372  0.0249 -0.0533
 4405TIP3    H113221   1.475   1.038   3.228 -0.5311 -1.0459 -0.0700
 4405TIP3    H213222   1.450   1.060   3.081 -1.1246 -1.7429 -0.0798
 4406TIP3   OH213223   0.424   0.643   3.049 -0.5840 -0.1860  0.0903
 4406TIP3    H113224   0.501   0.661   2.995 -0.6132  0.6992  0.3250
 4406TIP3    H213225   0.447   0.678   3.135 -0.8962 -0.7490  0.4077
 4407TIP3   OH213226   0.050   0.175   2.642  0.4948  0.5861  0.0646
 4407TIP3    H113227   0.070   0.182   2.736 -0.5388  0.2922  0.3133
 4407TIP3    H213228   0.110   0.238   2.601 -0.0205  1.7877  1.0676
 4408TIP3   OH213229   1.360   3.977   0.050 -1.0168  0.0289  0.3033
 4408TIP3    H113230   1.318   3.969  -0.035  0.1349 -1.5851 -0.1733
 4408TIP3    H213231   1.435   4.035   0.035 -1.3721  0.5311  0.4563
 4409TIP3   OH213232   3.991   1.815   2.797 -0.1565 -0.3793  0.3474
 4409TIP3    H113233   3.953   1.878   2.736 -0.4022 -1.3785 -0.5712
 4409TIP3    H213234   3.915   1.776   2.841 -0.1790 -1.5642 -0.6696
 4410TIP3   OH213235   0.356   0.585   1.190  0.3823 -0.3641  0.0598
 4410TIP3    H113236   0.399   0.504   1.163 -0.0825 -0.4712 -0.3920
 4410TIP3    H213237   0.267   0.558   1.212 -0.4168  0.3001 -2.0854
 4411TIP3   OH213238   3.725   1.592   0.681 -0.1575  0.0234 -0.2103
 4411TIP3    H113239   3.810   1.635   0.686  0.9941 -2.2424  1.3682
 4411TIP3    H213240   3.703   1.571   0.771 -0.9514 -2.0439 -0.8276
 4412TIP3   OH213241   3.591   5.228   2.348  0.0392 -0.1134 -0.4938
 4412TIP3    H113242   3.598   5.156   2.285  0.6107 -1.0919  0.6454
 4412TIP3    H213243   3.668   5.282   2.331  0.7361 -0.9332  0.0393
 4413TIP3   OH213244   5.436   4.404   3.061  0.1486  0.4054 -0.0267
 4413TIP3    H113245   5.517   4.454   3.066 -0.1569  0.8961  0.1258
 4413TIP3    H213246   5.433   4.356   3.144 -0.6300  1.8410  0.8191
 4414TIP3   OH213247   5.463   2.438   2.067  0.3387  0.0126  0.5396
 4414TIP3    H113248   5.545   2.406   2.028 -0.6772 -0.8741 -0.9592
 4414TIP3    H213249   5.416   2.359   2.093 -0.9848  0.3593 -0.6497
 4415TIP3   OH213250   3.258   4.310   2.836  0.4241  1.0640 -0.4728
 4415TIP3    H113251   3.334   4.254   2.852 -0.7370 -0.7607 -0.9849
 4415TIP3    H213252   3.199   4.291   2.909 -0.8168  0.0643 -1.6872
 4416TIP3   OH213253   2.095   5.619   1.752 -0.2171  0.4212  0.2323
 4416TIP3    H113254   2.127   5.699   1.793 -1.6864  1.4971 -0.6206
 4416TIP3    H213255   2.000   5.629   1.751 -0.4546 -1.4107  0.2248
 4417TIP3   OH213256   3.651   1.409   4.030  0.0245 -0.6220  0.0913
 4417TIP3    H113257   3.558   1.405   4.009 -0.2437  1.4630  0.6302
 4417TIP3    H213258   3.657   1.375   4.119 -0.4279  0.2930  0.4883
 4418TIP3   OH213259   0.283   3.357   3.251  0.2746 -0.2702  0.4668
 4418TIP3    H113260   0.351   3.302   3.211 -0.4318 -0.2935 -0.7433
 4418TIP3    H213261   0.285   3.439   3.202 -0.6665 -0.3286  0.3029
 4419TIP3   OH213262   1.559   4.461   0.406  0.5290  0.2182 -0.1521
 4419TIP3    H113263   1.539   4.546   0.445  0.6683  0.3664 -0.3995
 4419TIP3    H213264   1.542   4.398   0.476  2.7516  0.6308  0.8418
 4420TIP3   OH213265   1.706   3.656   0.300  0.2733  0.0566  0.2169
 4420TIP3    H113266   1.757   3.654   0.380  0.5074  2.9576  0.2298
 4420TIP3    H213267   1.655   3.737   0.305  0.1221  0.2312 -2.4545
 4421TIP3   OH213268   4.860   5.691   1.823 -0.6567  0.4122 -0.2754
 4421TIP3    H113269   4.777   5.644   1.831 -1.2656  1.3200 -1.0215
 4421TIP3    H213270   4.878   5.692   1.729  0.2078  0.2130 -0.1180
 4422TIP3   OH213271   3.048   4.721   4.521 -0.2103  0.3975  0.0592
 4422TIP3    H113272   3.110   4.717   4.593  0.4398  1.6074 -0.3976
 4422TIP3    H213273   3.012   4.810   4.526  0.6318  0.8869 -1.7005
 4423TIP3   OH213274   4.931   5.362   2.076 -0.1431  0.2607 -0.0062
 4423TIP3    H113275   4.924   5.267   2.062 -0.6550  0.5637 -2.0361
 4423TIP3    H213276   4.897   5.375   2.165  1.3826 -1.5965  0.9204
 4424TIP3   OH213277   4.230   5.217   2.944  0.5586 -0.2143  0.9166
 4424TIP3    H113278   4.235   5.299   2.993 -0.5225  0.0883  0.5580
 4424TIP3    H213279   4.303   5.165   2.976  1.3347  0.9344  1.0616
 4425TIP3   OH213280   3.240   0.220   2.477 -0.3730  0.0188 -0.0522
 4425TIP3    H113281   3.181   0.261   2.540  0.9082 -0.4692  1.5464
 4425TIP3    H213282   3.259   0.289   2.413 -0.0814  1.2066  1.2691
 4426TIP3   OH213283   2.522   5.028   3.829  0.0448 -0.0952 -0.2209
 4426TIP3    H113284   2.443   4.982   3.801 -0.1025  0.1231 -0.1610
 4426TIP3    H213285   2.528   5.104   3.770  0.1709 -0.0712 -0.1790
 4427TIP3   OH213286   0.883   0.892   3.134 -0.1020 -0.4280  0.3314
 4427TIP3    H113287   0.939   0.836   3.187 -0.6144 -1.6488 -0.3591
 4427TIP3    H213288   0.908   0.981   3.158  2.2872 -0.9000 -0.1065
 4428TIP3   OH213289   2.542   2.531   3.880 -0.1930 -0.1855 -0.2612
 4428TIP3    H113290   2.518   2.523   3.972 -0.9338  0.4954 -0.3849
 4428TIP3    H213291   2.469   2.578   3.840  0.1216 -0.4645 -1.1980
 4429TIP3   OH213292   0.493   4.630   3.731 -0.1834 -0.3804  0.1911
 4429TIP3    H113293   0.584   4.657   3.735 -0.7572  1.7437  0.1509
 4429TIP3    H213294   0.474   4.620   3.638 -0.1678 -0.1389  0.1616
 4430TIP3   OH213295   6.343   1.078   2.744 -0.5390  0.3465  0.3765
 4430TIP3    H113296   6.262   1.087   2.694 -0.0704  2.5324 -0.0799
 4430TIP3    H213297   6.389   1.004   2.703 -1.6779 -0.0738 -0.1978
 4431TIP3   OH213298   2.153   1.397   0.706 -0.5511  0.5491  0.1338
 4431TIP3    H113299   2.128   1.489   0.717  0.9998  0.9967  0.1207
 4431TIP3    H213300   2.245   1.400   0.679 -0.3397 -1.0159  0.5794
 4432TIP3   OH213301   0.636   0.387   3.823 -0.0392  0.0232 -0.1952
 4432TIP3    H113302   0.580   0.318   3.787  1.5703 -1.7271  0.5169
 4432TIP3    H213303   0.725   0.357   3.806  0.7197  1.7117  0.5772
 4433TIP3   OH213304   5.268   4.703   0.672  0.2848 -0.5150 -0.3012
 4433TIP3    H113305   5.190   4.757   0.667  0.7498  0.1054 -1.1443
 4433TIP3    H213306   5.334   4.751   0.621  1.2082 -1.0293  0.3662
 4434TIP3   OH213307   2.929   2.877   1.486 -0.0058 -0.8464  0.6099
 4434TIP3    H113308   2.881   2.857   1.566  0.1306  0.5409  1.0678
 4434TIP3    H213309   2.993   2.943   1.512  0.0707 -0.4074 -0.6284
 4435TIP3   OH213310   5.487   0.004   0.604  0.0260 -0.1178 -0.4294
 4435TIP3    H113311   5.460   0.024   0.694 -0.4989  2.9212 -1.1714
 4435TIP3    H213312   5.417   0.039   0.549  1.5731  0.4897 -2.1068
 4436TIP3   OH213313   1.242   4.610   1.540  0.0580  0.5394  0.7639
 4436TIP3    H113314   1.163   4.653   1.510 -1.0371 -2.4432 -1.0093
 4436TIP3    H213315   1.313   4.650   1.490 -1.0306 -0.2149 -1.4836
 4437TIP3   OH213316   5.434   4.242   4.620  0.0618  0.0511  0.4515
 4437TIP3    H113317   5.448   4.314   4.681  1.7635  0.9347 -0.8756
 4437TIP3    H213318   5.379   4.279   4.551  0.0174 -0.2596  0.3158
 4438TIP3   OH213319   1.320   4.051   2.908 -0.2671  0.2198 -0.0817
 4438TIP3    H113320   1.407   4.080   2.882  0.0915 -0.9399 -0.2386
 4438TIP3    H213321   1.297   4.108   2.981  0.5802  0.6091 -0.1046
 4439TIP3   OH213322   1.956   1.635   4.682 -0.5687 -0.6725 -0.1775
 4439TIP3    H113323   1.920   1.671   4.601  0.1514 -1.6563 -0.9570
 4439TIP3    H213324   1.890   1.572   4.711  0.6117 -2.7956 -1.8370
 4440TIP3   OH213325   0.391   5.142   2.739 -0.2159 -0.1731  0.2514
 4440TIP3    H113326   0.380   5.047   2.731  0.0113 -0.3973  2.2438
 4440TIP3    H213327   0.302   5.177   2.734 -0.2355 -0.3569 -1.4593
 4441TIP3   OH213328   5.985   3.286   2.292 -0.4917  0.1435 -0.6273
 4441TIP3    H113329   5.931   3.281   2.371 -0.0928 -1.8638 -0.4400
 4441TIP3    H213330   5.922   3.296   2.221 -1.0036 -0.2853 -0.2413
 4442TIP3   OH213331   1.681   0.146   3.955 -0.2752  0.2694  0.6801
 4442TIP3    H113332   1.699   0.158   4.048  1.2406  2.2372  0.2179
 4442TIP3    H213333   1.587   0.127   3.951 -0.8653  2.3379  2.5113
 4443TIP3   OH213334   1.014   0.111   3.890 -0.1882 -0.4431  0.1135
 4443TIP3    H113335   1.109   0.105   3.895 -0.0655 -0.6747 -1.6159
 4443TIP3    H213336   0.984   0.021   3.904 -0.0536 -0.5903 -0.4912
 4444TIP3   OH213337   1.437   4.983   0.472 -0.2558  0.3506  0.2329
 4444TIP3    H113338   1.383   4.979   0.551 -0.3468 -0.1144  0.1487
 4444TIP3    H213339   1.504   5.048   0.492 -0.5670  0.5902  0.5107
 4445TIP3   OH213340   2.853   0.816   4.952  0.0859 -0.4232 -0.3229
 4445TIP3    H113341   2.945   0.790   4.948  0.2466 -0.1378  0.9790
 4445TIP3    H213342   2.836   0.858   4.867  1.8380  1.6429  0.2490
 4446TIP3   OH213343   2.079   1.901   4.959  0.9647  0.1991  0.2059
 4446TIP3    H113344   2.158   1.852   4.982  1.0414  0.7935  1.2830
 4446TIP3    H213345   2.011   1.865   5.015  0.6632  0.2445 -0.1309
 4447TIP3   OH213346   4.270   5.298   1.351  0.1805  0.1035  0.3795
 4447TIP3    H113347   4.186   5.338   1.329  0.4429 -0.5480 -2.1870
 4447TIP3    H213348   4.247   5.210   1.382 -0.1374  0.2114  0.4518
 4448TIP3   OH213349   5.060   4.370   1.137 -0.3377  0.1206  0.2716
 4448TIP3    H113350   5.020   4.419   1.066  0.7141  1.8314  0.8031
 4448TIP3    H213351   5.047   4.424   1.215  0.5516 -0.5989  0.9569
 4449TIP3   OH213352   0.180   1.363   2.281  0.0812  0.2700 -0.3206
 4449TIP3    H113353   0.144   1.383   2.367 -0.2229  0.4406 -0.4855
 4449TIP3    H213354   0.270   1.396   2.284 -0.6573  2.5722 -0.8837
 4450TIP3   OH213355   0.710   5.625   3.483 -0.1818 -0.8468  0.6287
 4450TIP3    H113356   0.706   5.721   3.486 -2.6752 -0.6966 -2.2947
 4450TIP3    H213357   0.694   5.597   3.573  1.7238  1.4139  1.7710
 4451TIP3   OH213358   5.884   1.790   1.751 -0.2894 -0.4653  0.6350
 4451TIP3    H113359   5.954   1.735   1.717 -0.5905 -0.8494  0.6338
 4451TIP3    H213360   5.858   1.845   1.677  1.3866  1.1242  1.1623
 4452TIP3   OH213361   2.797   4.566   2.541 -0.8466  0.2860  0.5976
 4452TIP3    H113362   2.879   4.533   2.576 -0.1861  0.1496 -0.9814
 4452TIP3    H213363   2.743   4.488   2.527 -0.1789  0.0617 -0.9224
 4453TIP3   OH213364   0.065   0.108   5.121  0.0217 -0.2165 -0.6790
 4453TIP3    H113365  -0.002   0.062   5.171 -1.0000  0.6259 -1.2243
 4453TIP3    H213366   0.073   0.193   5.164 -0.0287  0.0766 -1.2375
 4454TIP3   OH213367   0.828   0.667   0.413  0.1445 -0.2598 -0.0176
 4454TIP3    H113368   0.870   0.735   0.362 -1.7491  1.0307  0.0519
 4454TIP3    H213369   0.863   0.678   0.502  0.9517 -0.3633 -0.3176
 4455TIP3   OH213370   6.346   4.529   0.081  0.2999 -0.6689 -0.0844
 4455TIP3    H113371   6.269   4.585   0.073 -0.1481 -1.0143  1.3888
 4455TIP3    H213372   6.334   4.462   0.014 -0.6695 -0.6727  0.0717
 4456TIP3   OH213373   5.940   1.762   4.050 -0.2103 -0.5921  0.1012
 4456TIP3    H113374   5.985   1.691   4.003  0.8302 -1.5905  2.4566
 4456TIP3    H213375   6.001   1.787   4.119 -0.9843  1.9928 -0.0783
 4457TIP3   OH213376   1.941   0.446   1.208  0.4764 -0.4775  0.1205
 4457TIP3    H113377   1.939   0.361   1.252 -0.1927 -0.3100  0.4067
 4457TIP3    H213378   1.923   0.510   1.276 -2.1449 -0.3161 -0.6319
 4458TIP3   OH213379   0.784   4.110   3.625 -0.4577 -0.5010  0.1975
 4458TIP3    H113380   0.737   4.181   3.667  1.1322  2.0653 -2.0591
 4458TIP3    H213381   0.833   4.069   3.696 -1.1548  0.8442  1.5184
 4459TIP3   OH213382   3.221   0.293   4.776 -0.1676  0.1617  0.4845
 4459TIP3    H113383   3.149   0.252   4.823 -2.1852  1.9213 -0.8986
 4459TIP3    H213384   3.264   0.348   4.841  0.1319 -1.0859  1.3809
 4460TIP3   OH213385   1.410   3.112   3.855 -0.7525 -0.5601  0.0957
 4460TIP3    H113386   1.379   3.097   3.765  1.4687 -0.8406 -0.6853
 4460TIP3    H213387   1.448   3.028   3.881  1.1887  0.3070  0.1817
 4461TIP3   OH213388   5.647   4.909   4.011  0.0459  0.4677 -0.6185
 4461TIP3    H113389   5.585   4.848   3.971 -0.4408  0.4652  0.1223
 4461TIP3    H213390   5.719   4.853   4.041 -0.3722  0.2473  0.0044
 4462TIP3   OH213391   1.308   3.138   4.121 -0.8768 -0.1900  0.1663
 4462TIP3    H113392   1.329   3.146   4.028 -3.1468  1.9601 -0.2714
 4462TIP3    H213393   1.294   3.044   4.134 -0.9283 -0.4992 -1.7706
 4463TIP3   OH213394   0.208   2.129   0.653 -0.2101 -0.1767  0.3770
 4463TIP3    H113395   0.166   2.049   0.686 -0.9936 -0.1210 -0.4183
 4463TIP3    H213396   0.255   2.100   0.575 -2.1110  0.4098 -1.0881
 4464TIP3   OH213397   0.919   3.522   2.082 -0.1628 -0.0653 -0.1935
 4464TIP3    H113398   0.860   3.597   2.073  0.1108  0.4079  1.5307
 4464TIP3    H213399   0.881   3.469   2.151 -0.2797 -1.4839 -1.3120
 4465TIP3   OH213400   0.573   4.184   2.190  0.0513 -0.3262  0.0778
 4465TIP3    H113401   0.507   4.115   2.193  1.0426 -1.2778  1.2050
 4465TIP3    H213402   0.656   4.138   2.204  0.5191  1.3290  4.2579
 4466TIP3   OH213403   1.026   2.766   1.022 -0.0052 -0.0715 -0.1184
 4466TIP3    H113404   1.097   2.711   1.054 -0.0185 -0.3334 -0.5271
 4466TIP3    H213405   1.021   2.838   1.085  1.3134  0.5187 -0.6410
 4467TIP3   OH213406   0.571   2.800   3.683  0.0486 -0.1996  0.7352
 4467TIP3    H113407   0.530   2.886   3.668  1.9115  0.7261  0.6401
 4467TIP3    H213408   0.622   2.785   3.604  0.8493 -0.7317  1.3448
 4468TIP3   OH213409   3.550   1.026   3.552  0.1608  0.0659 -0.1232
 4468TIP3    H113410   3.588   1.113   3.547  0.1395  0.1158  0.4852
 4468TIP3    H213411   3.486   1.032   3.624  1.0190 -0.7665  0.7478
 4469TIP3   OH213412   4.126   2.652   3.316 -0.0661  0.3179  0.4003
 4469TIP3    H113413   4.212   2.673   3.277 -0.0910  0.8063  0.5923
 4469TIP3    H213414   4.063   2.694   3.257 -0.1996 -0.3358  0.0664
 4470TIP3   OH213415   2.272   3.176   2.021  0.2345 -0.4455  1.1211
 4470TIP3    H113416   2.366   3.166   2.040  0.7096  0.5306 -0.5270
 4470TIP3    H213417   2.255   3.112   1.952  0.2247  0.8812 -0.1417
 4471TIP3   OH213418   4.394   2.768   3.143  0.0723 -0.1284  0.2110
 4471TIP3    H113419   4.360   2.768   3.053 -0.9517 -0.0622  0.5826
 4471TIP3    H213420   4.489   2.776   3.133  0.0357 -0.8927 -0.8868
 4472TIP3   OH213421   2.084   5.795   0.895 -0.7087  0.3941  0.3783
 4472TIP3    H113422   2.089   5.765   0.985  2.9622 -1.5782 -0.2670
 4472TIP3    H213423   2.042   5.724   0.847  1.2358 -0.5762 -0.0069
 4473TIP3   OH213424   5.603   1.026   2.899  0.2156 -0.0610 -1.0736
 4473TIP3    H113425   5.683   1.063   2.937  0.2368  0.6910 -1.8313
 4473TIP3    H213426   5.541   1.023   2.972  0.4092  0.9292 -0.8549
 4474TIP3   OH213427   5.051   4.165   2.692  0.4436 -0.4403 -0.1956
 4474TIP3    H113428   5.107   4.109   2.639  2.0132 -0.2480  1.1711
 4474TIP3    H213429   5.112   4.220   2.742 -0.9422 -0.2308  1.3772
 4475TIP3   OH213430   5.498   2.542   0.422  0.0882  0.1636 -0.0069
 4475TIP3    H113431   5.417   2.583   0.450  0.1980 -1.0577  2.4339
 4475TIP3    H213432   5.545   2.610   0.374 -1.8216  1.2640 -0.3826
 4476TIP3   OH213433   3.256   3.816   0.992  0.8279 -0.0773  0.6075
 4476TIP3    H113434   3.318   3.828   1.064 -0.0241 -0.2020  1.3871
 4476TIP3    H213435   3.170   3.828   1.032  0.3542  0.7375 -0.5750
 4477TIP3   OH213436   2.380   3.440   0.352  0.3207 -0.2122 -0.5256
 4477TIP3    H113437   2.356   3.488   0.274  0.8725 -0.6139 -0.9569
 4477TIP3    H213438   2.415   3.357   0.319 -0.0141 -0.6426  0.1698
 4478TIP3   OH213439   1.228   2.424   1.964 -0.6727  0.1730 -0.2686
 4478TIP3    H113440   1.308   2.478   1.963 -0.1778 -0.5470 -0.8343
 4478TIP3    H213441   1.163   2.478   1.920  0.0091  0.0469 -1.4763
 4479TIP3   OH213442   5.332   4.654   4.951 -0.0768  0.5854 -0.2663
 4479TIP3    H113443   5.254   4.625   4.904  0.0180 -0.5621  0.2466
 4479TIP3    H213444   5.375   4.716   4.892 -1.2390  1.0296 -0.6522
 4480TIP3   OH213445   2.673   3.426   0.204  0.0522 -0.2956 -0.1610
 4480TIP3    H113446   2.631   3.341   0.215 -0.9472  0.0424 -1.1540
 4480TIP3    H213447   2.723   3.439   0.284  2.8368 -3.2032 -1.2326
 4481TIP3   OH213448   4.326   0.479   0.563  0.0711 -0.6285  0.7453
 4481TIP3    H113449   4.375   0.419   0.619 -0.6506 -1.1448  0.8219
 4481TIP3    H213450   4.282   0.538   0.625  1.0278  0.1942  0.6660
 4482TIP3   OH213451   3.433   4.239   4.533  0.5175 -0.3727  0.4371
 4482TIP3    H113452   3.383   4.179   4.589 -2.9470  0.4254 -1.5149
 4482TIP3    H213453   3.397   4.325   4.553  2.6365  0.5814  0.3509
 4483TIP3   OH213454   1.915   0.542   3.383  0.5548 -0.1867 -0.4126
 4483TIP3    H113455   2.003   0.516   3.355  0.5150 -1.4330  0.5305
 4483TIP3    H213456   1.928   0.598   3.458  0.5555 -2.2791  1.2457
 4484TIP3   OH213457   0.810   2.018   1.941 -0.4941  0.7325 -0.4281
 4484TIP3    H113458   0.730   2.060   1.910 -0.3614 -0.5671 -2.7789
 4484TIP3    H213459   0.851   2.082   1.999 -1.7236  2.6293 -1.5726
 4485TIP3   OH213460   2.928   1.359   3.426  0.1373  0.2562 -0.0987
 4485TIP3    H113461   2.884   1.392   3.505  0.9651  1.6652 -0.2005
 4485TIP3    H213462   2.861   1.307   3.382 -0.3914 -0.4397  1.4363
 4486TIP3   OH213463   4.856   5.596   3.847 -0.4111 -0.3200 -1.0360
 4486TIP3    H113464   4.903   5.677   3.824 -0.5821 -0.2521 -1.1431
 4486TIP3    H213465   4.907   5.527   3.805  1.4583 -0.5906  1.4332
 4487TIP3   OH213466   3.895   3.998   4.190  0.2011 -0.3260 -0.3885
 4487TIP3    H113467   3.852   4.006   4.105 -0.5456 -0.1283  0.0027
 4487TIP3    H213468   3.980   4.041   4.178 -0.3073  0.5913 -0.7434
 4488TIP3   OH213469   5.139   2.982   2.327 -0.1922  0.1038 -0.0306
 4488TIP3    H113470   5.122   2.891   2.301  1.2818 -0.2090  0.0030
 4488TIP3    H213471   5.225   3.001   2.290 -0.3701  1.4128  0.1905
 4489TIP3   OH213472   3.972   1.015   4.182  0.0900 -0.2451 -0.1367
 4489TIP3    H113473   3.909   0.953   4.146  0.5189 -0.4335 -0.5667
 4489TIP3    H213474   3.993   1.073   4.108  1.2944 -0.8925 -0.3116
 4490TIP3   OH213475   1.175   3.452   2.635  0.0472 -0.0066  0.1195
 4490TIP3    H113476   1.085   3.474   2.657  0.6717  0.6513  2.2667
 4490TIP3    H213477   1.179   3.459   2.540 -1.5766  2.2273  0.1485
 4491TIP3   OH213478   6.226   3.691   2.471  0.3595  0.5924 -0.4828
 4491TIP3    H113479   6.246   3.642   2.551 -1.4290  2.2731  1.1055
 4491TIP3    H213480   6.151   3.646   2.433 -0.2831  1.1507  0.1064
 4492TIP3   OH213481   4.798   3.721   0.572 -0.0675  0.1467 -0.7054
 4492TIP3    H113482   4.878   3.729   0.624 -1.4714 -0.2386  1.6864
 4492TIP3    H213483   4.789   3.807   0.529  2.5401 -0.4131 -2.6068
 4493TIP3   OH213484   5.219   2.077   3.748  0.2216  0.0728  0.1872
 4493TIP3    H113485   5.242   1.987   3.771 -0.9158 -0.0065  1.1255
 4493TIP3    H213486   5.213   2.077   3.653 -1.4901 -1.3219  0.2396
 4494TIP3   OH213487   3.426   4.531   0.595  0.2427 -0.1027 -0.0062
 4494TIP3    H113488   3.428   4.523   0.499  0.4923 -1.0597  0.0693
 4494TIP3    H213489   3.498   4.475   0.625  0.6464  0.7827  0.7134
 4495TIP3   OH213490   5.673   1.110   2.072  0.1889 -0.3332 -0.6462
 4495TIP3    H113491   5.740   1.174   2.048 -1.3909  1.3567 -0.7982
 4495TIP3    H213492   5.612   1.159   2.128 -1.3143 -1.5783 -1.1197
 4496TIP3   OH213493   2.167   0.266   1.471  0.9398 -0.2505  0.1279
 4496TIP3    H113494   2.183   0.357   1.443  0.6113 -0.4122 -0.6203
 4496TIP3    H213495   2.240   0.217   1.433  0.1268 -0.5791 -1.0494
 4497TIP3   OH213496   0.487   3.555   4.013 -0.3325 -0.5998 -0.3156
 4497TIP3    H113497   0.407   3.544   4.064 -1.0359  0.1772 -1.2206
 4497TIP3    H213498   0.536   3.474   4.028 -0.0524 -0.0279  2.3312
 4498TIP3   OH213499   5.246   1.326   2.523 -0.0953  0.0852  0.1278
 4498TIP3    H113500   5.233   1.351   2.432  0.2357 -0.6302 -0.1183
 4498TIP3    H213501   5.170   1.270   2.543  0.8152 -1.3511 -0.3051
 4499TIP3   OH213502   2.697   1.853   3.784 -0.1267 -0.1258  0.1249
 4499TIP3    H113503   2.715   1.891   3.698 -1.0145 -0.2781 -0.1381
 4499TIP3    H213504   2.783   1.826   3.817  0.4706  1.6513  0.1055
 4500TIP3   OH213505   3.152   2.834   0.792  0.1280 -0.0405  0.3451
 4500TIP3    H113506   3.181   2.925   0.788  1.3873 -0.2935  2.5126
 4500TIP3    H213507   3.057   2.840   0.806  0.4175  1.0433  2.2500
 4501TIP3   OH213508   2.986   4.723   3.413 -0.3680 -0.6084  0.2210
 4501TIP3    H113509   3.065   4.705   3.464  0.8987  0.2462 -1.3090
 4501TIP3    H213510   2.930   4.648   3.428  0.5247 -1.0160  1.7480
 4502TIP3   OH213511   4.156   1.794   4.180 -0.0834  0.3237  0.7566
 4502TIP3    H113512   4.176   1.700   4.185  1.5927  0.6940  1.7572
 4502TIP3    H213513   4.176   1.827   4.267 -4.5258  1.0029  1.7813
 4503TIP3   OH213514   6.210   1.088   3.556 -0.3382  0.7071 -0.1361
 4503TIP3    H113515   6.127   1.059   3.594  0.2388  0.7932  1.2575
 4503TIP3    H213516   6.187   1.117   3.468 -1.1345 -2.9193 -1.2957
 4504TIP3   OH213517   4.414   3.165   3.166 -0.4018 -0.8001  0.2529
 4504TIP3    H113518   4.430   3.177   3.072 -1.1483 -1.1315  0.0735
 4504TIP3    H213519   4.428   3.251   3.205 -0.1112 -0.6569 -0.1649
 4505TIP3   OH213520   3.602   2.063   1.565 -0.1716 -0.6589  0.5253
 4505TIP3    H113521   3.519   2.082   1.521 -0.3942 -0.6962  0.9217
 4505TIP3    H213522   3.663   2.042   1.494  0.2793  2.1287 -0.0258
 4506TIP3   OH213523   3.916   1.111   3.003  0.0998  0.0041  0.1360
 4506TIP3    H113524   4.002   1.088   2.966  0.2550 -0.5468  0.8115
 4506TIP3    H213525   3.885   1.029   3.042 -2.3932 -0.8415 -3.2040
 4507TIP3   OH213526   3.669   5.332   4.841 -0.0073 -0.0901 -0.1494
 4507TIP3    H113527   3.666   5.299   4.751 -0.6095  0.4630 -0.3403
 4507TIP3    H213528   3.716   5.415   4.834 -2.3719  1.3223 -0.4265
 4508TIP3   OH213529   0.700   0.438   0.549  0.2051 -0.2607 -0.2039
 4508TIP3    H113530   0.731   0.489   0.624  1.7435 -0.1738 -0.8624
 4508TIP3    H213531   0.645   0.499   0.500 -0.7624 -0.3005  0.8039
 4509TIP3   OH213532   4.662   5.544   0.201  0.2368 -0.3733 -0.1507
 4509TIP3    H113533   4.697   5.545   0.112  0.6256 -0.8918 -0.0118
 4509TIP3    H213534   4.571   5.515   0.190  1.0704 -3.3698 -0.1695
 4510TIP3   OH213535   1.211   4.101   0.250  0.3824 -0.4887 -0.3270
 4510TIP3    H113536   1.117   4.111   0.237  0.3801 -0.4397 -0.2721
 4510TIP3    H213537   1.241   4.056   0.171  0.7620  1.9310 -1.6572
 4511TIP3   OH213538   1.877   0.802   2.876  0.0265  0.1110 -1.1187
 4511TIP3    H113539   1.825   0.874   2.914  0.7911  1.0732 -1.8384
 4511TIP3    H213540   1.886   0.825   2.784 -0.9547 -1.6881 -1.7124
 4512TIP3   OH213541   4.337   5.752   2.671 -0.3986 -0.3656 -0.7186
 4512TIP3    H113542   4.397   5.788   2.606 -0.0704 -0.4905 -0.4868
 4512TIP3    H213543   4.386   5.682   2.713 -0.5563 -0.1852 -0.2260
 4513TIP3   OH213544   6.218   2.451   2.326  0.3793 -0.8670 -0.4549
 4513TIP3    H113545   6.135   2.423   2.364 -0.1444 -1.5388 -2.0184
 4513TIP3    H213546   6.214   2.547   2.329 -1.8283 -0.7423 -3.1387
 4514TIP3   OH213547   3.404   4.252   0.380 -0.2872  0.0658 -0.4481
 4514TIP3    H113548   3.457   4.172   0.381 -0.4893 -0.0717  0.5490
 4514TIP3    H213549   3.466   4.322   0.359 -0.0981 -0.3427 -1.2819
 4515TIP3   OH213550   3.605   4.841   1.230  0.3380  0.0392  0.1805
 4515TIP3    H113551   3.623   4.800   1.315  2.3557 -0.1616 -0.2890
 4515TIP3    H213552   3.551   4.777   1.183 -0.1943 -0.1555  1.0432
 4516TIP3   OH213553   5.610   1.388   2.759 -0.3862  0.3978 -0.0612
 4516TIP3    H113554   5.658   1.322   2.708  1.2423  0.4268  1.3421
 4516TIP3    H213555   5.520   1.356   2.762  0.4595 -2.1223  1.0420
 4517TIP3   OH213556   4.920   1.198   3.539 -0.2635 -0.3238  0.1931
 4517TIP3    H113557   4.855   1.189   3.609 -1.6528 -1.9429 -1.2157
 4517TIP3    H213558   4.937   1.292   3.535 -1.7873  0.0418  1.2829
 4518TIP3   OH213559   1.942   2.342   0.035  0.4154  0.2120  0.0792
 4518TIP3    H113560   1.862   2.375   0.077  0.2626 -0.1292  0.0615
 4518TIP3    H213561   1.911   2.274  -0.025  0.4368  1.8174 -1.8669
 4519TIP3   OH213562   4.336   5.915   0.070  0.0886  0.3047 -0.0086
 4519TIP3    H113563   4.263   5.964   0.108 -0.0649 -1.1644  1.7552
 4519TIP3    H213564   4.368   5.861   0.143  1.4918 -0.7336 -1.3471
 4520TIP3   OH213565   0.523   5.556   0.065  0.5418  0.3134  0.3061
 4520TIP3    H113566   0.467   5.517  -0.002 -0.1786 -0.7858  1.5067
 4520TIP3    H213567   0.489   5.644   0.078  1.6866  1.1402 -1.8735
 4521TIP3   OH213568   3.532   3.004   0.621  0.0689 -0.0305 -0.3763
 4521TIP3    H113569   3.601   3.040   0.565 -0.1529  1.9106  0.5333
 4521TIP3    H213570   3.452   3.049   0.593  0.0486  1.4547  1.8385
 4522TIP3   OH213571   0.095   1.599   3.593  0.3212 -0.1488  0.4996
 4522TIP3    H113572   0.136   1.514   3.575 -1.1904 -0.9311  0.5059
 4522TIP3    H213573   0.156   1.644   3.652  0.1403 -2.1827  2.3801
 4523TIP3   OH213574   1.676   2.787   5.084  0.6510  0.2940  0.5165
 4523TIP3    H113575   1.676   2.779   5.180 -1.0569 -3.0988  0.3762
 4523TIP3    H213576   1.756   2.743   5.056  0.4924  0.1373  0.3100
 4524TIP3   OH213577   4.080   4.676   1.293  0.3811  0.3990  0.0121
 4524TIP3    H113578   4.097   4.583   1.282  1.9333  0.4569  1.5541
 4524TIP3    H213579   3.994   4.689   1.252 -0.4668 -1.9390  0.8769
 4525TIP3   OH213580   4.067   2.374   1.729 -0.3819  0.0597 -0.6123
 4525TIP3    H113581   4.142   2.319   1.753 -0.4453  0.3473  0.3201
 4525TIP3    H213582   4.086   2.458   1.771 -0.6038  0.5386 -1.4663
 4526TIP3   OH213583   5.441   0.987   4.978 -0.2466 -0.2931 -0.2303
 4526TIP3    H113584   5.451   0.901   4.938 -1.6058 -0.6074  0.0688
 4526TIP3    H213585   5.442   1.049   4.905  0.9271 -0.5259 -0.4299
 4527TIP3   OH213586   3.227   4.294   1.756  0.3675 -0.0485  0.2781
 4527TIP3    H113587   3.318   4.265   1.747  0.7928  0.7708  1.6430
 4527TIP3    H213588   3.180   4.217   1.787  1.0154  0.0330  1.5425
 4528TIP3   OH213589   6.128   4.389   3.155  0.2884  0.4230  0.1181
 4528TIP3    H113590   6.171   4.303   3.159  1.6309  1.1272  2.3229
 4528TIP3    H213591   6.199   4.450   3.136 -0.1373  1.3300  1.3572
 4529TIP3   OH213592   2.012   4.239   4.886 -0.0168  0.4084 -0.2082
 4529TIP3    H113593   1.967   4.197   4.959  0.1122 -0.6371 -0.6987
 4529TIP3    H213594   1.965   4.321   4.872 -0.3724  0.3690  0.6959
 4530TIP3   OH213595   1.627   2.270   4.474 -0.7107 -0.2109 -0.3499
 4530TIP3    H113596   1.717   2.242   4.492 -0.2983  0.6844 -0.9497
 4530TIP3    H213597   1.576   2.189   4.474  0.4311 -0.9776 -1.9923
 4531TIP3   OH213598   5.175   3.433   5.100  0.8250  0.0916 -0.0625
 4531TIP3    H113599   5.208   3.454   5.013  1.3559  0.8189  0.3120
 4531TIP3    H213600   5.099   3.376   5.084  1.3622 -0.3790 -0.9718
 4532TIP3   OH213601   4.290   3.404   2.318 -0.0123 -0.0019  0.4851
 4532TIP3    H113602   4.289   3.499   2.312  0.1587 -0.0163  0.2050
 4532TIP3    H213603   4.257   3.385   2.406 -0.0720  0.3133  0.5320
 4533TIP3   OH213604   1.847   2.377   2.849  0.4322  0.3635  0.0828
 4533TIP3    H113605   1.875   2.379   2.758  0.1582 -0.1995 -0.0158
 4533TIP3    H213606   1.803   2.292   2.859  5.0873 -2.2080  2.0396
 4534TIP3   OH213607   1.204   1.305   1.316  0.0579 -0.2001  0.5028
 4534TIP3    H113608   1.213   1.330   1.408 -0.8689  1.1762  0.2551
 4534TIP3    H213609   1.287   1.331   1.276 -0.5297  1.7671  0.4448
 4535TIP3   OH213610   4.192   0.673   4.389  0.6393  0.4985  0.0871
 4535TIP3    H113611   4.149   0.726   4.456 -0.2941 -0.1288  0.0020
 4535TIP3    H213612   4.216   0.736   4.321 -0.7958  0.7956 -0.1894
 4536TIP3   OH213613   1.012   2.794   1.801 -1.1752 -0.5252 -0.5716
 4536TIP3    H113614   0.989   2.719   1.856  0.0887 -0.9197 -0.5555
 4536TIP3    H213615   1.003   2.869   1.860 -2.2259 -0.6677 -0.5262
 4537TIP3   OH213616   2.871   4.993   1.823 -0.4242 -0.1521 -0.3025
 4537TIP3    H113617   2.841   4.905   1.799  1.0759 -0.6690 -0.4031
 4537TIP3    H213618   2.966   4.989   1.815 -0.2368  1.1569  0.8138
 4538TIP3   OH213619   3.319   2.580   4.597 -0.6549 -0.4100  0.0344
 4538TIP3    H113620   3.400   2.564   4.646 -0.7761  2.0938  1.2148
 4538TIP3    H213621   3.249   2.565   4.660 -1.2005 -2.6416 -1.0050
 4539TIP3   OH213622   4.270   4.319   4.201  0.0067  0.6134 -0.4541
 4539TIP3    H113623   4.231   4.236   4.229  0.8506  1.3361  3.4751
 4539TIP3    H213624   4.197   4.368   4.164 -1.4847 -0.3135  1.0996
 4540TIP3   OH213625   2.229   2.787   2.834 -0.0853  0.0813 -0.0935
 4540TIP3    H113626   2.255   2.878   2.849 -0.5959 -0.1887  3.1465
 4540TIP3    H213627   2.220   2.780   2.738 -0.2356  3.4599 -0.4508
 4541TIP3   OH213628   4.042   4.065   4.600  0.2680  0.0040  0.9723
 4541TIP3    H113629   3.960   4.017   4.590  0.3307  0.0978 -0.1384
 4541TIP3    H213630   4.102   4.003   4.642 -0.8245  0.4695  3.3984
 4542TIP3   OH213631   0.963   3.637   0.199  0.5742  0.1408 -0.1418
 4542TIP3    H113632   0.907   3.592   0.263  1.9610 -1.9145 -0.2800
 4542TIP3    H213633   0.973   3.573   0.128  0.7701  1.5878 -1.4545
 4543TIP3   OH213634   4.961   3.488   3.270  0.2493 -0.2169 -0.3546
 4543TIP3    H113635   4.878   3.464   3.229 -0.1677  0.0098  0.3328
 4543TIP3    H213636   4.940   3.496   3.363  1.3468 -1.5035  0.0349
 4544TIP3   OH213637   5.242   3.546   1.281 -0.0282  0.3569 -0.2203
 4544TIP3    H113638   5.243   3.539   1.377 -0.4476 -1.2959 -0.3184
 4544TIP3    H213639   5.150   3.564   1.259  0.1052  0.9497 -0.3082
 4545TIP3   OH213640   2.824   1.397   0.761  0.1541 -0.4402  0.2909
 4545TIP3    H113641   2.882   1.320   0.756 -0.8554 -1.3586  1.9678
 4545TIP3    H213642   2.865   1.453   0.827  0.5061  0.1578 -0.4211
 4546TIP3   OH213643   2.810   0.752   0.671 -0.1789 -0.0440  0.1331
 4546TIP3    H113644   2.817   0.752   0.767  3.2274  1.7575  0.0288
 4546TIP3    H213645   2.733   0.806   0.653 -2.4949 -2.5245  1.7441
 4547TIP3   OH213646   0.490   5.864   4.594 -0.2586 -0.4962 -0.0489
 4547TIP3    H113647   0.548   5.925   4.640  0.4034 -1.2411  0.1136
 4547TIP3    H213648   0.547   5.793   4.566 -0.0082  1.1575 -4.5578
 4548TIP3   OH213649   5.695   1.656   2.839 -0.4797  0.0903  0.8494
 4548TIP3    H113650   5.641   1.734   2.827  0.0370  0.4127  0.5761
 4548TIP3    H213651   5.638   1.583   2.813 -0.8800  0.3953  0.8548
 4549TIP3   OH213652   4.551   3.866   1.947  0.0885 -0.3053  0.4199
 4549TIP3    H113653   4.489   3.875   1.874  2.0692  0.9383 -1.2264
 4549TIP3    H213654   4.533   3.942   2.003 -0.0767 -0.1186  0.1144
 4550TIP3   OH213655   2.249   3.046   4.850  0.2676 -0.2943 -0.2917
 4550TIP3    H113656   2.232   2.968   4.797 -0.3975  0.6290 -1.5073
 4550TIP3    H213657   2.178   3.047   4.914  0.0046 -0.4380 -0.5746
 4551TIP3   OH213658   0.708   1.292   0.583 -0.1273  0.1633  0.0832
 4551TIP3    H113659   0.715   1.212   0.530  1.0259  1.0378 -1.1336
 4551TIP3    H213660   0.645   1.269   0.652  1.4447 -2.3826  0.8287
 4552TIP3   OH213661   3.792   4.029   3.955  0.0777  0.6011  0.0611
 4552TIP3    H113662   3.768   4.030   3.862  0.1287 -0.0672  0.0375
 4552TIP3    H213663   3.807   4.121   3.976  0.3074  0.7370 -0.6567
 4553TIP3   OH213664   0.833   2.902   2.818  0.0197  0.2290  0.3482
 4553TIP3    H113665   0.910   2.925   2.764  1.4469 -2.0565  1.2788
 4553TIP3    H213666   0.830   2.971   2.884  0.2799  1.2356 -0.6490
 4554TIP3   OH213667   2.301   4.673   1.047 -0.7347 -0.0518  0.2320
 4554TIP3    H113668   2.308   4.608   0.977  0.2710  0.7919 -0.4878
 4554TIP3    H213669   2.389   4.711   1.054 -0.8708  0.0516  1.8032
 4555TIP3   OH213670   2.981   0.100   3.613 -0.0262  0.2985  0.1333
 4555TIP3    H113671   2.920   0.164   3.648 -1.7227 -1.4064  0.4037
 4555TIP3    H213672   3.054   0.099   3.675 -0.5765  1.0115  0.8013
 4556TIP3   OH213673   1.131   3.558   4.556 -0.1062  0.1295 -0.5129
 4556TIP3    H113674   1.105   3.490   4.494 -0.8809  0.9313 -1.0968
 4556TIP3    H213675   1.111   3.521   4.642  0.7540 -0.9025 -0.7310
 4557TIP3   OH213676   4.695   5.822   1.042  0.3491  0.3406  0.3757
 4557TIP3    H113677   4.643   5.744   1.063  0.1361  0.5153  0.5083
 4557TIP3    H213678   4.783   5.789   1.027  0.2785  0.0839  0.5172
 4558TIP3   OH213679   5.561   2.181   0.823  0.0754 -0.0085 -0.1173
 4558TIP3    H113680   5.543   2.217   0.736  0.7895 -1.3915 -0.8769
 4558TIP3    H213681   5.650   2.211   0.843  0.5361 -1.0173 -0.5978
 4559TIP3   OH213682   0.708   5.062   2.641  0.0080 -0.7860  0.6101
 4559TIP3    H113683   0.621   5.023   2.639 -0.2583 -0.2462  1.2043
 4559TIP3    H213684   0.744   5.038   2.726  0.5647 -1.2620  0.2434
 4560TIP3   OH213685   4.719   4.827   2.058  0.0130 -0.1328 -0.6122
 4560TIP3    H113686   4.751   4.757   2.116  0.5857  0.7174  0.1244
 4560TIP3    H213687   4.686   4.781   1.981 -0.6759 -1.2973  0.3369
 4561TIP3   OH213688   4.084   5.046   3.826  0.0058 -0.4878  0.4560
 4561TIP3    H113689   4.149   5.054   3.895  0.2236  0.9498  0.1051
 4561TIP3    H213690   4.009   5.005   3.869  0.4341 -0.3783  1.3331
 4562TIP3   OH213691   2.165   2.852   4.681 -0.4326 -0.0129  0.0809
 4562TIP3    H113692   2.154   2.791   4.608  0.3949  1.4653 -1.3515
 4562TIP3    H213693   2.085   2.904   4.683 -0.8929 -0.7226  0.9293
 4563TIP3   OH213694   5.030   3.833   2.836  0.0850  0.2531 -0.2225
 4563TIP3    H113695   4.980   3.890   2.895 -0.2757 -1.0302  0.7585
 4563TIP3    H213696   5.020   3.874   2.750 -0.6617  1.3375  0.3456
 4564TIP3   OH213697   1.159   5.673   1.126 -0.0632  0.4965  0.0847
 4564TIP3    H113698   1.195   5.740   1.068  1.2201  0.3018  0.6129
 4564TIP3    H213699   1.078   5.711   1.160  0.8081  1.9392  0.6433
 4565TIP3   OH213700   3.910   0.769   0.092  0.3585  0.8201 -0.0641
 4565TIP3    H113701   3.955   0.826   0.029  1.1208  0.1533 -0.1425
 4565TIP3    H213702   3.980   0.737   0.149  0.0665 -0.6177 -0.4831
 4566TIP3   OH213703   0.542   3.981   1.591 -0.3001  0.0100 -0.3209
 4566TIP3    H113704   0.538   4.075   1.606 -0.3714 -0.0704  0.1851
 4566TIP3    H213705   0.537   3.972   1.496  0.2594  0.5405 -0.4089
 4567TIP3   OH213706   0.761   2.074   2.267  0.3784  0.0127 -0.4017
 4567TIP3    H113707   0.683   2.083   2.322  0.9695 -0.6990  0.5966
 4567TIP3    H213708   0.727   2.062   2.179 -0.5926  1.7640 -0.3109
 4568TIP3   OH213709   2.949   1.730   3.072  0.3614 -0.2958 -0.4868
 4568TIP3    H113710   3.025   1.696   3.118  0.9559  0.0549 -1.1966
 4568TIP3    H213711   2.874   1.703   3.126  0.9898 -0.5276  0.2818
 4569TIP3   OH213712   0.086   5.293   0.181 -0.3273 -0.4601 -0.0731
 4569TIP3    H113713   0.181   5.284   0.167 -0.5436 -1.4246 -1.1118
 4569TIP3    H213714   0.057   5.205   0.206 -0.8031  0.0754  1.3296
 4570TIP3   OH213715   2.999   4.182   0.769  0.1652  0.5593  0.0799
 4570TIP3    H113716   3.061   4.255   0.767  0.8611  0.0070 -2.3946
 4570TIP3    H213717   2.928   4.209   0.710 -1.0239  0.3668  1.3571
 4571TIP3   OH213718   6.286   2.667   1.182 -0.2383 -0.4507 -0.3849
 4571TIP3    H113719   6.379   2.659   1.203 -0.0005  2.0022 -0.1312
 4571TIP3    H213720   6.248   2.708   1.259 -0.9833  1.0018 -1.4691
 4572TIP3   OH213721   1.964   5.853   3.464  0.1078  0.8876  0.0145
 4572TIP3    H113722   1.909   5.806   3.402 -0.5252  1.6057  0.0258
 4572TIP3    H213723   1.916   5.934   3.483  1.4986  1.8737 -0.5311
 4573TIP3   OH213724   5.337   2.229   0.168  0.0318  0.2978 -0.3607
 4573TIP3    H113725   5.418   2.248   0.119 -0.5703  1.1812 -1.0435
 4573TIP3    H213726   5.332   2.133   0.168 -0.5749  0.2451 -3.1734
 4574TIP3   OH213727   2.328   2.637   3.411 -0.6299 -0.5632 -0.0207
 4574TIP3    H113728   2.333   2.711   3.471  1.6264 -1.0901  0.5194
 4574TIP3    H213729   2.357   2.672   3.327 -1.3101 -0.4333 -0.2089
 4575TIP3   OH213730   1.443   0.483   4.856 -0.2061  0.9772  0.3097
 4575TIP3    H113731   1.464   0.531   4.776 -1.7962 -0.5688 -1.1057
 4575TIP3    H213732   1.415   0.551   4.918  1.2981  2.2216 -0.2936
 4576TIP3   OH213733   2.153   4.563   1.652  0.3673 -0.1578  0.1122
 4576TIP3    H113734   2.144   4.562   1.557 -0.8321  1.0381  0.1708
 4576TIP3    H213735   2.186   4.476   1.674  1.2345 -0.2589 -1.4367
 4577TIP3   OH213736   3.076   0.597   0.200  0.0798 -0.8966  0.2672
 4577TIP3    H113737   2.988   0.617   0.231  0.5081 -1.0716  1.6772
 4577TIP3    H213738   3.064   0.570   0.109 -1.2582 -0.4630  0.2908
 4578TIP3   OH213739   1.180   5.183   1.754 -0.8905 -0.8374 -0.4096
 4578TIP3    H113740   1.098   5.222   1.724  0.2838  0.0600 -2.7069
 4578TIP3    H213741   1.154   5.099   1.791 -2.8482 -0.5637 -1.0263
 4579TIP3   OH213742   2.562   0.942   4.618  0.2127 -0.0417  0.5095
 4579TIP3    H113743   2.508   0.951   4.697  1.9163  1.2740  1.5981
 4579TIP3    H213744   2.650   0.965   4.647  1.1343 -0.8065 -1.5140
 4580TIP3   OH213745   0.784   4.764   2.709  0.7144  0.5520  0.2351
 4580TIP3    H113746   0.699   4.790   2.674  0.2780 -0.5971  0.3858
 4580TIP3    H213747   0.842   4.762   2.633 -0.1610 -1.6800 -0.4358
 4581TIP3   OH213748   3.907   2.351   1.109  0.2098 -0.1943  0.1660
 4581TIP3    H113749   3.917   2.336   1.015  2.0070 -2.8303  0.6695
 4581TIP3    H213750   3.915   2.446   1.118  1.4405  0.0195 -2.1938
 4582TIP3   OH213751   2.640   2.959   3.743  0.2039 -0.1009 -0.3915
 4582TIP3    H113752   2.724   2.968   3.788  0.3569  0.9532 -0.8635
 4582TIP3    H213753   2.653   3.002   3.659 -1.2388  1.4193  0.1073
 4583TIP3   OH213754   1.810   1.151   3.456  0.3445 -0.4025 -0.3140
 4583TIP3    H113755   1.798   1.108   3.541 -1.1252  2.7126  1.2172
 4583TIP3    H213756   1.841   1.239   3.478 -1.3499  0.9529 -2.9059
 4584TIP3   OH213757   2.817   4.090   0.981 -0.1955  0.0712  1.1918
 4584TIP3    H113758   2.813   4.181   1.012 -1.1174  0.4086  0.1386
 4584TIP3    H213759   2.882   4.092   0.911  1.6391 -0.6239  2.7792
 4585TIP3   OH213760   1.184   3.560   0.425  0.0836 -0.1812 -0.8283
 4585TIP3    H113761   1.242   3.560   0.349  1.9111 -0.0248  0.5028
 4585TIP3    H213762   1.182   3.651   0.454 -1.5307 -0.0298 -1.3275
 4586TIP3   OH213763   2.315   2.030   3.334 -0.3454 -0.3465 -0.2885
 4586TIP3    H113764   2.246   2.005   3.395 -0.9487 -1.1846 -1.2804
 4586TIP3    H213765   2.273   2.029   3.248  0.6367  0.1984 -0.7967
 4587TIP3   OH213766   6.369   0.767   1.345  0.2196 -0.1486 -0.2884
 4587TIP3    H113767   6.387   0.682   1.386  0.7568 -0.5014 -1.2128
 4587TIP3    H213768   6.274   0.775   1.346  0.2235  0.0101  1.2971
 4588TIP3   OH213769   3.297   0.766   5.157 -0.2477  0.6403  0.1049
 4588TIP3    H113770   3.241   0.751   5.081  0.3762 -0.2910 -0.1824
 4588TIP3    H213771   3.365   0.699   5.151  0.0593  0.8224  1.2548
 4589TIP3   OH213772   5.920   2.233   1.314  0.3419 -0.4236 -0.2808
 4589TIP3    H113773   5.974   2.301   1.275 -0.5670  0.7714  0.4874
 4589TIP3    H213774   5.919   2.253   1.408  0.8451 -2.0700  0.1071
 4590TIP3   OH213775   1.528   5.604   2.924 -0.0213 -0.7119 -0.0141
 4590TIP3    H113776   1.548   5.642   2.839  0.0992 -1.0964 -0.1636
 4590TIP3    H213777   1.545   5.674   2.987 -0.1903 -0.4004 -0.3139
 4591TIP3   OH213778   0.109   3.999   1.545  0.4482  0.0459  0.4739
 4591TIP3    H113779   0.129   4.091   1.528  2.1640 -0.7667 -2.4466
 4591TIP3    H213780   0.192   3.961   1.572 -0.0432 -0.8576  0.7559
 4592TIP3   OH213781   0.719   2.361   2.208 -0.5323  0.1960 -0.2386
 4592TIP3    H113782   0.667   2.442   2.203 -1.3235 -0.2624  0.2285
 4592TIP3    H213783   0.668   2.305   2.267  0.6123 -0.1939  0.4128
 4593TIP3   OH213784   0.269   1.850   0.790 -0.0863  0.5379  0.1658
 4593TIP3    H113785   0.270   1.769   0.841  1.9995  0.3896 -0.0389
 4593TIP3    H213786   0.213   1.830   0.715  0.5370 -0.7800  0.0261
 4594TIP3   OH213787   1.072   5.395   2.181  0.7566 -0.1271  0.0617
 4594TIP3    H113788   0.988   5.371   2.221  0.8811 -0.6340  0.0188
 4594TIP3    H213789   1.048   5.443   2.102  0.5085 -0.6649 -0.1879
 4595TIP3   OH213790   1.323   4.473   4.461 -0.0806  0.1675 -0.1198
 4595TIP3    H113791   1.341   4.427   4.543  1.7756  1.6259  0.3784
 4595TIP3    H213792   1.328   4.405   4.394 -0.5198 -0.8654  0.8697
 4596TIP3   OH213793   6.052   1.618   1.401 -0.0472  0.5008 -0.3000
 4596TIP3    H113794   5.958   1.620   1.383 -0.2644  0.3494  0.7698
 4596TIP3    H213795   6.093   1.629   1.315 -1.0395  0.7637 -0.7515
 4597TIP3   OH213796   2.503   3.198   0.273 -0.3151  0.4334  0.4764
 4597TIP3    H113797   2.486   3.151   0.192  4.0483 -0.0433 -0.3887
 4597TIP3    H213798   2.462   3.145   0.341 -1.0119 -1.1177 -1.0891
 4598TIP3   OH213799   5.793   1.295   4.914  0.1000  0.4842 -0.0473
 4598TIP3    H113800   5.710   1.344   4.911  0.3047  0.8481  0.1514
 4598TIP3    H213801   5.783   1.237   4.990 -0.3088 -0.0949 -0.5288
 4599TIP3   OH213802   5.850   2.672   3.728  0.3731 -0.1968 -0.6948
 4599TIP3    H113803   5.820   2.602   3.786  2.8889 -2.2792 -1.6954
 4599TIP3    H213804   5.794   2.665   3.650 -0.1229 -0.3222 -0.3303
 4600TIP3   OH213805   2.579   5.740   0.724 -0.6258  0.1043 -0.3884
 4600TIP3    H113806   2.626   5.777   0.798 -1.2023 -0.7039  0.4029
 4600TIP3    H213807   2.487   5.758   0.743 -0.7493  0.2837 -1.1327
 4601TIP3   OH213808   5.830   5.675   1.697  0.2214 -0.4143 -0.2064
 4601TIP3    H113809   5.838   5.676   1.792  0.6611  0.8926 -0.2253
 4601TIP3    H213810   5.890   5.744   1.668 -0.3520 -0.3885 -1.3912
 4602TIP3   OH213811   1.887   4.504   2.482 -0.4646 -0.1563 -0.6029
 4602TIP3    H113812   1.819   4.554   2.528  0.2740 -0.1900  0.5630
 4602TIP3    H213813   1.895   4.422   2.531  0.4505 -0.1276 -0.6764
 4603TIP3   OH213814   3.972   2.813   0.319 -0.3574 -0.0947 -0.2546
 4603TIP3    H113815   3.908   2.744   0.305 -2.0528  0.7928  2.3521
 4603TIP3    H213816   3.925   2.894   0.300  1.4068  0.4872 -2.6232
 4604TIP3   OH213817   2.054   5.479   4.823 -0.1742  0.1242  0.3506
 4604TIP3    H113818   2.040   5.386   4.807 -1.6215  0.3757  0.0632
 4604TIP3    H213819   2.087   5.513   4.740 -1.8488  0.2719 -0.3035
 4605TIP3   OH213820   3.445   4.368   1.050  0.3594 -0.1891  0.0935
 4605TIP3    H113821   3.358   4.392   1.081  1.2421 -0.1277  2.7329
 4605TIP3    H213822   3.498   4.447   1.064  1.3110 -0.8973  0.6081
 4606TIP3   OH213823   1.439   1.775   1.995  0.0655 -0.0825  0.1628
 4606TIP3    H113824   1.414   1.725   2.073  0.4213 -0.2490  0.1737
 4606TIP3    H213825   1.516   1.729   1.961  0.4544  0.5119  0.2272
 4607TIP3   OH213826   0.038   5.667   4.532 -0.0608 -0.0302 -0.3363
 4607TIP3    H113827   0.036   5.655   4.626 -1.4844 -0.4142 -0.3933
 4607TIP3    H213828   0.052   5.580   4.496  2.1910  0.3222 -0.4862
 4608TIP3   OH213829   4.810   4.120   1.703 -1.0282  0.0043 -0.2759
 4608TIP3    H113830   4.858   4.164   1.633 -1.7273 -1.7812 -1.9795
 4608TIP3    H213831   4.753   4.188   1.740  0.1961  1.2606 -0.6388
 4609TIP3   OH213832   0.099   1.379   0.404  0.0233  0.3597 -0.4693
 4609TIP3    H113833   0.124   1.296   0.363 -0.3849 -0.2481  0.4829
 4609TIP3    H213834   0.019   1.406   0.359 -0.8045 -0.6489  0.3711
 4610TIP3   OH213835   0.202   3.719   0.932 -0.4958  0.5702  0.1748
 4610TIP3    H113836   0.208   3.812   0.952  0.9895  0.4551  0.3491
 4610TIP3    H213837   0.223   3.675   1.015  0.7249  0.0996 -0.3590
 4611TIP3   OH213838   1.052   0.062   4.503 -0.0661 -0.4730  0.3426
 4611TIP3    H113839   1.021  -0.016   4.550  2.2932 -2.0511 -0.5131
 4611TIP3    H213840   1.081   0.028   4.418 -2.5349  2.0048 -1.6452
 4612TIP3   OH213841   3.613   5.502   0.921  0.3420 -0.0854  0.3005
 4612TIP3    H113842   3.615   5.471   0.830 -1.9134 -1.7889  0.7424
 4612TIP3    H213843   3.551   5.575   0.920 -0.9817 -1.1632  0.6958
 4613TIP3   OH213844   2.928   0.335   0.474 -0.2315 -0.2651  0.1849
 4613TIP3    H113845   2.844   0.319   0.432 -0.2070  1.1417 -0.4751
 4613TIP3    H213846   2.993   0.302   0.412 -0.2761 -1.1297  0.5861
 4614TIP3   OH213847   1.465   1.315   3.654  0.1570 -0.2095 -0.7121
 4614TIP3    H113848   1.425   1.305   3.568 -1.1136  0.5774 -0.2500
 4614TIP3    H213849   1.484   1.226   3.682  0.4882 -0.4796 -1.7536
 4615TIP3   OH213850   5.491   5.200   3.699 -0.2561  0.0067 -0.3282
 4615TIP3    H113851   5.431   5.271   3.676  0.4540  0.6169 -0.3658
 4615TIP3    H213852   5.472   5.181   3.791 -2.0606 -1.3967 -0.9337
 4616TIP3   OH213853   2.958   4.297   3.447 -0.0192  0.1169 -0.1359
 4616TIP3    H113854   2.927   4.386   3.461  0.1586  0.1111  0.3143
 4616TIP3    H213855   2.943   4.253   3.530  2.7181  0.5752  0.6891
 4617TIP3   OH213856   3.296   3.474   2.830 -0.7275  0.4465 -0.5330
 4617TIP3    H113857   3.250   3.391   2.816  0.5136 -0.1293 -1.3918
 4617TIP3    H213858   3.243   3.539   2.783 -1.8355  0.2019  0.3463
 4618TIP3   OH213859   4.739   3.444   4.978  0.0261  0.3207  0.1308
 4618TIP3    H113860   4.694   3.527   4.960 -0.2464  0.2250  0.3635
 4618TIP3    H213861   4.774   3.417   4.893 -1.1456 -0.0704 -0.2366
 4619TIP3   OH213862   1.468   1.054   3.638  0.3412 -0.0290  0.1891
 4619TIP3    H113863   1.445   1.076   3.548  1.0503 -0.4298 -0.0985
 4619TIP3    H213864   1.385   1.029   3.679  0.1656 -0.9263 -0.6809
 4620TIP3   OH213865   4.948   2.175   1.816 -0.2151  0.0998  0.6835
 4620TIP3    H113866   5.035   2.173   1.777 -1.0746  0.3891 -1.3836
 4620TIP3    H213867   4.951   2.110   1.886  1.3428 -0.6333 -0.0288
 4621TIP3   OH213868   3.387   3.502   4.238 -0.1172 -0.0170 -0.2068
 4621TIP3    H113869   3.430   3.425   4.274 -2.1963 -1.4607 -0.6299
 4621TIP3    H213870   3.313   3.467   4.188 -0.7680  2.2262 -0.9343
 4622TIP3   OH213871   4.590   5.434   2.989 -0.3372 -0.2110 -0.8982
 4622TIP3    H113872   4.631   5.352   2.963  0.6350 -0.0570  0.0693
 4622TIP3    H213873   4.658   5.481   3.037 -1.1388  0.7983 -0.7044
 4623TIP3   OH213874   1.044   5.082   2.477 -0.5673 -0.1488  0.1515
 4623TIP3    H113875   0.985   5.155   2.495 -0.1716 -0.6322  4.6404
 4623TIP3    H213876   1.132   5.119   2.485 -0.3555 -0.7813  0.8719
 4624TIP3   OH213877   1.005   5.842   3.524 -0.0427  0.1095 -0.5543
 4624TIP3    H113878   1.066   5.873   3.457  0.9420 -1.2552 -0.3116
 4624TIP3    H213879   0.962   5.922   3.555  1.1649  1.0375 -1.1711
 4625TIP3   OH213880   5.802   1.396   4.451 -0.2086 -0.0910 -0.1189
 4625TIP3    H113881   5.743   1.411   4.377 -0.7042  0.8134  0.4405
 4625TIP3    H213882   5.784   1.306   4.478  0.5387 -0.7067 -1.5733
 4626TIP3   OH213883   5.885   3.993   2.390  0.2924 -0.0284  0.3852
 4626TIP3    H113884   5.855   3.923   2.448  0.1089 -0.4783 -0.2407
 4626TIP3    H213885   5.932   3.948   2.320 -1.6171  0.2356 -1.1791
 4627TIP3   OH213886   5.450   3.711   1.228 -0.3841  0.0675  0.2751
 4627TIP3    H113887   5.360   3.686   1.248 -0.7447  1.5352  0.6055
 4627TIP3    H213888   5.491   3.725   1.313  0.0018 -0.0923  0.1177
 4628TIP3   OH213889   0.144   5.833   3.323  0.7843 -0.1684 -0.0745
 4628TIP3    H113890   0.207   5.894   3.286 -1.0057  1.8362  0.0221
 4628TIP3    H213891   0.178   5.813   3.410  1.1180  1.2201  0.1384
 4629TIP3   OH213892   1.584   5.056   1.726  0.0613 -0.6153  0.2200
 4629TIP3    H113893   1.667   5.104   1.721 -0.3822  0.0422 -2.3412
 4629TIP3    H213894   1.521   5.121   1.755  0.2765 -0.9195  1.4144
 4630TIP3   OH213895   2.910   0.862   3.617 -0.3724 -0.0894  0.2777
 4630TIP3    H113896   2.946   0.797   3.556  1.5893  0.8761  0.3318
 4630TIP3    H213897   2.943   0.946   3.584  0.9405  0.4464  2.7628
 4631TIP3   OH213898   0.641   4.220   1.664  0.4171  0.0068  0.5868
 4631TIP3    H113899   0.737   4.220   1.661  0.3938  0.2752 -0.3115
 4631TIP3    H213900   0.621   4.229   1.757  1.2612 -1.5999  0.9728
 4632TIP3   OH213901   4.238   2.399   2.484  0.0057 -0.6348  0.1400
 4632TIP3    H113902   4.208   2.397   2.575 -0.6744  0.2628 -0.0621
 4632TIP3    H213903   4.284   2.316   2.473 -1.8028 -1.7664  0.6613
 4633TIP3   OH213904   4.673   2.942   4.002 -0.7734 -0.0515  0.0113
 4633TIP3    H113905   4.727   2.906   3.931 -0.1367  1.0867 -0.0986
 4633TIP3    H213906   4.661   2.868   4.062  0.5017 -0.4596 -0.2058
 4634TIP3   OH213907   0.140   3.723   2.814 -0.2208  0.1860 -0.1979
 4634TIP3    H113908   0.131   3.730   2.719  0.0755 -1.3348 -0.3601
 4634TIP3    H213909   0.057   3.687   2.844  0.4952 -1.5295 -0.1765
 4635TIP3   OH213910   0.778   4.535   2.836 -0.0672  0.0994  0.2967
 4635TIP3    H113911   0.781   4.608   2.774 -0.7440  0.9042  1.1804
 4635TIP3    H213912   0.774   4.457   2.781  1.5996  0.6442 -0.6840
 4636TIP3   OH213913   2.255   1.354   1.930  0.6863 -0.2488 -0.2364
 4636TIP3    H113914   2.296   1.436   1.904  1.2130 -0.4436 -0.0311
 4636TIP3    H213915   2.257   1.300   1.851  1.3215 -0.4526 -0.0896
 4637TIP3   OH213916   2.370   4.697   0.615 -0.0328  0.3833 -0.6815
 4637TIP3    H113917   2.335   4.608   0.624 -0.0290 -0.3042 -5.0065
 4637TIP3    H213918   2.296   4.754   0.637 -0.4792 -0.6881  0.7734
 4638TIP3   OH213919   3.393   3.864   0.497 -0.1554  0.5227  0.2808
 4638TIP3    H113920   3.377   3.832   0.586  0.0640  1.6350  0.7428
 4638TIP3    H213921   3.316   3.917   0.476  0.3172  1.2269  0.2785
 4639TIP3   OH213922   0.461   4.588   3.149  0.3050  0.1272  0.1646
 4639TIP3    H113923   0.527   4.613   3.085 -0.1301  0.7168 -0.0588
 4639TIP3    H213924   0.381   4.632   3.120 -0.1150 -0.3338  0.6000
 4640TIP3   OH213925   1.677   1.701  -0.002  0.1132 -0.0040  0.4712
 4640TIP3    H113926   1.602   1.758  -0.017 -0.2811 -0.1349  1.8439
 4640TIP3    H213927   1.659   1.659   0.082  2.7212  1.6144  1.9934
 4641TIP3   OH213928   4.887   2.377   4.801  0.3454  0.1558 -0.2562
 4641TIP3    H113929   4.896   2.323   4.879  1.5307 -0.1258 -0.5630
 4641TIP3    H213930   4.899   2.466   4.832  1.2214  0.0152 -0.1643
 4642TIP3   OH213931   4.341   1.940   3.339 -0.2513 -0.4629 -0.8292
 4642TIP3    H113932   4.410   1.897   3.391  0.1011  1.0443  0.0031
 4642TIP3    H213933   4.384   1.967   3.259  0.2350  0.7549 -0.1768
 4643TIP3   OH213934   1.375   4.987   2.622  0.2594 -0.0574  0.4155
 4643TIP3    H113935   1.373   5.063   2.563  0.4121  0.9347  1.6578
 4643TIP3    H213936   1.466   4.958   2.620  0.2547 -0.0553  0.1265
 4644TIP3   OH213937   0.303   2.241   3.684 -0.9300 -0.4377 -0.1381
 4644TIP3    H113938   0.384   2.292   3.674 -1.2902  0.0580 -0.5813
 4644TIP3    H213939   0.235   2.298   3.649 -1.5495 -0.6629  0.6787
 4645TIP3   OH213940   2.156   5.569   3.327 -0.3410 -0.0475  0.2110
 4645TIP3    H113941   2.117   5.571   3.240 -1.8500  0.8966  0.8699
 4645TIP3    H213942   2.181   5.660   3.344  1.8581 -0.5446 -0.0222
 4646TIP3   OH213943   3.359   1.233   0.395  0.4850 -0.5765 -0.5499
 4646TIP3    H113944   3.379   1.156   0.448 -0.4822 -0.9299 -0.6799
 4646TIP3    H213945   3.271   1.217   0.362 -0.3074  1.2120  0.5350
 4647TIP3   OH213946   0.674   3.423   0.651  0.1527 -0.0487  0.3978
 4647TIP3    H113947   0.654   3.463   0.736 -0.4028  0.7475 -0.0935
 4647TIP3    H213948   0.689   3.497   0.592  1.4542 -0.5944 -0.0005
 4648TIP3   OH213949   1.983   2.981   1.941 -0.4743 -0.6470  0.5304
 4648TIP3    H113950   1.965   3.069   1.910 -2.1643 -0.4519  1.9029
 4648TIP3    H213951   1.997   2.930   1.861  0.1725  0.7622 -0.2964
 4649TIP3   OH213952   3.364   3.201   4.720  0.6264 -0.2037 -0.1250
 4649TIP3    H113953   3.325   3.148   4.789 -1.5551 -1.4006 -2.1510
 4649TIP3    H213954   3.290   3.245   4.677  1.9221  0.8122 -1.4717
 4650TIP3   OH213955   3.492   1.682   4.093  0.1255 -0.5590  0.2539
 4650TIP3    H113956   3.476   1.602   4.144 -1.6333 -0.3540  0.0705
 4650TIP3    H213957   3.511   1.651   4.005  1.1279 -0.8231  0.5459
 4651TIP3   OH213958   4.308   0.734   4.656  0.1538 -0.3666 -0.4341
 4651TIP3    H113959   4.238   0.671   4.639 -0.1410 -0.6515  1.5532
 4651TIP3    H213960   4.273   0.818   4.628  0.5655 -1.0354 -3.1611
 4652TIP3   OH213961   1.356   2.601   3.363  0.4742 -0.1232 -0.4062
 4652TIP3    H113962   1.277   2.565   3.403  0.2685 -0.1263 -0.8146
 4652TIP3    H213963   1.352   2.573   3.271  0.7467  0.2147 -0.5245
 4653TIP3   OH213964   3.443   1.477   2.958  0.8043 -1.0332  0.1344
 4653TIP3    H113965   3.493   1.552   2.991  1.9749 -2.1107  0.8836
 4653TIP3    H213966   3.485   1.455   2.875 -1.2563  0.7898 -1.5067
 4654TIP3   OH213967   3.566   4.751   3.891 -0.0008  0.1094 -0.0276
 4654TIP3    H113968   3.524   4.825   3.937  0.7258 -0.5521  1.7901
 4654TIP3    H213969   3.547   4.767   3.798 -0.3860  2.2471  0.3616
 4655TIP3   OH213970   3.380   1.402   3.362  0.1230 -0.4299 -0.1035
 4655TIP3    H113971   3.471   1.375   3.350  0.1537 -1.6759  2.2742
 4655TIP3    H213972   3.384   1.497   3.372  0.8017 -0.1531 -2.4670
 4656TIP3   OH213973   3.524   0.024   3.420 -0.4589  0.4031 -0.1963
 4656TIP3    H113974   3.484   0.055   3.340 -1.2095  2.4904  0.9311
 4656TIP3    H213975   3.451   0.011   3.481  0.0622 -1.4447  0.1014
 4657TIP3   OH213976   1.081   0.670   4.248  0.1778 -0.0205  0.1150
 4657TIP3    H113977   1.067   0.575   4.246  0.0212 -0.0297 -3.1802
 4657TIP3    H213978   1.174   0.681   4.233  0.5275  0.4162  2.2084
 4658TIP3   OH213979   5.814   0.587   3.362 -0.0905  0.1140  0.2861
 4658TIP3    H113980   5.784   0.503   3.397 -0.5446  0.3267  0.4140
 4658TIP3    H213981   5.736   0.642   3.361  0.2384  0.5902  0.3566
 4659TIP3   OH213982   2.405   1.222   4.369  0.2145 -0.1750 -0.4775
 4659TIP3    H113983   2.324   1.264   4.338  0.4559 -1.5444 -3.3404
 4659TIP3    H213984   2.377   1.136   4.399  0.7034 -1.4720 -3.4020
 4660TIP3   OH213985   1.501   3.696   3.227  0.4950  0.5855  0.0494
 4660TIP3    H113986   1.517   3.610   3.266  1.7944  1.4577  1.5714
 4660TIP3    H213987   1.406   3.703   3.222  0.3624 -1.2203 -0.8243
 4661TIP3   OH213988   2.305   3.641   0.188 -0.4924  0.3123  0.4441
 4661TIP3    H113989   2.225   3.636   0.137  0.6597  0.5023 -1.4811
 4661TIP3    H213990   2.298   3.722   0.237 -0.1181  2.0648 -2.2238
 4662TIP3   OH213991   0.143   2.190   3.289  0.3244  0.6042  0.3861
 4662TIP3    H113992   0.065   2.182   3.343  0.1096  1.9810  0.2955
 4662TIP3    H213993   0.192   2.263   3.327  0.1662  1.6095 -1.2419
 4663TIP3   OH213994   2.838   5.403   1.706  0.0022  0.2728  0.2233
 4663TIP3    H113995   2.792   5.328   1.668  1.0419  0.0562 -0.6423
 4663TIP3    H213996   2.842   5.467   1.635 -1.1740  1.3186  1.0497
 4664TIP3   OH213997   2.094   0.142   2.763 -0.3384 -0.3069 -0.7658
 4664TIP3    H113998   2.153   0.074   2.795  1.3443  0.8601 -1.2691
 4664TIP3    H213999   2.030   0.153   2.834  0.5298 -1.0411  0.1618
 4665TIP3   OH214000   3.266   2.707   2.660  0.2245 -0.7342 -0.1890
 4665TIP3    H114001   3.267   2.657   2.578 -2.2764 -2.2474  0.6085
 4665TIP3    H214002   3.295   2.644   2.726 -0.1138 -0.2362  0.4382
 4666TIP3   OH214003   5.676   2.905   4.993 -0.0418 -0.3168  0.5273
 4666TIP3    H114004   5.720   2.898   4.908  0.5911  0.5787  0.7671
 4666TIP3    H214005   5.747   2.923   5.055 -0.5014 -0.9465  1.2457
 4667TIP3   OH214006   4.413   0.659   3.308  0.1689 -0.3747  0.0976
 4667TIP3    H114007   4.332   0.705   3.289 -0.1723 -0.2591  1.6712
 4667TIP3    H214008   4.480   0.706   3.258 -0.4131  0.8672  0.4599
 4668TIP3   OH214009   1.857   1.668   4.956  0.3506 -0.3646 -0.1095
 4668TIP3    H114010   1.912   1.590   4.954  0.1340 -0.5791  1.3087
 4668TIP3    H214011   1.866   1.706   4.869  0.0512 -2.2561 -1.0196
 4669TIP3   OH214012   3.789   0.114   1.151 -0.3272  0.1590  0.2536
 4669TIP3    H114013   3.772   0.100   1.245  0.0997  0.8805  0.4430
 4669TIP3    H214014   3.702   0.113   1.111 -0.5321  0.1101  0.6918
 4670TIP3   OH214015   2.413   5.626   2.163  0.3617  0.6141  0.5478
 4670TIP3    H114016   2.450   5.714   2.158  0.7939  0.3979 -0.2738
 4670TIP3    H214017   2.319   5.640   2.172  0.2987  1.1794 -0.7110
 4671TIP3   OH214018   4.451   2.232   0.998  0.5530 -0.3279  0.5484
 4671TIP3    H114019   4.533   2.278   1.015  0.3658  0.0477  0.4407
 4671TIP3    H214020   4.459   2.150   1.048  1.4115 -0.7518 -0.2550
 4672TIP3   OH214021   5.134   2.469   0.687 -0.3570 -0.0077  0.7240
 4672TIP3    H114022   5.046   2.504   0.700  0.3158  1.2444  2.2063
 4672TIP3    H214023   5.162   2.441   0.775  0.8641 -0.0432  0.3428
 4673TIP3   OH214024   3.906   1.965   1.644 -0.2855  0.3029  0.5821
 4673TIP3    H114025   3.877   2.053   1.618 -1.2834  0.1803  1.2263
 4673TIP3    H214026   3.995   1.959   1.611  0.0813  1.8588  1.2036
 4674TIP3   OH214027   2.678   0.808   4.387 -0.3928 -0.0216  0.8771
 4674TIP3    H114028   2.597   0.820   4.435  0.3624 -1.0715  2.4916
 4674TIP3    H214029   2.745   0.796   4.454  1.2875  1.6996 -0.3663
 4675TIP3   OH214030   5.230   3.019   4.577 -0.3148  0.0623  0.1293
 4675TIP3    H114031   5.324   3.018   4.559 -0.3025  1.4038 -0.0358
 4675TIP3    H214032   5.190   3.007   4.491 -0.3508 -2.6327  0.4468
 4676TIP3   OH214033   0.295   0.367   0.574  0.4979  0.7625 -0.1884
 4676TIP3    H114034   0.305   0.429   0.501 -0.2234  0.4203 -0.5951
 4676TIP3    H214035   0.227   0.407   0.629 -0.4409  0.0402 -0.7933
 4677TIP3   OH214036   6.267   0.675   3.171  0.0505  0.1564 -0.1156
 4677TIP3    H114037   6.235   0.585   3.180 -0.1575  0.2523  0.1238
 4677TIP3    H214038   6.277   0.687   3.077  1.9501 -0.7539 -0.0817
 4678TIP3   OH214039   0.735   2.932   3.885 -0.2843  0.0192  0.2011
 4678TIP3    H114040   0.652   2.950   3.929 -1.1592 -0.5383 -1.1682
 4678TIP3    H214041   0.764   3.017   3.852 -1.5993 -0.1254 -1.4491
 4679TIP3   OH214042   4.514   0.290   4.695 -0.5232  0.7485 -0.3858
 4679TIP3    H114043   4.439   0.234   4.677 -0.8549  0.7828  0.8768
 4679TIP3    H214044   4.480   0.362   4.747  0.3077  0.9993 -0.1654
 4680TIP3   OH214045   2.542   2.219   2.844  0.2351 -0.2791  0.0777
 4680TIP3    H114046   2.631   2.198   2.816  0.9308  0.9155  1.3263
 4680TIP3    H214047   2.488   2.195   2.769  1.9220  1.9878 -2.0286
 4681TIP3   OH214048   1.517   2.275   2.720 -0.2221 -0.1172  0.3313
 4681TIP3    H114049   1.500   2.182   2.713  1.9319 -0.4497 -2.0290
 4681TIP3    H214050   1.431   2.316   2.704 -0.7967 -1.6866 -0.9517
 4682TIP3   OH214051   5.257   0.224   4.186  0.4885  0.3805  0.2772
 4682TIP3    H114052   5.320   0.295   4.177  0.9340  0.3189  2.4017
 4682TIP3    H214053   5.263   0.176   4.104  1.4743  1.7570 -0.4899
 4683TIP3   OH214054   3.910   2.070   4.912  0.3045 -0.1868 -0.2140
 4683TIP3    H114055   3.842   2.037   4.854 -0.2392 -1.3312  1.0332
 4683TIP3    H214056   3.897   2.165   4.913  0.9307  0.0063 -2.6550
 4684TIP3   OH214057   3.427   4.932   4.830  0.6207 -0.0715 -0.1975
 4684TIP3    H114058   3.509   4.886   4.814  1.3130  0.5405  1.3291
 4684TIP3    H214059   3.418   4.932   4.926 -0.2265  1.4218 -0.2413
 4685TIP3   OH214060   0.632   5.784   1.221  0.5209  0.0571 -0.1096
 4685TIP3    H114061   0.616   5.799   1.128  1.1801 -0.1722 -0.2637
 4685TIP3    H214062   0.650   5.871   1.257  0.1932  0.1548 -0.1772
 4686TIP3   OH214063   4.890   5.173   3.593 -0.1040  0.3718  0.3631
 4686TIP3    H114064   4.807   5.171   3.546 -0.5000  0.6683  1.0235
 4686TIP3    H214065   4.957   5.166   3.525 -0.6714 -0.6637 -0.1285
 4687TIP3   OH214066   6.305   4.746   2.180  0.3262 -0.0070 -0.3892
 4687TIP3    H114067   6.399   4.765   2.176  0.4821 -0.5212  0.6277
 4687TIP3    H214068   6.299   4.661   2.224 -0.5213 -0.9191 -2.1479
 4688TIP3   OH214069   3.038   1.874   4.535  0.0734 -0.0530  0.3213
 4688TIP3    H114070   2.977   1.881   4.461  2.6308 -0.9016 -2.0211
 4688TIP3    H214071   3.124   1.867   4.495  1.4795 -2.4141  3.3537
 4689TIP3   OH214072   2.112   5.415   3.551 -0.2621  0.0828 -0.4633
 4689TIP3    H114073   2.101   5.435   3.458 -0.5853  0.5439 -0.3263
 4689TIP3    H214074   2.174   5.342   3.552 -1.0732 -0.6335 -1.0963
 4690TIP3   OH214075   3.597   0.604   0.479 -0.2722 -0.7045 -0.1258
 4690TIP3    H114076   3.519   0.616   0.534 -0.8889  1.9124 -1.4240
 4690TIP3    H214077   3.648   0.684   0.491 -1.0578  0.6247 -4.1865
 4691TIP3   OH214078   2.359   5.532   4.303  0.1074 -0.1305 -0.7729
 4691TIP3    H114079   2.364   5.436   4.296 -0.7686 -0.1171 -1.8313
 4691TIP3    H214080   2.412   5.564   4.231  2.4202  0.2504  1.0107
 4692TIP3   OH214081   0.052   5.526   2.741 -0.3957 -0.1173  0.3649
 4692TIP3    H114082  -0.034   5.505   2.703 -0.5381  2.1658 -0.7043
 4692TIP3    H214083   0.032   5.585   2.814  0.2842  1.1641 -0.4527
 4693TIP3   OH214084   5.884   2.141   0.660  0.2180 -0.2794  0.1602
 4693TIP3    H114085   5.862   2.052   0.686 -0.2347 -0.5380 -1.0439
 4693TIP3    H214086   5.841   2.196   0.726  0.6911 -0.9389  1.0483
 4694TIP3   OH214087   1.577   1.601   4.975 -0.5004 -0.7842  0.0691
 4694TIP3    H114088   1.516   1.616   4.903 -1.8945 -0.5385  1.2614
 4694TIP3    H214089   1.659   1.641   4.946 -0.7103 -1.5777 -1.7911
 4695TIP3   OH214090   4.041   1.191   3.910  0.1757  0.1579  0.5483
 4695TIP3    H114091   4.112   1.250   3.934  1.7947 -1.0444 -1.0484
 4695TIP3    H214092   4.073   1.146   3.832 -2.4839 -0.1876 -0.4458
 4696TIP3   OH214093   5.882   0.635   0.945 -0.3818 -0.2841  0.4217
 4696TIP3    H114094   5.931   0.562   0.983  0.5738 -0.9946 -1.9923
 4696TIP3    H214095   5.803   0.596   0.910 -0.6246  0.1221  0.5084
 4697TIP3   OH214096   6.187   4.731   0.261  0.2151 -0.9208 -0.1854
 4697TIP3    H114097   6.278   4.714   0.287  1.1927  1.2341 -1.8355
 4697TIP3    H214098   6.170   4.821   0.289 -1.3670 -1.2204 -0.0890
 4698TIP3   OH214099   0.154   5.950   4.218 -0.3906  0.3671  0.1451
 4698TIP3    H114100   0.229   6.008   4.232 -0.7519  0.7039  0.7245
 4698TIP3    H214101   0.109   5.987   4.142 -0.9896  1.2656  0.9016
 4699TIP3   OH214102   5.190   4.437   0.669 -0.6061  0.2350  0.0295
 4699TIP3    H114103   5.263   4.377   0.649  0.5705  0.5998  2.7674
 4699TIP3    H214104   5.231   4.524   0.668 -1.3039  0.5675  0.3535
 4700TIP3   OH214105   1.768   0.615   2.500  0.5331 -0.1671  1.1327
 4700TIP3    H114106   1.766   0.711   2.502  1.7851 -0.1266  1.2670
 4700TIP3    H214107   1.861   0.593   2.505  0.5929 -1.3239 -2.2591
 4701TIP3   OH214108   0.310   0.103   4.293  0.0253 -0.4903  0.1846
 4701TIP3    H114109   0.339   0.194   4.299  0.4689 -0.7036  1.5693
 4701TIP3    H214110   0.295   0.089   4.200  1.6040  0.5064 -0.2602
 4702TIP3   OH214111   1.506   4.638   1.452  0.2137  0.0918 -0.7197
 4702TIP3    H114112   1.555   4.686   1.386  0.2773 -0.2369 -0.9110
 4702TIP3    H214113   1.527   4.683   1.534  1.8197 -0.7785 -0.6111
 4703TIP3   OH214114   4.799   4.688   2.699  0.4550 -0.7833  0.3500
 4703TIP3    H114115   4.880   4.646   2.669  1.5270  1.8886 -0.8555
 4703TIP3    H214116   4.751   4.706   2.618  0.6496  1.3417  0.6517
 4704TIP3   OH214117   3.910   2.533   4.295 -0.3104  0.1363  0.0796
 4704TIP3    H114118   3.940   2.475   4.366  0.8583  1.7044  0.9366
 4704TIP3    H214119   3.871   2.474   4.231 -0.3114 -1.4686  1.4797
 4705TIP3   OH214120   2.801   0.462   0.998 -0.2634 -0.3233  0.1120
 4705TIP3    H114121   2.832   0.417   0.919 -1.1621 -1.7323  0.5272
 4705TIP3    H214122   2.712   0.490   0.976 -0.7492 -1.2574  0.7957
 4706TIP3   OH214123   5.623   1.456   0.119  0.2063  0.3204  0.2537
 4706TIP3    H114124   5.592   1.389   0.058 -1.3067  1.2213 -0.0231
 4706TIP3    H214125   5.656   1.526   0.063  0.6011  0.3492  0.5174
 4707TIP3   OH214126   3.375   5.854   3.245 -0.4519 -0.2563 -0.2121
 4707TIP3    H114127   3.310   5.801   3.198 -0.1141  0.1385 -1.1607
 4707TIP3    H214128   3.351   5.944   3.225 -0.2179 -0.0862  0.2732
 4708TIP3   OH214129   0.983   3.241   0.632  0.0430  0.0713 -0.4673
 4708TIP3    H114130   0.922   3.174   0.664 -1.4173  1.1975 -0.8273
 4708TIP3    H214131   0.958   3.321   0.678  2.8454  0.1040  1.2303
 4709TIP3   OH214132   5.656   5.593   2.642  0.1991  0.2154 -0.0427
 4709TIP3    H114133   5.739   5.630   2.613  0.3319 -0.4396 -0.5160
 4709TIP3    H214134   5.662   5.591   2.737  0.4767  0.7415 -0.0475
 4710TIP3   OH214135   5.160   4.409   2.129 -0.0269 -0.0171  0.3121
 4710TIP3    H114136   5.158   4.481   2.067 -1.8224 -0.6306 -0.4029
 4710TIP3    H214137   5.086   4.353   2.104 -0.1128 -0.8839  2.2777
 4711TIP3   OH214138   3.705   5.163   5.072  0.2859 -0.1886 -0.5590
 4711TIP3    H114139   3.707   5.214   4.991  1.1241 -0.4570 -0.7214
 4711TIP3    H214140   3.628   5.194   5.119  0.1396  0.4014 -1.1844
 4712TIP3   OH214141   2.143   5.433   4.565  0.2565  0.0546  0.1169
 4712TIP3    H114142   2.181   5.441   4.477  0.6664 -1.1352  0.1804
 4712TIP3    H214143   2.110   5.344   4.570  0.3337  0.0686  1.2186
 4713TIP3   OH214144   4.878   1.841   3.568 -0.5115  0.1124 -0.3403
 4713TIP3    H114145   4.907   1.778   3.635 -0.6358  0.1898 -0.2130
 4713TIP3    H214146   4.954   1.850   3.510  0.1491  1.2080  0.6458
 4714TIP3   OH214147   4.694   1.544   3.785 -0.1194 -0.6996 -0.3958
 4714TIP3    H114148   4.635   1.587   3.724 -1.2403 -0.3213  0.8985
 4714TIP3    H214149   4.777   1.591   3.775  0.1759 -1.5511 -2.5857
 4715TIP3   OH214150   0.637   5.242   1.171 -0.1417 -0.3914  0.1958
 4715TIP3    H114151   0.567   5.197   1.218  0.0000  1.0524  1.8999
 4715TIP3    H214152   0.610   5.334   1.170  1.2038  0.0196 -0.0940
 4716TIP3   OH214153   3.221   3.132   0.194  0.0189 -0.3939 -0.4652
 4716TIP3    H114154   3.145   3.141   0.251  2.4637  0.5130  3.0066
 4716TIP3    H214155   3.210   3.047   0.152 -2.5411 -0.5780  0.4254
 4717TIP3   OH214156   5.126   5.523   2.255  0.1649 -0.1470  0.0666
 4717TIP3    H114157   5.172   5.555   2.332 -0.4969  1.7977 -0.2882
 4717TIP3    H214158   5.035   5.514   2.284 -0.0008  0.1500 -0.3466
 4718TIP3   OH214159   2.405   1.545   4.900  0.5247  0.0928  0.3438
 4718TIP3    H114160   2.310   1.534   4.903  0.6722 -1.0892  1.4968
 4718TIP3    H214161   2.429   1.522   4.810 -0.3048  0.7036 -0.0413
 4719TIP3   OH214162   5.867   3.287   2.545  0.4100  0.1771  0.1018
 4719TIP3    H114163   5.815   3.269   2.623 -0.0723 -1.3432 -0.5305
 4719TIP3    H214164   5.942   3.336   2.576 -0.5643  0.9667  1.2844
 4720TIP3   OH214165   2.737   0.969   1.817  0.5291 -0.4419 -0.0096
 4720TIP3    H114166   2.735   0.989   1.911 -0.6659  1.7696 -0.4394
 4720TIP3    H214167   2.822   1.002   1.788  0.4732 -0.1977  0.1039
 4721TIP3   OH214168   0.667   5.513   0.840  0.4051 -0.1224 -0.0488
 4721TIP3    H114169   0.613   5.442   0.807  2.1877 -1.0976 -0.9828
 4721TIP3    H214170   0.605   5.585   0.856 -1.3977 -1.7354  0.6385
 4722TIP3   OH214171   0.067   5.386   4.423 -1.0993 -0.2213  0.1170
 4722TIP3    H114172   0.058   5.385   4.328 -2.0937 -1.1319  0.1990
 4722TIP3    H214173   0.020   5.308   4.452 -1.5698  0.5232  1.4208
 4723TIP3   OH214174   4.660   2.987   1.005  0.4360 -0.2508  0.8184
 4723TIP3    H114175   4.572   2.954   0.991 -0.0945  1.5141 -0.3473
 4723TIP3    H214176   4.654   3.041   1.084  0.3706  0.1218  0.5652
 4724TIP3   OH214177   5.225   3.539   4.865 -0.0983  0.0771 -0.0386
 4724TIP3    H114178   5.288   3.477   4.827 -0.1962 -0.2592  0.3377
 4724TIP3    H214179   5.211   3.604   4.797  1.3995  0.7039  0.2132
 4725TIP3   OH214180   5.768   2.610   2.456 -0.0031  0.2167  0.7109
 4725TIP3    H114181   5.712   2.656   2.394  0.9752  0.3185 -0.1147
 4725TIP3    H214182   5.729   2.523   2.464  0.7949 -0.4015 -1.3934
 4726TIP3   OH214183   3.286   5.748   2.797  0.1874 -0.1707  0.4441
 4726TIP3    H114184   3.326   5.677   2.846  1.6614 -1.0379 -1.8472
 4726TIP3    H214185   3.340   5.825   2.817  1.8952 -0.9042 -1.0810
 4727TIP3   OH214186   2.135   2.708   0.590 -0.3887 -0.9012 -0.3567
 4727TIP3    H114187   2.053   2.732   0.632  1.2392  2.9720  1.1107
 4727TIP3    H214188   2.182   2.658   0.657 -0.6049 -1.0387 -0.3054
 4728TIP3   OH214189   3.697   1.072   4.873  0.3918 -0.6478  0.3967
 4728TIP3    H114190   3.656   1.158   4.884 -1.0581 -1.1827 -0.4819
 4728TIP3    H214191   3.785   1.083   4.909 -0.2614  0.7734  1.7421
 4729TIP3   OH214192   4.223   1.347   1.395  0.0745  0.3150 -0.5102
 4729TIP3    H114193   4.247   1.273   1.340  0.7882 -0.3129  0.6061
 4729TIP3    H214194   4.305   1.394   1.409 -0.1014  0.4888 -0.0284
 4730TIP3   OH214195   5.243   5.865   4.710  0.5695  0.2283  0.1347
 4730TIP3    H114196   5.244   5.770   4.721  1.7011  0.1642 -0.3853
 4730TIP3    H214197   5.175   5.896   4.770  1.7052 -0.7209  2.0044
 4731TIP3   OH214198   5.379   4.236   1.329 -0.4770  0.0367  0.1483
 4731TIP3    H114199   5.308   4.274   1.380  0.2397 -0.9775  1.9773
 4731TIP3    H214200   5.444   4.306   1.323 -0.6043  0.1935  0.5760
 4732TIP3   OH214201   2.434   2.232   0.349  0.5670 -0.0613 -0.1753
 4732TIP3    H114202   2.379   2.194   0.281 -0.9042  1.8362 -0.1164
 4732TIP3    H214203   2.454   2.320   0.318  0.7929  0.4495  1.3413
 4733TIP3   OH214204   5.799   0.359   0.988 -0.8760 -0.0991  0.0746
 4733TIP3    H114205   5.704   0.348   0.991 -0.9211  0.2730  0.0679
 4733TIP3    H214206   5.831   0.313   1.066 -1.2490  1.5381  1.2484
 4734TIP3   OH214207   2.330   4.246   1.950 -0.0544  0.1094 -0.3108
 4734TIP3    H114208   2.386   4.170   1.962  0.9037  0.8410 -0.0560
 4734TIP3    H214209   2.279   4.251   2.031 -0.7673 -0.7624 -0.6880
 4735TIP3   OH214210   5.135   4.006   4.472 -0.1517  0.0372 -0.6118
 4735TIP3    H114211   5.197   3.985   4.402 -0.1822  3.8278 -2.0091
 4735TIP3    H214212   5.050   3.978   4.438  0.1806 -0.9581 -0.6763
 4736TIP3   OH214213   4.515   4.115   2.088 -0.7144 -0.8519  0.1208
 4736TIP3    H114214   4.461   4.135   2.165  0.1327 -0.3718  0.6060
 4736TIP3    H214215   4.597   4.161   2.104  0.3410 -2.6107  0.0332
 4737TIP3   OH214216   3.281   3.682   2.567  0.0094  0.2597 -0.7879
 4737TIP3    H114217   3.211   3.747   2.568 -0.9161 -0.7125 -0.3592
 4737TIP3    H214218   3.240   3.603   2.531  1.6235  0.4457 -3.2691
 4738TIP3   OH214219   3.711   1.113   1.372  0.5536  0.5427 -0.1886
 4738TIP3    H114220   3.795   1.147   1.340  1.3089 -1.0370  0.0481
 4738TIP3    H214221   3.663   1.089   1.292  0.6228  0.7496 -0.2931
 4739TIP3   OH214222   5.312   4.404   4.454 -0.5607  0.1227  0.6908
 4739TIP3    H114223   5.364   4.418   4.375 -0.1603 -1.1166  0.7176
 4739TIP3    H214224   5.265   4.487   4.466 -0.3945  0.4416 -0.6581
 4740TIP3   OH214225   3.550   2.773   2.667 -0.5040 -0.3747 -0.3852
 4740TIP3    H114226   3.489   2.760   2.740 -0.0264  0.9703  0.2826
 4740TIP3    H214227   3.494   2.781   2.590 -0.9773 -2.6931 -0.3492
 4741TIP3   OH214228   6.207   0.826   4.986  0.6242 -0.0035 -0.3016
 4741TIP3    H114229   6.234   0.754   4.929  0.3977 -0.8475  0.6262
 4741TIP3    H214230   6.285   0.882   4.992  0.4983  0.3697 -1.8059
 4742TIP3   OH214231   4.403   4.790   1.458 -0.3640  0.0163 -0.4670
 4742TIP3    H114232   4.496   4.813   1.464 -0.2406 -0.1480 -1.5034
 4742TIP3    H214233   4.394   4.752   1.371 -1.3080 -0.4428 -0.1788
 4743TIP3   OH214234   1.097   2.169   0.183 -0.8472  0.6661  0.0142
 4743TIP3    H114235   1.105   2.181   0.278 -1.5911  1.6524 -0.0279
 4743TIP3    H214236   1.005   2.187   0.165 -0.9887 -0.7266 -0.7449
 4744TIP3   OH214237   3.774   1.748   1.484 -0.2357 -0.0020  0.3084
 4744TIP3    H114238   3.764   1.764   1.390  2.0067 -0.0919  0.0142
 4744TIP3    H214239   3.802   1.832   1.520  0.3856 -0.3415  0.6348
 4745TIP3   OH214240   3.534   3.415   2.570 -0.4746  0.3338 -0.2302
 4745TIP3    H114241   3.578   3.374   2.495 -2.6673 -0.0880 -1.3926
 4745TIP3    H214242   3.565   3.505   2.570 -0.2582  0.2767 -1.5230
 4746TIP3   OH214243   6.057   4.158   4.993 -0.0265  0.1059 -0.3054
 4746TIP3    H114244   6.030   4.105   5.068 -0.9846 -0.7521 -1.2308
 4746TIP3    H214245   5.980   4.210   4.971  0.0112 -0.1804 -1.1386
 4747TIP3   OH214246   4.520   3.844   4.637 -0.0736 -0.0605  0.1747
 4747TIP3    H114247   4.518   3.814   4.728 -2.1300 -0.9865 -0.1333
 4747TIP3    H214248   4.558   3.771   4.588  1.1968  0.5046  0.2790
 4748TIP3   OH214249   3.095   1.565   1.702 -0.1604 -0.2580  0.2792
 4748TIP3    H114250   3.038   1.632   1.742 -0.3945 -0.2570 -0.0478
 4748TIP3    H214251   3.094   1.493   1.765  0.3180  0.1471  0.7702
 4749TIP3   OH214252   4.484   3.602   2.957  0.1989  0.2177  0.1375
 4749TIP3    H114253   4.391   3.584   2.957  0.2761 -0.2437  1.1424
 4749TIP3    H214254   4.493   3.685   2.909 -0.4384 -0.9395 -2.1147
 4750TIP3   OH214255   4.099   4.392   1.313 -0.8093  0.2660 -0.1357
 4750TIP3    H114256   4.174   4.334   1.328 -1.0579  0.2380  1.1394
 4750TIP3    H214257   4.066   4.367   1.226  0.6319  0.2761 -0.7121
 4751TIP3   OH214258   0.639   0.631   2.298 -0.4347 -0.0878 -0.2989
 4751TIP3    H114259   0.597   0.630   2.212  0.6412 -1.3126 -0.8360
 4751TIP3    H214260   0.644   0.539   2.323  0.1767  0.1873  0.6278
 4752TIP3   OH214261   5.373   3.932   2.175 -0.0003 -0.2330 -0.0467
 4752TIP3    H114262   5.314   3.919   2.101  0.2048 -3.6950  0.2584
 4752TIP3    H214263   5.317   3.966   2.245 -0.6914  0.6670 -1.0053
 4753TIP3   OH214264   0.059   3.115   3.120  0.3865  0.3714 -0.2424
 4753TIP3    H114265   0.025   3.203   3.134 -1.4303 -0.2170 -0.7555
 4753TIP3    H214266  -0.018   3.060   3.114  1.5134 -1.3717  0.6323
 4754TIP3   OH214267   2.622   1.400   4.753  0.3313 -0.5986 -0.3063
 4754TIP3    H114268   2.633   1.351   4.671  2.2882  1.9368 -1.6768
 4754TIP3    H214269   2.708   1.436   4.772 -1.0501  2.8527  0.2154
 4755TIP3   OH214270   1.768   3.986   0.702 -0.7693  0.0644 -0.1712
 4755TIP3    H114271   1.677   4.008   0.680 -1.6784 -0.3296  2.7488
 4755TIP3    H214272   1.807   4.070   0.725 -1.0163 -0.0164  0.5535
 4756TIP3   OH214273   5.114   1.182   4.992  0.0506  0.3176 -0.1453
 4756TIP3    H114274   5.086   1.247   4.927 -0.9908  1.6077  1.5292
 4756TIP3    H214275   5.141   1.107   4.939 -1.2304  1.1230 -2.0753
 4757TIP3   OH214276   5.478   2.542   0.060  0.0914  0.0786 -0.3129
 4757TIP3    H114277   5.543   2.566  -0.006  0.3087 -1.2416 -0.6040
 4757TIP3    H214278   5.521   2.557   0.144  0.5310 -0.1507 -0.4956
 4758TIP3   OH214279   5.061   1.947   5.069 -0.0232 -0.3604 -0.0041
 4758TIP3    H114280   5.125   1.879   5.048 -0.2625 -0.2429 -1.1741
 4758TIP3    H214281   5.100   1.993   5.143  0.7227 -0.9935  0.0206
 4759TIP3   OH214282   4.521   2.741   1.949 -0.3234 -0.1333 -0.2467
 4759TIP3    H114283   4.469   2.668   1.982  1.5313 -1.0064  0.9375
 4759TIP3    H214284   4.473   2.820   1.976 -3.4101 -0.7270 -3.2259
 4760TIP3   OH214285   4.616   5.201   3.534  0.1900 -0.2489  0.1840
 4760TIP3    H114286   4.524   5.175   3.535 -0.2464  0.8421 -2.4082
 4760TIP3    H214287   4.614   5.296   3.544  1.1051 -0.2738  0.7143
 4761TIP3   OH214288   5.863   5.419   0.795  0.2316  0.2067 -0.3041
 4761TIP3    H114289   5.947   5.464   0.802 -0.3696  1.1134  1.7694
 4761TIP3    H214290   5.877   5.335   0.838  0.7728 -0.7992 -2.3376
 4762TIP3   OH214291   5.956   5.603   3.855  0.3035 -0.1159  0.1015
 4762TIP3    H114292   5.874   5.571   3.892  1.0820 -1.9476  0.3449
 4762TIP3    H214293   5.979   5.679   3.909 -1.9074  1.3603 -0.8735
 4763TIP3   OH214294   4.912   0.975   3.139  0.1469 -0.4026 -0.0880
 4763TIP3    H114295   4.906   1.070   3.132 -2.2014 -0.5307 -0.5705
 4763TIP3    H214296   4.987   0.951   3.085 -1.1197  0.9694 -2.6376
 4764TIP3   OH214297   4.774   1.217   1.066 -0.2880 -0.2731  0.2130
 4764TIP3    H114298   4.855   1.193   1.022 -0.6277  0.7939 -1.1008
 4764TIP3    H214299   4.801   1.271   1.140  0.1914  1.3081 -1.0608
 4765TIP3   OH214300   3.605   2.300   2.884 -0.1657  0.3371 -0.3919
 4765TIP3    H114301   3.588   2.351   2.963 -0.2446  0.2932 -0.3812
 4765TIP3    H214302   3.627   2.366   2.818  2.8541  0.2822  0.3801
 4766TIP3   OH214303   3.652   0.949   2.869  0.5568  0.2875 -0.5127
 4766TIP3    H114304   3.564   0.925   2.899  0.6166  0.1492 -0.4430
 4766TIP3    H214305   3.646   1.041   2.845  0.3473  0.2296 -0.6830
 4767TIP3   OH214306   3.347   4.931   2.307 -0.2249  0.9428 -0.0520
 4767TIP3    H114307   3.281   4.870   2.273  0.4601 -0.2566  0.7113
 4767TIP3    H214308   3.298   4.992   2.362 -0.7888  0.4678 -0.0200
 4768TIP3   OH214309   2.338   0.264   3.964 -0.4243 -0.6041  0.4444
 4768TIP3    H114310   2.246   0.289   3.951  0.1221  1.3163 -0.0454
 4768TIP3    H214311   2.371   0.246   3.877 -0.6089 -2.4921  0.7265
 4769TIP3   OH214312   5.969   3.969   3.685 -0.0856 -0.4029 -0.1460
 4769TIP3    H114313   6.024   3.998   3.758  0.0386  0.2070 -0.4778
 4769TIP3    H214314   6.001   3.881   3.664  0.8461 -0.0126 -0.4119
 4770TIP3   OH214315   4.665   0.189   1.773 -0.2339  0.5400 -0.6532
 4770TIP3    H114316   4.587   0.195   1.718 -0.7988  1.5629  0.2199
 4770TIP3    H214317   4.737   0.217   1.717 -0.8792  2.1460 -0.7284
 4771TIP3   OH214318   3.402   1.013   0.215  0.7635  0.5498 -0.5682
 4771TIP3    H114319   3.468   0.952   0.181 -1.2461 -1.4522 -1.1691
 4771TIP3    H214320   3.329   0.956   0.241 -0.7137  2.6452  0.1109
 4772TIP3   OH214321   1.209   2.580   0.580  0.1836  0.0163 -0.8606
 4772TIP3    H114322   1.145   2.589   0.651 -0.3866 -0.2545 -1.3299
 4772TIP3    H214323   1.279   2.526   0.618 -0.3459 -0.5399 -0.6413
 4773TIP3   OH214324   1.890   3.747   3.310  0.0391 -0.1946  0.4428
 4773TIP3    H114325   1.867   3.677   3.370 -1.8172  0.4502  0.5345
 4773TIP3    H214326   1.851   3.721   3.227 -1.8529  1.3205  0.7997
 4774TIP3   OH214327   5.577   5.963   2.429  0.0769 -0.1996 -0.3203
 4774TIP3    H114328   5.560   5.880   2.384 -0.4376 -0.2681 -0.0095
 4774TIP3    H214329   5.506   5.970   2.493 -0.9488  1.3710 -1.5545
 4775TIP3   OH214330   0.719   4.360   2.626 -0.0185  0.2247 -0.1070
 4775TIP3    H114331   0.753   4.300   2.558 -0.2883 -0.3722  0.2745
 4775TIP3    H214332   0.624   4.348   2.623 -0.1543  1.2851 -0.6081
 4776TIP3   OH214333   1.307   3.321   3.404  0.6784 -0.3119  0.3053
 4776TIP3    H114334   1.247   3.393   3.422  0.9505 -0.2915  1.1522
 4776TIP3    H214335   1.257   3.261   3.347  0.4334  0.5061 -0.3626
 4777TIP3   OH214336   5.171   3.604   2.739 -0.0338 -0.0431 -0.3906
 4777TIP3    H114337   5.122   3.521   2.744 -0.3521  0.1969  1.0178
 4777TIP3    H214338   5.106   3.671   2.761  0.1696  0.6224 -1.7298
 4778TIP3   OH214339   2.166   3.507   2.555  0.3520  0.2440  0.1434
 4778TIP3    H114340   2.128   3.513   2.467  2.1122 -3.0048 -0.9844
 4778TIP3    H214341   2.099   3.461   2.606  0.1821  0.2354 -0.0821
 4779TIP3   OH214342   1.506   2.468   0.966  0.3015  0.2198  0.0812
 4779TIP3    H114343   1.449   2.543   0.954 -0.3887 -0.4843 -1.2358
 4779TIP3    H214344   1.595   2.504   0.965 -0.0440  1.1189  0.4838
 4780TIP3   OH214345   5.237   1.651   1.438 -0.2675 -0.2639 -0.3796
 4780TIP3    H114346   5.323   1.627   1.404 -0.9796 -0.0496 -2.5220
 4780TIP3    H214347   5.185   1.571   1.429 -0.4274 -0.2492  0.4228
 4781TIP3   OH214348   0.347   1.941   4.274  0.3776 -0.1673  1.0804
 4781TIP3    H114349   0.277   1.993   4.235  0.0136 -0.0171  1.9126
 4781TIP3    H214350   0.303   1.887   4.340  0.5166 -2.5342 -0.6358
 4782TIP3   OH214351   4.469   2.522   4.029 -0.2146  0.0237 -0.1766
 4782TIP3    H114352   4.408   2.484   3.967 -0.4812 -0.1487  0.1851
 4782TIP3    H214353   4.431   2.503   4.115  1.1434 -1.5349  0.1519
 4783TIP3   OH214354   5.103   5.492   0.336  0.3372 -0.3488 -0.4355
 4783TIP3    H114355   5.014   5.474   0.366  0.4045  0.9285  0.6636
 4783TIP3    H214356   5.092   5.558   0.268  0.4042 -0.7109 -0.7988
 4784TIP3   OH214357   5.765   5.336   4.639 -0.1868  0.2812  0.3584
 4784TIP3    H114358   5.765   5.405   4.573 -1.0009 -1.1947 -1.2633
 4784TIP3    H214359   5.712   5.371   4.710 -0.6930  1.2792 -0.4877
 4785TIP3   OH214360   1.217   5.430   1.490  0.3412  0.5911  0.3268
 4785TIP3    H114361   1.289   5.486   1.518  0.7402  1.0775 -1.5307
 4785TIP3    H214362   1.259   5.356   1.446 -0.1040 -2.0361  3.8980
 4786TIP3   OH214363   4.067   0.408   1.498  0.0157  0.2713  0.0943
 4786TIP3    H114364   3.995   0.452   1.454 -0.8392  0.1081  1.2717
 4786TIP3    H214365   4.139   0.410   1.435  0.0479  3.3634  0.0968
 4787TIP3   OH214366   2.158   1.939   0.762 -0.0633  0.2183 -0.2657
 4787TIP3    H114367   2.125   1.981   0.683  0.6690  0.7136 -0.3154
 4787TIP3    H214368   2.184   2.011   0.819  0.4978 -0.1580 -0.0394
 4788TIP3   OH214369   3.129   4.436   2.302  0.1326 -0.2402 -0.4510
 4788TIP3    H114370   3.118   4.342   2.290 -1.1436 -0.3264  1.1353
 4788TIP3    H214371   3.211   4.445   2.352  0.1438 -0.5183 -0.4206
 4789TIP3   OH214372   3.173   1.651   4.375  0.3692 -0.7609 -0.0388
 4789TIP3    H114373   3.179   1.698   4.291  0.7528  1.4771  1.1502
 4789TIP3    H214374   3.141   1.564   4.352  0.8785 -0.3679 -2.5496
 4790TIP3   OH214375   5.186   5.841   1.433  0.3226 -0.4290 -0.4350
 4790TIP3    H114376   5.259   5.899   1.454  0.0005  0.1170 -0.7902
 4790TIP3    H214377   5.119   5.900   1.398 -0.4506 -0.8594  0.2865
 4791TIP3   OH214378   0.835   5.038   3.679 -0.9743 -0.4707 -0.7266
 4791TIP3    H114379   0.784   4.992   3.612 -0.5421  0.3595 -1.6568
 4791TIP3    H214380   0.902   5.085   3.630 -1.4250  1.1726  0.1671
 4792TIP3   OH214381   0.177   0.421   0.144 -0.2642 -0.2809  0.0211
 4792TIP3    H114382   0.160   0.492   0.083  0.3475 -1.5711 -1.7531
 4792TIP3    H214383   0.273   0.416   0.150 -0.2408 -1.7254 -0.9272
 4793TIP3   OH214384   3.016   2.424   0.603  0.1994  0.3290 -0.4097
 4793TIP3    H114385   2.937   2.371   0.600  0.6159 -0.6027  2.6492
 4793TIP3    H214386   3.088   2.361   0.601  0.7284  0.8063  1.4376
 4794TIP3   OH214387   5.915   0.028   3.689  0.4915 -0.5290 -0.6364
 4794TIP3    H114388   5.928   0.064   3.602  0.2654  3.1973  0.6848
 4794TIP3    H214389   6.002   0.003   3.718  0.7608 -0.5015 -1.4083
 4795TIP3   OH214390   0.961   0.409   0.799  0.2090  0.4239  0.0986
 4795TIP3    H114391   0.975   0.329   0.749 -2.0436  1.3108 -2.1507
 4795TIP3    H214392   0.968   0.382   0.891  0.2317 -2.1607 -0.5978
 4796TIP3   OH214393   3.951   1.176   4.932 -0.2478 -0.0375 -0.4859
 4796TIP3    H114394   3.936   1.227   5.011 -2.8903 -0.3393 -0.6978
 4796TIP3    H214395   4.018   1.225   4.884  0.5622  0.7673  1.3606
 4797TIP3   OH214396   1.334   3.767   3.735  0.4612  0.0496  0.0188
 4797TIP3    H114397   1.312   3.689   3.786 -0.0827  1.1161  1.5058
 4797TIP3    H214398   1.429   3.762   3.723  0.3250 -1.2225 -0.5832
 4798TIP3   OH214399   0.736   0.057   2.659 -0.1823 -0.0385 -0.7638
 4798TIP3    H114400   0.652   0.088   2.624 -0.4416 -0.0091 -0.1280
 4798TIP3    H214401   0.747  -0.030   2.621 -0.8564 -0.3365 -0.2944
 4799TIP3   OH214402   4.744   2.357   3.581  0.2219  0.1395 -0.1401
 4799TIP3    H114403   4.752   2.338   3.675 -0.5364  0.5897  0.0247
 4799TIP3    H214404   4.665   2.410   3.574  1.6315  2.2543 -0.7309
 4800TIP3   OH214405   4.495   3.078   0.476  0.0128 -0.3939  0.4970
 4800TIP3    H114406   4.486   3.027   0.556  1.7194  0.4250  1.2578
 4800TIP3    H214407   4.590   3.080   0.459 -0.2542 -0.0033 -1.1865
 4801TIP3   OH214408   4.735   3.825   3.564 -0.3608  0.7109  0.0395
 4801TIP3    H114409   4.722   3.898   3.624  1.3876  0.5511  0.6646
 4801TIP3    H214410   4.649   3.813   3.522 -1.4780  1.1833  2.0665
 4802TIP3   OH214411   5.595   5.139   4.938  0.3176  0.0462 -0.3489
 4802TIP3    H114412   5.664   5.074   4.952 -0.2946 -1.1060 -2.3369
 4802TIP3    H214413   5.593   5.189   5.019  1.6988 -1.5858  0.7657
 4803TIP3   OH214414   6.169   2.858   1.356  0.2757 -0.5694  0.4605
 4803TIP3    H114415   6.212   2.819   1.432  0.0377 -0.2928  0.7338
 4803TIP3    H214416   6.090   2.898   1.390 -0.6234 -1.7554 -0.1600
 4804TIP3   OH214417   5.060   5.736   3.313 -0.7535 -0.0643 -0.1092
 4804TIP3    H114418   5.035   5.746   3.221  2.7658  0.1432 -1.1743
 4804TIP3    H214419   5.083   5.825   3.341  1.6883 -0.5812 -0.2437
 4805TIP3   OH214420   1.000   4.457   3.147  0.4704  0.2180  0.1460
 4805TIP3    H114421   1.092   4.481   3.159  0.5193  1.2292 -1.8544
 4805TIP3    H214422   0.957   4.539   3.122 -0.2150 -0.8769 -2.6298
 4806TIP3   OH214423   0.723   0.721   2.732 -0.1280  0.4587  0.2436
 4806TIP3    H114424   0.696   0.770   2.654 -3.0464  0.9687  1.4274
 4806TIP3    H214425   0.702   0.630   2.712  2.3544  0.0157 -0.7579
 4807TIP3   OH214426   4.932   2.625   1.601  0.3248 -0.0173 -0.0796
 4807TIP3    H114427   4.853   2.652   1.555  1.0886  0.4331 -1.1779
 4807TIP3    H214428   5.000   2.622   1.533  0.5209 -3.9861  0.0366
 4808TIP3   OH214429   6.094   2.610   0.994 -0.1246  0.2460  0.3124
 4808TIP3    H114430   6.148   2.650   1.063  0.3108 -0.8554  0.6480
 4808TIP3    H214431   6.136   2.636   0.912 -0.2862  1.0692  0.4881
 4809TIP3   OH214432   6.261   1.420   1.639  0.0323 -0.5268 -0.3982
 4809TIP3    H114433   6.244   1.341   1.587  0.0340  1.1640 -3.1279
 4809TIP3    H214434   6.354   1.439   1.625  0.7666 -1.4859  2.5036
 4810TIP3   OH214435   4.249   4.378   2.141 -0.3750 -0.0631 -0.1040
 4810TIP3    H114436   4.336   4.418   2.146  0.6340 -2.1316  0.0431
 4810TIP3    H214437   4.230   4.371   2.048  0.0749 -0.4671 -0.1714
 4811TIP3   OH214438   5.581   4.483   1.885 -0.2523 -0.4528  0.5839
 4811TIP3    H114439   5.562   4.489   1.791  0.7948 -0.6478  0.3450
 4811TIP3    H214440   5.676   4.472   1.889 -0.4530 -2.0654  1.6111
 4812TIP3   OH214441   2.008   5.457   3.047 -0.0343  0.0447  0.0220
 4812TIP3    H114442   2.003   5.516   2.972 -2.7123  0.2043  0.2322
 4812TIP3    H214443   2.047   5.377   3.013  0.3438  0.6970 -1.1119
 4813TIP3   OH214444   4.179   4.706   2.831  0.3856  0.2050  0.4885
 4813TIP3    H114445   4.175   4.797   2.859 -0.8179 -0.3184  2.1936
 4813TIP3    H214446   4.180   4.656   2.913 -1.1527 -1.3730 -0.3892
 4814TIP3   OH214447   1.846   3.323   3.252 -0.4056  0.0277 -0.9138
 4814TIP3    H114448   1.773   3.329   3.190  0.7248  1.4492 -2.2095
 4814TIP3    H214449   1.882   3.235   3.239 -1.8885 -0.7136 -0.2049
 4815TIP3   OH214450   0.089   3.406   0.904 -0.4932  0.3409  0.3878
 4815TIP3    H114451   0.035   3.459   0.962 -0.2919  3.2589 -1.8551
 4815TIP3    H214452   0.175   3.447   0.906  0.1333 -0.8761 -0.2513
 4816TIP3   OH214453   3.674   4.671   1.450  0.0986 -0.0767  0.6102
 4816TIP3    H114454   3.689   4.586   1.407  0.5991  0.2822  0.0556
 4816TIP3    H214455   3.732   4.670   1.526 -1.2625 -0.9790  1.6845
 4817TIP3   OH214456   3.418   5.344   1.902  0.0252 -0.1318  0.1538
 4817TIP3    H114457   3.338   5.378   1.861  0.3555  0.8153  0.2640
 4817TIP3    H214458   3.404   5.250   1.908 -0.9363 -0.0179 -0.1526
 4818TIP3   OH214459   5.769   1.256   1.148  0.1391 -0.0043  0.5379
 4818TIP3    H114460   5.715   1.224   1.075 -0.6098  2.3493 -0.0543
 4818TIP3    H214461   5.859   1.244   1.118 -0.0983 -1.4542  0.3541
 4819TIP3   OH214462   4.110   5.983   3.977  0.6603 -0.1005  0.6173
 4819TIP3    H114463   4.172   6.047   4.012  0.2103  0.2150  0.8337
 4819TIP3    H214464   4.143   5.898   4.008  2.0455 -0.1399 -0.7916
 4820TIP3   OH214465   3.877   3.852   1.896  0.6059 -0.0702  0.2032
 4820TIP3    H114466   3.864   3.884   1.807  0.8326 -1.0687 -0.1992
 4820TIP3    H214467   3.789   3.833   1.927  0.6528 -1.6718 -0.5641
 4821TIP3   OH214468   2.584   1.010   1.397 -0.4237 -0.4742  0.3534
 4821TIP3    H114469   2.669   1.053   1.414  0.2618 -1.4105 -0.5788
 4821TIP3    H214470   2.601   0.917   1.410 -1.0881 -0.7543 -0.6835
 4822TIP3   OH214471   3.584   2.613   1.768 -0.4410 -0.2363 -0.2395
 4822TIP3    H114472   3.563   2.528   1.729 -0.4570 -0.4289  0.1892
 4822TIP3    H214473   3.678   2.609   1.786 -1.1765 -2.0890  4.3262
 4823TIP3   OH214474   6.361   1.133   0.255 -0.2400 -0.3014 -0.2000
 4823TIP3    H114475   6.358   1.210   0.198  0.1175  0.2072  0.4663
 4823TIP3    H214476   6.270   1.120   0.283 -0.0657  0.8663  0.9902
 4824TIP3   OH214477   5.599   5.614   0.246  0.3578 -0.6124 -0.2862
 4824TIP3    H114478   5.632   5.617   0.156 -2.3119  0.5076 -1.3598
 4824TIP3    H214479   5.518   5.665   0.242  0.9724  0.9149  3.1550
 4825TIP3   OH214480   3.212   3.688   1.533  0.0705  0.2628 -0.1702
 4825TIP3    H114481   3.281   3.623   1.544 -0.0452  0.2903  0.8116
 4825TIP3    H214482   3.255   3.772   1.551 -0.3018  0.2402  0.9625
 4826TIP3   OH214483   1.803   0.507   0.422  0.1829  0.4180  0.2174
 4826TIP3    H114484   1.772   0.561   0.495  0.8815 -0.3999  1.1334
 4826TIP3    H214485   1.819   0.421   0.460 -1.6655 -0.7233 -1.3525
 4827TIP3   OH214486   4.811   0.651   4.724  0.5030  0.4343  0.2600
 4827TIP3    H114487   4.717   0.637   4.740  0.4858 -1.3728 -1.1062
 4827TIP3    H214488   4.855   0.602   4.793  0.4298  0.0036  0.0056
 4828TIP3   OH214489   5.560   4.455   1.298 -0.7668 -0.4033  0.4116
 4828TIP3    H114490   5.615   4.427   1.226  0.2478  0.7454  0.7087
 4828TIP3    H214491   5.508   4.527   1.263 -0.8828 -0.3942  0.5966
 4829TIP3   OH214492   0.660   5.521   0.302  0.0013  0.0323 -0.0241
 4829TIP3    H114493   0.605   5.452   0.339  0.2492 -1.4739 -2.2371
 4829TIP3    H214494   0.635   5.523   0.209  4.3591 -1.6173 -1.4948
 4830TIP3   OH214495   3.487   4.184   1.713  0.2662 -0.1832 -0.3449
 4830TIP3    H114496   3.556   4.241   1.679 -1.0136  2.4468  1.1916
 4830TIP3    H214497   3.526   4.142   1.790  0.9632 -0.8454 -1.0358
 4831TIP3   OH214498   5.160   5.295   4.689 -0.1307  0.1467 -0.4120
 4831TIP3    H114499   5.126   5.267   4.604 -1.2756  1.7836 -0.5449
 4831TIP3    H214500   5.082   5.318   4.739  0.6104  0.4910  0.6011
 4832TIP3   OH214501   6.265   1.098   1.636  0.0442 -0.0512 -0.5377
 4832TIP3    H114502   6.262   1.005   1.657 -0.2331  0.0584 -0.0609
 4832TIP3    H214503   6.208   1.108   1.560  0.1639 -0.2837 -0.6597
 4833TIP3   OH214504   3.454   5.104   3.738  0.4180 -0.0740  0.3078
 4833TIP3    H114505   3.499   5.019   3.748 -0.1381 -0.3762  0.2686
 4833TIP3    H214506   3.512   5.155   3.681  1.2895 -0.0418  1.1880
 4834TIP3   OH214507   3.545   5.595   1.377 -0.0047  0.2104  0.0084
 4834TIP3    H114508   3.482   5.624   1.443 -2.9472 -2.9771 -1.1038
 4834TIP3    H214509   3.536   5.659   1.306  0.2212  1.3932  1.0009
 4835TIP3   OH214510   3.429   1.944   1.105  0.7821  0.1680  0.1083
 4835TIP3    H114511   3.414   1.872   1.044  1.2294  0.8702 -0.8587
 4835TIP3    H214512   3.465   2.014   1.051  1.7267  0.6265  1.2762
 4836TIP3   OH214513   1.285   0.990   4.152  0.2158 -0.1254  0.2446
 4836TIP3    H114514   1.225   0.948   4.090 -0.0635  0.9131 -0.2124
 4836TIP3    H214515   1.231   1.056   4.195  0.7683  0.0957  0.5990
 4837TIP3   OH214516   2.757   2.965   1.058  0.2700  0.2201 -0.2185
 4837TIP3    H114517   2.781   2.915   0.980 -0.2382  1.7135 -1.3842
 4837TIP3    H214518   2.754   2.901   1.128  1.2594 -1.0812 -1.3260
 4838TIP3   OH214519   2.016   1.900   3.729  0.3854  0.0334  0.4376
 4838TIP3    H114520   2.097   1.876   3.774  0.2143 -0.6176  0.4121
 4838TIP3    H214521   2.044   1.950   3.653  0.9026 -1.8347 -0.6587
 4839TIP3   OH214522   2.547   3.847   3.882 -0.2620  0.0712 -0.4458
 4839TIP3    H114523   2.565   3.941   3.885  0.1828 -0.0209 -0.2019
 4839TIP3    H214524   2.618   3.807   3.932 -0.5704 -0.3791 -0.3613
 4840TIP3   OH214525   4.263   1.094   2.917  0.1651  0.4731  0.6691
 4840TIP3    H114526   4.227   1.180   2.897 -0.6153  0.0993  0.3666
 4840TIP3    H214527   4.223   1.070   3.000  0.4438  0.4391  0.7935
 4841TIP3   OH214528   0.655   2.494   3.072 -0.4142 -0.0894  0.1453
 4841TIP3    H114529   0.570   2.529   3.099 -0.3426 -0.9542  1.5936
 4841TIP3    H214530   0.637   2.445   2.992 -1.5106 -1.2305  1.0621
 4842TIP3   OH214531   3.407   0.068   3.167 -0.1310  0.1955  0.7370
 4842TIP3    H114532   3.423   0.162   3.162 -0.4828  0.2785  1.1392
 4842TIP3    H214533   3.430   0.035   3.080  1.5955  0.3878  1.0870
 4843TIP3   OH214534   6.090   1.603   2.943 -0.2475 -0.1398  0.4534
 4843TIP3    H114535   6.108   1.540   3.013 -1.1860  0.0239  0.8443
 4843TIP3    H214536   6.114   1.556   2.863 -0.9974 -1.0231  0.7348
 4844TIP3   OH214537   1.364   3.144   3.001  0.6936  0.1749  0.1822
 4844TIP3    H114538   1.418   3.078   3.045 -1.4729 -2.7016 -1.1428
 4844TIP3    H214539   1.379   3.128   2.908  0.4925  1.9634 -0.1942
 4845TIP3   OH214540   3.215   0.223   4.496  0.3982 -0.1262  0.0182
 4845TIP3    H114541   3.213   0.238   4.591  0.4481  1.3943 -0.1976
 4845TIP3    H214542   3.178   0.136   4.485  1.0986 -0.6403  1.4948
 4846TIP3   OH214543   1.978   3.066   3.204  0.4454 -0.1800 -0.1127
 4846TIP3    H114544   1.949   2.975   3.194  0.0551  0.0097 -0.8191
 4846TIP3    H214545   2.073   3.062   3.203  0.4282 -0.5346 -0.7047
 4847TIP3   OH214546   3.929   5.135   4.756 -0.1383 -0.5340 -0.2379
 4847TIP3    H114547   3.877   5.149   4.677 -0.9063  2.1231  0.6374
 4847TIP3    H214548   3.991   5.208   4.757  0.8504 -1.3462  0.9036
 4848TIP3   OH214549   4.669   5.910   0.736  0.3035  0.5373 -0.3995
 4848TIP3    H114550   4.579   5.939   0.751 -1.0941 -2.7325 -1.5903
 4848TIP3    H214551   4.692   5.860   0.815 -0.3335 -1.5771 -1.4781
 4849TIP3   OH214552   5.536   1.696   1.789 -0.1862 -0.3915  0.2231
 4849TIP3    H114553   5.517   1.780   1.832 -0.1834  0.2428 -0.9692
 4849TIP3    H214554   5.449   1.658   1.772 -0.1665 -1.1705  1.7563
 4850TIP3   OH214555   4.693   0.641   3.949 -0.2868 -0.3383  0.3915
 4850TIP3    H114556   4.634   0.615   4.019 -0.3075 -1.3126  0.0309
 4850TIP3    H214557   4.781   0.624   3.983 -0.3301 -2.1750 -0.2961
 4851TIP3   OH214558   3.747   4.718   0.896  0.1140 -0.1409 -0.2546
 4851TIP3    H114559   3.820   4.761   0.940 -0.4313  0.9782 -0.4036
 4851TIP3    H214560   3.723   4.778   0.825 -0.3988 -0.8969 -0.7318
 4852TIP3   OH214561   6.040   2.551   2.015 -0.5358 -0.2353  0.3739
 4852TIP3    H114562   6.052   2.629   1.960 -1.5818  0.6709  1.3706
 4852TIP3    H214563   6.088   2.482   1.970  3.1019  1.6568  1.0259
 4853TIP3   OH214564   3.832   5.278   3.991 -0.1141  0.5952 -0.4894
 4853TIP3    H114565   3.782   5.337   4.048  0.4826 -1.4945  2.4239
 4853TIP3    H214566   3.923   5.293   4.016  0.1271 -0.6584 -0.5734
 4854TIP3   OH214567   3.146   5.513   4.206 -0.0533  0.2645  0.2500
 4854TIP3    H114568   3.091   5.563   4.266 -2.7095 -1.6935 -0.3898
 4854TIP3    H214569   3.165   5.432   4.253 -0.0343 -0.2311 -0.5879
 4855TIP3   OH214570   1.954   1.776   1.734  0.1171  0.5351  0.1963
 4855TIP3    H114571   1.899   1.698   1.729 -0.0452  0.3073  3.2589
 4855TIP3    H214572   2.042   1.744   1.714 -0.0813 -0.2535  0.5483
 4856TIP3   OH214573   0.017   0.201   0.940  0.6139 -0.1036  0.0176
 4856TIP3    H114574   0.055   0.181   1.025  0.3377 -0.4034  0.0694
 4856TIP3    H214575  -0.069   0.239   0.960  0.9310  0.7059 -0.0937
 4857TIP3   OH214576   5.382   1.944   0.144  0.2743  0.4811  0.1911
 4857TIP3    H114577   5.327   1.913   0.073  0.5296  3.8989 -1.7356
 4857TIP3    H214578   5.467   1.960   0.103  0.4306  2.5557  1.1870
 4858TIP3   OH214579   6.272   5.388   3.375  0.3413  0.2430  0.5518
 4858TIP3    H114580   6.310   5.456   3.432  1.2268 -0.3239  0.6654
 4858TIP3    H214581   6.269   5.310   3.431  0.6105 -0.1512  0.0231
 4859TIP3   OH214582   3.404   3.659   4.026 -0.4578  0.2056  0.4595
 4859TIP3    H114583   3.330   3.705   3.985 -0.8801 -1.5341 -0.8341
 4859TIP3    H214584   3.368   3.628   4.110 -0.7806  0.4818  0.4286
 4860TIP3   OH214585   1.204   2.001   0.540  0.3816  0.6323  0.2451
 4860TIP3    H114586   1.297   1.990   0.559  0.4543  0.3284 -0.2904
 4860TIP3    H214587   1.174   1.914   0.515 -0.9225 -0.2557  4.0837
 4861TIP3   OH214588   4.099   1.958   3.987  0.5048  0.3412 -0.1084
 4861TIP3    H114589   4.125   1.908   4.065  0.0690  1.9467  1.1111
 4861TIP3    H214590   4.181   1.981   3.944  0.8508  0.9226  0.8464
 4862TIP3   OH214591   5.044   1.307   2.777 -0.4331  0.1519  0.4300
 4862TIP3    H114592   4.972   1.364   2.803  0.4097  0.4310  2.4060
 4862TIP3    H214593   5.120   1.366   2.774 -0.0658 -0.3566 -0.4110
 4863TIP3   OH214594   2.831   2.825   3.104  0.3120 -0.7678  0.4286
 4863TIP3    H114595   2.897   2.869   3.158 -1.0693  1.0467  0.7329
 4863TIP3    H214596   2.787   2.765   3.164  2.0936 -2.5739  0.0513
 4864TIP3   OH214597   2.255   2.883   1.808  0.5568 -0.3255 -0.2798
 4864TIP3    H114598   2.260   2.968   1.765  1.6303  0.8309  1.9726
 4864TIP3    H214599   2.184   2.837   1.763 -2.4818  3.0787  0.6822
 4865TIP3   OH214600   2.142   0.185   4.985  0.2650  0.2105 -0.0325
 4865TIP3    H114601   2.203   0.111   4.984  1.4816  1.1027  1.7160
 4865TIP3    H214602   2.087   0.169   5.062  0.6937  1.1938  0.4980
 4866TIP3   OH214603   3.802   3.968   4.462 -0.5687 -0.0498 -0.5858
 4866TIP3    H114604   3.851   4.000   4.386  0.2700  1.9399  0.7026
 4866TIP3    H214605   3.710   3.979   4.438 -0.3706 -1.0400 -1.9132
 4867TIP3   OH214606   4.402   3.086   2.873 -0.3179  0.4591  0.2534
 4867TIP3    H114607   4.347   3.120   2.803  0.9163  0.9440 -0.5083
 4867TIP3    H214608   4.345   3.026   2.921 -1.8318  1.7977  0.1894
 4868TIP3   OH214609   4.098   1.355   1.963 -0.3134 -0.2196  1.0099
 4868TIP3    H114610   4.109   1.284   1.900 -1.7413  0.0112  0.4764
 4868TIP3    H214611   4.005   1.354   1.985  0.1288 -0.3286  3.1868
 4869TIP3   OH214612   2.691   5.567   4.492 -0.3789  0.3966 -0.1520
 4869TIP3    H114613   2.734   5.613   4.420  0.2724  0.7890  0.4785
 4869TIP3    H214614   2.717   5.476   4.480 -0.5506  0.4043 -0.6104
 4870TIP3   OH214615   4.445   0.772   0.389  0.0529  0.4563  0.2259
 4870TIP3    H114616   4.485   0.710   0.328  2.3656  0.1445  1.8860
 4870TIP3    H214617   4.401   0.717   0.454 -1.8597  0.7604 -0.7679
 4871TIP3   OH214618   5.377   0.599   1.772  0.5975 -0.1101 -0.3207
 4871TIP3    H114619   5.391   0.506   1.754  1.1673 -0.0978  0.0491
 4871TIP3    H214620   5.319   0.629   1.701  0.0775 -0.8322 -0.2103
 4872TIP3   OH214621   3.801   2.052   1.361 -0.1722 -0.3020  0.6630
 4872TIP3    H114622   3.883   2.098   1.346 -0.7200  0.5471  0.1967
 4872TIP3    H214623   3.743   2.082   1.292 -0.4433 -2.0143  0.0970
 4873TIP3   OH214624   3.800   5.570   4.768 -0.4902  0.2546  0.3348
 4873TIP3    H114625   3.820   5.566   4.674 -0.3515  0.6510  0.3473
 4873TIP3    H214626   3.884   5.589   4.810 -0.5680  0.1630  0.5342
 4874TIP3   OH214627   2.806   3.326   3.711  0.1367  0.0402  0.1532
 4874TIP3    H114628   2.846   3.408   3.684 -1.9525  0.8315 -0.7344
 4874TIP3    H214629   2.773   3.343   3.799  0.0376  0.0139  0.1208
 4875TIP3   OH214630   2.493   4.534   2.398 -0.6137 -0.0876  0.0494
 4875TIP3    H114631   2.477   4.608   2.456 -0.5074  0.4326 -0.5770
 4875TIP3    H214632   2.522   4.573   2.316  0.4275 -0.8480  0.0221
 4876TIP3   OH214633   2.190   2.577   1.026  0.3583 -0.8650  0.0357
 4876TIP3    H114634   2.115   2.526   1.055 -0.0354 -0.6117 -0.5329
 4876TIP3    H214635   2.260   2.552   1.087 -0.1529 -1.1694  0.5134
 4877TIP3   OH214636   1.603   2.734   1.314  0.4429 -0.6420  0.2744
 4877TIP3    H114637   1.527   2.739   1.372  0.2060 -0.0305 -0.0788
 4877TIP3    H214638   1.608   2.642   1.289 -1.6057 -0.3479 -1.5602
 4878TIP3   OH214639   1.650   4.330   4.968 -0.2895 -0.0526 -0.0459
 4878TIP3    H114640   1.617   4.419   4.958  1.7626  0.8422  0.7132
 4878TIP3    H214641   1.632   4.307   5.060 -0.0441 -0.0804 -0.0030
 4879TIP3   OH214642   4.033   4.418   2.407  0.1471  0.2978  0.4743
 4879TIP3    H114643   4.072   4.345   2.455 -2.2336 -1.6872 -0.4222
 4879TIP3    H214644   4.051   4.495   2.462 -1.3766 -1.6492  4.0336
 4880TIP3   OH214645   2.172   1.154   1.353 -0.5043 -0.0851 -0.1739
 4880TIP3    H114646   2.126   1.131   1.434  0.3312 -1.0365  0.0510
 4880TIP3    H214647   2.116   1.119   1.283 -0.4163 -0.7538  0.0776
 4881TIP3   OH214648   0.036   5.139   0.899  0.6351 -0.0224  0.0784
 4881TIP3    H114649   0.022   5.053   0.941 -1.5914  0.5989  0.7330
 4881TIP3    H214650  -0.013   5.200   0.954  2.3554  1.7529 -0.2518
 4882TIP3   OH214651   1.658   2.366   3.381 -0.3149  0.9199  0.3226
 4882TIP3    H114652   1.715   2.435   3.414 -0.0054  0.1512  1.4493
 4882TIP3    H214653   1.583   2.366   3.441 -0.2797  0.2417  0.3746
 4883TIP3   OH214654   0.428   1.887   4.010  0.8704 -0.3257 -0.0043
 4883TIP3    H114655   0.401   1.883   4.101  1.7190  0.6422  0.3072
 4883TIP3    H214656   0.523   1.885   4.012  0.9050 -0.1581 -0.8609
 4884TIP3   OH214657   3.932   3.705   0.546 -0.2410 -0.1633 -0.0656
 4884TIP3    H114658   3.926   3.800   0.533 -1.8782  0.0625  1.8392
 4884TIP3    H214659   3.928   3.693   0.640 -0.6053 -2.1617 -0.2854
 4885TIP3   OH214660   5.506   4.076   0.518  0.3710  0.5736 -0.4168
 4885TIP3    H114661   5.492   3.989   0.554 -0.7512  1.2106  0.7796
 4885TIP3    H214662   5.588   4.105   0.557  1.5630 -0.4987 -2.0123
 4886TIP3   OH214663   5.059   5.161   2.731 -0.4262 -0.0470 -0.4496
 4886TIP3    H114664   5.042   5.131   2.820  1.8918 -0.4389 -0.0747
 4886TIP3    H214665   4.976   5.148   2.685 -1.4942 -0.4196  1.4686
 4887TIP3   OH214666   2.922   3.528   2.283  0.2716 -0.2408  0.0356
 4887TIP3    H114667   2.872   3.486   2.213  2.3014 -2.0506 -0.4516
 4887TIP3    H214668   3.008   3.486   2.279  1.5576  2.0556  1.4129
 4888TIP3   OH214669   3.680   5.349   2.620  0.1361 -0.5688 -0.0657
 4888TIP3    H114670   3.715   5.408   2.553  0.6212 -0.5996  0.1545
 4888TIP3    H214671   3.756   5.299   2.650  0.2280  0.4763  1.5625
 4889TIP3   OH214672   5.875   5.853   2.286  0.5941 -0.2623  0.7023
 4889TIP3    H114673   5.889   5.897   2.203  1.3101  0.2903  1.1001
 4889TIP3    H214674   5.818   5.912   2.335 -1.2841 -1.3979 -0.0210
 4890TIP3   OH214675   0.280   2.636   1.522 -0.1439 -0.0750 -0.6273
 4890TIP3    H114676   0.286   2.643   1.427  0.5470 -0.3567 -0.6132
 4890TIP3    H214677   0.371   2.631   1.551 -0.3812 -1.6144 -0.0752
 4891TIP3   OH214678   0.190   4.800   4.082 -0.3463  0.3910  0.1338
 4891TIP3    H114679   0.163   4.763   4.166 -0.3177 -0.7640 -0.3437
 4891TIP3    H214680   0.237   4.880   4.105 -1.4440  0.7699  1.1370
 4892TIP3   OH214681   1.616   4.239   1.865 -0.3145  0.1351 -0.5942
 4892TIP3    H114682   1.535   4.249   1.816  0.1383  0.4091 -1.3034
 4892TIP3    H214683   1.639   4.146   1.856 -0.7481 -0.0294 -0.0595
 4893TIP3   OH214684   0.962   5.136   3.893  0.2883 -0.2151 -0.5082
 4893TIP3    H114685   1.028   5.199   3.866 -1.5513  0.7067 -3.2647
 4893TIP3    H214686   0.926   5.102   3.812 -1.4508 -1.9612  0.8876
 4894TIP3   OH214687   3.367   2.927   4.484  0.0107  0.0941 -0.1960
 4894TIP3    H114688   3.334   3.017   4.477  0.9174  0.6730  2.2462
 4894TIP3    H214689   3.342   2.887   4.400 -1.6358  2.1881 -0.8154
 4895TIP3   OH214690   2.651   1.716   0.428  0.6672 -0.5245 -0.2650
 4895TIP3    H114691   2.618   1.670   0.350  3.2978  0.6416 -2.2031
 4895TIP3    H214692   2.726   1.665   0.456  0.4782 -0.2464  0.7837
 4896TIP3   OH214693   2.444   1.549   1.575 -0.3993 -0.4149 -0.2477
 4896TIP3    H114694   2.402   1.573   1.493  0.3242 -0.8302 -0.7527
 4896TIP3    H214695   2.537   1.540   1.553  0.4917  3.1635  1.3641
 4897TIP3   OH214696   3.067   1.296   0.685  1.0773 -0.2765  0.1712
 4897TIP3    H114697   3.052   1.308   0.592  0.7043  3.7675  0.5839
 4897TIP3    H214698   3.154   1.332   0.701  1.0822 -0.7699  1.4123
 4898TIP3   OH214699   0.059   3.546   1.618  0.1913  0.0543  0.5923
 4898TIP3    H114700   0.060   3.468   1.673  0.8001  0.2265  0.8370
 4898TIP3    H214701   0.151   3.571   1.610  0.2500 -0.7230 -1.6092
 4899TIP3   OH214702   4.621   4.470   0.333  0.0067 -0.1142  0.2912
 4899TIP3    H114703   4.570   4.546   0.306 -1.5205 -1.1328  0.1583
 4899TIP3    H214704   4.589   4.398   0.278 -1.1118 -1.6013  2.7124
 4900TIP3   OH214705   1.141   1.766   0.399  0.1764  0.7330 -0.4222
 4900TIP3    H114706   1.048   1.751   0.386 -0.1913  2.4723 -0.0495
 4900TIP3    H214707   1.176   1.680   0.422 -1.4437  0.1623  0.0623
 4901TIP3   OH214708   0.433   4.114   4.594 -0.1008 -0.2455 -0.5054
 4901TIP3    H114709   0.493   4.056   4.640  1.1975  2.0570  0.8661
 4901TIP3    H214710   0.455   4.103   4.501  1.5134 -0.4820 -0.1228
 4902TIP3   OH214711   1.815   1.481   1.374  0.4340  0.2798  0.0170
 4902TIP3    H114712   1.776   1.490   1.461 -1.3376  2.3896 -0.8915
 4902TIP3    H214713   1.755   1.528   1.316  2.4889  0.5117 -2.0812
 4903TIP3   OH214714   1.926   1.954   3.996  0.2419  0.1457 -0.2139
 4903TIP3    H114715   1.962   1.952   3.907  1.6462  0.6103  0.3185
 4903TIP3    H214716   1.997   1.923   4.052 -0.9006 -0.9470  0.6865
 4904TIP3   OH214717   4.281   2.468   3.820  0.7040  0.1344  0.0862
 4904TIP3    H114718   4.277   2.425   3.735 -0.8528  0.3047  0.0348
 4904TIP3    H214719   4.236   2.552   3.806 -1.0421 -0.4999  1.4144
 4905TIP3   OH214720   2.779   2.487   0.352 -0.8425  0.5939  0.1237
 4905TIP3    H114721   2.701   2.455   0.306  0.3276 -1.8078 -0.3092
 4905TIP3    H214722   2.781   2.437   0.434  0.9618 -0.4073 -0.4905
 4906TIP3   OH214723   4.647   5.177   0.401 -0.3238 -0.4930  0.3936
 4906TIP3    H114724   4.630   5.127   0.321 -2.0831 -0.1172  0.4853
 4906TIP3    H214725   4.722   5.233   0.379 -0.9340 -0.2070 -1.0948
 4907TIP3   OH214726   4.701   2.197   1.708 -0.4208  0.4883 -0.3126
 4907TIP3    H114727   4.790   2.180   1.739 -1.1848 -1.1872  1.1210
 4907TIP3    H214728   4.710   2.207   1.613  1.3314  0.7230 -0.1503
 4908TIP3   OH214729   3.942   4.545   4.655  0.4242 -0.0389 -0.4114
 4908TIP3    H114730   4.004   4.570   4.723  2.3270 -1.9691 -1.3249
 4908TIP3    H214731   3.856   4.567   4.692  1.4167 -0.2778  2.2903
 4909TIP3   OH214732   3.014   0.601   4.161 -0.3520 -0.2697  0.6986
 4909TIP3    H114733   2.991   0.515   4.126 -0.5151  0.0584 -0.0399
 4909TIP3    H214734   3.065   0.583   4.239  0.0147 -1.0472  0.2928
 4910TIP3   OH214735   0.654   1.761   4.756  0.4574 -0.3077 -0.4638
 4910TIP3    H114736   0.729   1.704   4.742  1.5802  0.9775  0.1433
 4910TIP3    H214737   0.591   1.706   4.803  0.2862 -1.9123 -2.4112
 4911TIP3   OH214738   4.765   3.402   1.639 -0.3038 -0.0611  0.3031
 4911TIP3    H114739   4.818   3.481   1.654 -0.1906 -0.3215  1.3255
 4911TIP3    H214740   4.753   3.400   1.544  2.2854 -0.4859 -0.0826
 4912TIP3   OH214741   5.363   0.136   2.897  0.1955 -0.0018 -0.6137
 4912TIP3    H114742   5.307   0.182   2.835 -1.4570  0.5276  1.1721
 4912TIP3    H214743   5.422   0.203   2.931 -0.0154  0.0782 -0.4041
 4913TIP3   OH214744   1.861   0.655   3.776 -0.5499 -0.1683 -0.1780
 4913TIP3    H114745   1.872   0.681   3.685  0.9074  0.3203  0.1199
 4913TIP3    H214746   1.844   0.561   3.773 -0.1784 -0.2139 -0.9329
 4914TIP3   OH214747   0.770   0.910   1.960  0.0780 -0.4700  0.0646
 4914TIP3    H114748   0.712   0.910   2.036  0.6811 -2.0017  0.5607
 4914TIP3    H214749   0.726   0.854   1.896 -0.6952  1.2534 -0.9661
 4915TIP3   OH214750   0.303   2.533   4.029  0.9771 -0.1430 -0.4248
 4915TIP3    H114751   0.313   2.455   3.974 -0.8841 -0.8330  0.1470
 4915TIP3    H214752   0.364   2.520   4.100  0.8487 -0.9827 -0.4605
 4916TIP3   OH214753   1.331   5.219   2.440  0.3441 -0.6357 -0.1527
 4916TIP3    H114754   1.288   5.205   2.355  0.4408  0.9783 -0.5013
 4916TIP3    H214755   1.424   5.225   2.418  0.7334 -3.2017  0.4833
 4917TIP3   OH214756   2.880   1.537   0.457 -0.0110 -0.1575  0.3755
 4917TIP3    H114757   2.943   1.476   0.420 -1.9194 -1.7191 -0.4747
 4917TIP3    H214758   2.851   1.497   0.539  1.1932  1.3177  1.5871
 4918TIP3   OH214759   0.968   5.534   1.511  0.6075  0.4845  0.0874
 4918TIP3    H114760   0.991   5.619   1.551  1.9179  0.4009 -0.4178
 4918TIP3    H214761   1.051   5.485   1.513 -0.1759 -0.8604  0.5396
 4919TIP3   OH214762   3.379   3.313   2.148  0.0771  0.3810 -0.3358
 4919TIP3    H114763   3.305   3.318   2.209 -0.1359 -0.1734 -0.5479
 4919TIP3    H214764   3.444   3.373   2.185 -0.1777  0.2921  0.2649
 4920TIP3   OH214765   1.494   4.053   0.649  0.2263 -0.2703  0.5083
 4920TIP3    H114766   1.422   4.050   0.586  1.0695 -1.2815 -0.4261
 4920TIP3    H214767   1.450   4.052   0.735 -0.9160  0.7798 -0.0247
 4921TIP3   OH214768   3.673   0.074   1.414 -0.2076  0.3481  0.5049
 4921TIP3    H114769   3.620   0.146   1.449 -0.7158  0.2526 -0.0472
 4921TIP3    H214770   3.691   0.019   1.490 -0.8323  0.4300  0.7209
 4922TIP3   OH214771   4.573   0.750   2.374 -0.5202 -0.0218  0.3206
 4922TIP3    H114772   4.648   0.723   2.321 -1.5310  0.6341 -1.5338
 4922TIP3    H214773   4.561   0.678   2.437 -0.1089 -1.5193 -1.2354
 4923TIP3   OH214774   2.993   5.438   2.990 -0.0601 -0.3553  0.6607
 4923TIP3    H114775   3.050   5.510   3.018 -0.2371  0.0613 -0.0303
 4923TIP3    H214776   2.909   5.480   2.972 -0.0269 -0.6541 -0.2301
 4924TIP3   OH214777   2.100   3.910   3.138 -0.9576  0.0353 -0.1598
 4924TIP3    H114778   2.029   3.974   3.133 -3.2207 -2.2848  0.0947
 4924TIP3    H214779   2.074   3.851   3.209  2.3007  0.1959  1.3445
 4925TIP3   OH214780   1.326   4.055   4.981 -0.3913 -0.3666  0.3569
 4925TIP3    H114781   1.414   4.062   4.945 -0.7973 -0.0631 -0.6318
 4925TIP3    H214782   1.278   4.128   4.942 -0.9796 -0.2937  1.1866
 4926TIP3   OH214783   1.269   2.400   2.683  0.1831 -0.2922  0.0128
 4926TIP3    H114784   1.261   2.479   2.629  0.7574 -0.0245  0.3102
 4926TIP3    H214785   1.185   2.356   2.673 -0.3475  0.6322  0.2763
 4927TIP3   OH214786   0.616   1.087   0.162  0.4300 -0.5942  0.2864
 4927TIP3    H114787   0.670   1.099   0.240 -1.8892  1.2310  1.7577
 4927TIP3    H214788   0.629   1.167   0.111 -0.8920 -0.0874  0.7093
 4928TIP3   OH214789   0.877   2.879   4.193  0.2534  0.2400  0.0166
 4928TIP3    H114790   0.910   2.961   4.158 -0.6470  0.8563  0.5704
 4928TIP3    H214791   0.819   2.845   4.124 -0.7116  0.9373  0.4665
 4929TIP3   OH214792   5.745   2.704   1.997  0.3557  0.3066  0.0555
 4929TIP3    H114793   5.719   2.793   1.972 -0.8723 -0.2221 -0.5905
 4929TIP3    H214794   5.708   2.692   2.084  1.7953  0.9380  0.7952
 4930TIP3   OH214795   2.319   5.086   2.851 -0.5082  0.0239 -0.3838
 4930TIP3    H114796   2.238   5.129   2.822 -1.1541 -1.6696 -1.2227
 4930TIP3    H214797   2.335   5.019   2.785  0.5580 -0.9043  0.7725
 4931TIP3   OH214798   5.094   1.423   1.496 -0.3179 -0.4499 -0.2052
 4931TIP3    H114799   5.033   1.452   1.563  0.3001  0.5556 -0.0536
 4931TIP3    H214800   5.092   1.327   1.502  1.3669 -0.4267  2.8085
 4932TIP3   OH214801   3.266   3.128   3.607  0.1607 -0.2608 -0.8249
 4932TIP3    H114802   3.272   3.131   3.512  2.9436 -0.3330 -0.7421
 4932TIP3    H214803   3.349   3.166   3.637 -0.6151 -0.3151  1.5708
 4933TIP3   OH214804   4.124   2.948   1.360 -0.7292 -0.1453  0.1449
 4933TIP3    H114805   4.108   3.031   1.404 -0.5350  0.3690 -0.7229
 4933TIP3    H214806   4.050   2.938   1.300  0.4936  0.6514 -1.5542
 4934TIP3   OH214807   4.822   2.514   1.123  0.1840 -0.4249 -0.3996
 4934TIP3    H114808   4.886   2.585   1.114 -0.6264  0.6226  1.3617
 4934TIP3    H214809   4.751   2.538   1.063  0.0590  0.1203 -0.0475
 4935TIP3   OH214810   5.209   2.497   0.060  0.0981  0.6144  0.2429
 4935TIP3    H114811   5.206   2.432   0.130  0.8099 -0.3632 -0.5908
 4935TIP3    H214812   5.300   2.528   0.061  0.2899  0.1108 -0.6488
 4936TIP3   OH214813   1.609   3.096   1.898 -0.0706 -0.1359 -0.2334
 4936TIP3    H114814   1.629   3.064   1.810  1.4570 -2.0917  0.7309
 4936TIP3    H214815   1.681   3.155   1.920  0.9701 -1.6533  0.6056
 4937TIP3   OH214816   2.139   2.853   2.525  0.3231  0.2282  0.1661
 4937TIP3    H114817   2.069   2.805   2.482 -0.3629 -0.3107  1.8177
 4937TIP3    H214818   2.218   2.803   2.506  0.1968  0.5331 -1.2452
 4938TIP3   OH214819   2.146   5.972   5.066  0.1975  0.1608 -0.2617
 4938TIP3    H114820   2.071   5.912   5.057  0.2035  0.1897 -0.5032
 4938TIP3    H214821   2.222   5.915   5.068  0.1611  0.1223  0.1157
 4939TIP3   OH214822   0.707   1.875   3.331 -0.0277 -0.3083  0.1458
 4939TIP3    H114823   0.641   1.933   3.292  0.0129 -0.8450 -0.7547
 4939TIP3    H214824   0.765   1.854   3.258  0.9450 -0.1233  0.8563
 4940TIP3   OH214825   0.481   2.867   4.526  0.0988  0.6502  0.2200
 4940TIP3    H114826   0.547   2.805   4.495 -0.5438  0.5622 -1.0095
 4940TIP3    H214827   0.488   2.942   4.467 -0.9962  0.5781 -0.0183
 4941TIP3   OH214828   1.782   3.533   3.434 -0.5221  0.1416  0.3319
 4941TIP3    H114829   1.687   3.532   3.424 -0.4426  0.6451 -0.6223
 4941TIP3    H214830   1.815   3.474   3.366 -0.1491 -0.0879  0.7027
 4942TIP3   OH214831   4.097   2.045   5.111 -0.6721  0.2795 -0.1065
 4942TIP3    H114832   4.127   1.955   5.099 -0.7656  0.2726 -0.2950
 4942TIP3    H214833   4.037   2.060   5.038 -0.6159  0.5128 -0.1049
 4943TIP3   OH214834   0.648   0.189   0.420 -0.1273 -0.4530  0.2384
 4943TIP3    H114835   0.737   0.153   0.425  0.7181  1.4046 -0.4484
 4943TIP3    H214836   0.660   0.284   0.429 -1.9563 -0.0962 -0.5847
 4944TIP3   OH214837   3.222   3.594   4.622  0.0377 -0.1024 -0.2091
 4944TIP3    H114838   3.287   3.662   4.603  1.6296 -1.4481  0.2137
 4944TIP3    H214839   3.143   3.622   4.574  0.0427  2.9005  1.3147
 4945TIP3   OH214840   2.191   4.857   4.706 -0.6817  0.2080 -0.0241
 4945TIP3    H114841   2.150   4.782   4.662  0.1265 -0.5293  0.4283
 4945TIP3    H214842   2.220   4.913   4.635  1.3245 -1.3616 -0.5404
 4946TIP3   OH214843   5.876   0.844   1.133  0.2068  0.1276 -0.4790
 4946TIP3    H114844   5.819   0.906   1.088  0.6715  0.6468 -0.3615
 4946TIP3    H214845   5.877   0.767   1.077 -1.0715 -0.1125 -0.1983
 4947TIP3   OH214846   5.180   1.008   4.784  0.0855  0.3170  0.2866
 4947TIP3    H114847   5.230   0.931   4.755  0.5265 -0.2301  2.3079
 4947TIP3    H214848   5.091   0.975   4.798  0.5427 -0.2060  2.3356
 4948TIP3   OH214849   5.666   1.138   3.642  0.5212 -0.0153  0.2571
 4948TIP3    H114850   5.671   1.072   3.573 -1.3636  0.4626 -0.4023
 4948TIP3    H214851   5.696   1.093   3.721 -1.0062 -1.7564 -0.1020
 4949TIP3   OH214852   2.191   3.388   3.039 -0.0944 -0.1520  0.2065
 4949TIP3    H114853   2.253   3.337   3.092 -0.5153 -0.1080  0.7555
 4949TIP3    H214854   2.174   3.333   2.963 -0.7081 -0.9545  0.8898
 4950TIP3   OH214855   1.588   2.863   3.774 -0.2755  0.2574 -0.2099
 4950TIP3    H114856   1.550   2.808   3.707  0.6326 -0.5427 -0.0952
 4950TIP3    H214857   1.527   2.858   3.848  0.3287 -1.5291  0.2178
 4951TIP3   OH214858   2.427   1.652   1.326 -0.3115 -0.0812 -0.3968
 4951TIP3    H114859   2.368   1.639   1.252 -0.2839 -0.9885 -0.2789
 4951TIP3    H214860   2.417   1.744   1.350 -1.4387 -0.1417 -0.5856
 4952TIP3   OH214861   0.979   3.791   3.546  0.3079 -0.4462 -0.2541
 4952TIP3    H114862   0.928   3.745   3.612  0.5125 -0.4525 -0.0983
 4952TIP3    H214863   1.012   3.869   3.591  0.8997 -0.7265 -0.1831
 4953TIP3   OH214864   4.049   5.445   4.355  0.4625  0.5130 -0.4343
 4953TIP3    H114865   4.058   5.408   4.443 -0.6836  0.8614 -0.1464
 4953TIP3    H214866   4.139   5.458   4.324  0.8806 -0.7033  0.2135
 4954TIP3   OH214867   0.906   4.460   0.884 -0.0344 -0.3096  0.5140
 4954TIP3    H114868   0.864   4.464   0.799  0.7425  1.6042  0.1626
 4954TIP3    H214869   0.858   4.392   0.932 -1.0142 -0.8338 -1.1415
 4955TIP3   OH214870   0.462   0.203   3.714 -0.5418  0.2895  0.3870
 4955TIP3    H114871   0.465   0.146   3.638 -1.2708 -0.3673  0.8342
 4955TIP3    H214872   0.369   0.210   3.736 -0.2571 -0.8150  2.1436
 4956TIP3   OH214873   1.356   1.670   2.537  0.5672 -0.0820  0.1564
 4956TIP3    H114874   1.317   1.606   2.477 -0.0313 -1.2429  1.7259
 4956TIP3    H214875   1.306   1.661   2.618  1.5416  1.2439  0.9547
 4957TIP3   OH214876   0.674   4.373   5.140  0.2322  0.1680 -0.0768
 4957TIP3    H114877   0.660   4.426   5.061 -1.1972  1.6302  1.0972
 4957TIP3    H214878   0.752   4.410   5.181  0.3097  0.1428 -0.2004
 4958TIP3   OH214879   1.849   5.696   3.665 -0.3720  0.0550  0.9641
 4958TIP3    H114880   1.890   5.744   3.593 -1.3513  1.7052  1.4462
 4958TIP3    H214881   1.906   5.712   3.740 -0.7184  0.5318  1.1336
 4959TIP3   OH214882   1.334   4.415   0.866 -0.1906  0.5047  0.4512
 4959TIP3    H114883   1.341   4.507   0.891  3.8844  0.8603 -1.3200
 4959TIP3    H214884   1.403   4.371   0.916 -1.6408 -1.5526  0.7750
 4960TIP3   OH214885   1.748   1.875   0.719 -0.3375  0.6182 -0.5948
 4960TIP3    H114886   1.701   1.958   0.708  1.7005  2.0161  0.6257
 4960TIP3    H214887   1.683   1.808   0.699 -2.0452  2.4954 -1.6849
 4961TIP3   OH214888   2.276   4.964   0.367  0.0915  0.3847  0.0461
 4961TIP3    H114889   2.289   4.912   0.288 -0.4064 -0.6505  0.6259
 4961TIP3    H214890   2.359   5.010   0.379  0.7585 -0.7185 -0.1699
 4962TIP3   OH214891   3.429   3.209   1.185 -0.0214  0.1939  0.9430
 4962TIP3    H114892   3.383   3.268   1.125 -0.4361 -1.2298 -0.2038
 4962TIP3    H214893   3.374   3.206   1.263 -0.1853  1.0015  0.8694
 4963TIP3   OH214894   4.399   4.357   3.846 -0.7032  0.1590  0.6402
 4963TIP3    H114895   4.402   4.394   3.757  3.0312 -0.4892  0.2893
 4963TIP3    H214896   4.462   4.284   3.843  2.1415  2.0823  4.5247
 4964TIP3   OH214897   0.480   4.391   0.934  0.5792 -0.3195  0.6094
 4964TIP3    H114898   0.444   4.415   0.848  1.4952  0.8429  0.5297
 4964TIP3    H214899   0.418   4.427   0.997  0.2720 -0.5605  0.4499
 4965TIP3   OH214900   3.554   3.570   0.755  0.0210 -0.4436  0.0698
 4965TIP3    H114901   3.471   3.587   0.710  2.0014  1.9359 -3.1452
 4965TIP3    H214902   3.559   3.639   0.821  0.4003  1.0044 -1.3821
 4966TIP3   OH214903   2.721   3.411   3.971 -0.1211 -0.0192 -0.5904
 4966TIP3    H114904   2.699   3.320   3.991  1.8130 -0.9428 -2.1711
 4966TIP3    H214905   2.649   3.463   4.006 -1.1391 -2.1389  0.6107
 4967TIP3   OH214906   1.647   5.236   3.535  0.2118  0.0985  0.1966
 4967TIP3    H114907   1.682   5.314   3.578 -0.8241  0.4031  0.5144
 4967TIP3    H214908   1.578   5.270   3.477  0.6548 -0.4498 -0.6799
 4968TIP3   OH214909   5.985   5.437   2.516  0.0538  0.4325  0.0953
 4968TIP3    H114910   6.032   5.403   2.592 -1.5768  1.3811  1.6195
 4968TIP3    H214911   5.906   5.384   2.510  1.0758 -0.9848 -2.2846
 4969TIP3   OH214912   3.922   3.425   3.302  0.0711  0.0999  0.4964
 4969TIP3    H114913   3.995   3.384   3.256 -0.5642  0.1536 -0.5882
 4969TIP3    H214914   3.892   3.359   3.364  0.7021 -0.1124  0.5786
 4970TIP3   OH214915   3.907   2.422   0.828 -0.3923  0.0611  0.3936
 4970TIP3    H114916   3.859   2.499   0.796  1.8886  1.1428 -0.7069
 4970TIP3    H214917   3.993   2.457   0.853  0.7529 -2.1413 -0.2403
 4971TIP3   OH214918   6.319   4.320   2.626 -0.3011 -0.5658  0.1407
 4971TIP3    H114919   6.252   4.326   2.558 -0.7703 -1.0765  0.5502
 4971TIP3    H214920   6.279   4.266   2.695 -0.5346  1.4120  1.6476
 4972TIP3   OH214921   1.940   2.760   4.539 -0.2161  0.1051 -0.0698
 4972TIP3    H114922   1.883   2.781   4.613  0.2939 -0.4689  0.4933
 4972TIP3    H214923   1.892   2.791   4.462 -2.3633 -2.3071  0.1430
 4973TIP3   OH214924   2.140   2.304   0.620 -0.0344  0.3745  0.3683
 4973TIP3    H114925   2.064   2.350   0.584 -0.9793  0.1375  1.9475
 4973TIP3    H214926   2.213   2.331   0.565 -1.4269 -0.2666 -1.9293
 4974TIP3   OH214927   4.884   0.916   0.997 -0.2904  0.0188 -0.1058
 4974TIP3    H114928   4.925   0.999   0.972  1.1011 -0.3619  0.7891
 4974TIP3    H214929   4.901   0.909   1.091 -0.1698 -1.3919 -0.2153
 4975TIP3   OH214930   5.568   4.156   1.588 -0.4157 -0.2033  0.0339
 4975TIP3    H114931   5.603   4.145   1.500 -1.6734  3.4536 -1.1423
 4975TIP3    H214932   5.541   4.248   1.591 -3.2601 -0.9388  3.2094
 4976TIP3   OH214933   5.674   1.850   2.012  0.1357 -0.2636  0.1585
 4976TIP3    H114934   5.647   1.935   1.978  2.4659  1.6952  2.6917
 4976TIP3    H214935   5.709   1.803   1.937 -0.1644  1.4790 -1.1155
 4977TIP3   OH214936   6.165   0.659   1.086  0.1237  0.2216 -0.5406
 4977TIP3    H114937   6.095   0.629   1.144  0.6654  2.6338  1.5189
 4977TIP3    H214938   6.125   0.725   1.030  0.6809  1.6254  0.6593
 4978TIP3   OH214939   5.454   2.529   2.943  0.2537 -0.4585  0.2386
 4978TIP3    H114940   5.377   2.584   2.923  1.7164  2.1692  1.3037
 4978TIP3    H214941   5.506   2.530   2.863 -0.7776 -2.3263 -0.5186
 4979TIP3   OH214942   3.051   1.051   0.799 -0.5655 -0.2342  0.1300
 4979TIP3    H114943   3.059   1.145   0.783  0.8201 -0.4859 -0.7631
 4979TIP3    H214944   3.016   1.015   0.718 -3.0900 -0.2916  1.1294
 4980TIP3   OH214945   0.838   1.222   0.023 -0.3756 -0.0574  0.0003
 4980TIP3    H114946   0.855   1.131  -0.001 -0.8767  0.2436 -1.6146
 4980TIP3    H214947   0.923   1.265   0.017 -0.3722 -0.1422 -0.5235
 4981TIP3   OH214948   5.302   5.247   0.737 -0.3557 -0.0011  0.6305
 4981TIP3    H114949   5.303   5.341   0.758  0.0486 -0.4251  2.7021
 4981TIP3    H214950   5.394   5.223   0.728 -0.4097 -0.3890  1.0775
 4982TIP3   OH214951   1.675   4.678   3.709  0.5655  0.3822  0.2872
 4982TIP3    H114952   1.755   4.644   3.750  0.3126 -0.5200  0.0459
 4982TIP3    H214953   1.707   4.738   3.642  1.0582 -0.1746  0.0141
 4983TIP3   OH214954   2.728   2.092   4.768 -0.0107 -0.0213  0.0159
 4983TIP3    H114955   2.735   2.179   4.809 -0.9108  1.0917 -2.0505
 4983TIP3    H214956   2.680   2.039   4.832 -0.4411  1.3243  0.8529
 4984TIP3   OH214957   2.343   5.236   4.333  0.4994 -0.1528  0.5203
 4984TIP3    H114958   2.367   5.159   4.384  0.4536 -1.0929 -0.8108
 4984TIP3    H214959   2.306   5.200   4.252  0.9049  1.2669 -0.3325
 4985TIP3   OH214960   3.808   0.239   0.527  0.5792  0.0907 -0.3926
 4985TIP3    H114961   3.739   0.210   0.587  1.5571  2.9697  2.3749
 4985TIP3    H214962   3.765   0.301   0.468  0.8970  3.8338  2.8766
 4986TIP3   OH214963   2.324   0.077   2.213 -0.0916  0.4239  0.4060
 4986TIP3    H114964   2.337   0.171   2.203 -0.4874  0.5405  0.9479
 4986TIP3    H214965   2.230   0.067   2.225  0.0361  0.0370  1.1540
 4987TIP3   OH214966   0.704   3.091   2.016 -0.0695 -0.0642 -0.3934
 4987TIP3    H114967   0.668   3.180   2.017  1.6884  0.7187  1.9957
 4987TIP3    H214968   0.709   3.066   2.108 -0.0909 -2.5019 -0.9896
 4988TIP3   OH214969   2.543   2.189   4.073 -0.2227 -0.6325 -0.4140
 4988TIP3    H114970   2.628   2.150   4.095 -0.3872  0.3268  2.2628
 4988TIP3    H214971   2.552   2.282   4.096 -2.1637 -0.6382  0.5946
 4989TIP3   OH214972   3.154   5.771   4.091 -0.1345 -0.1176 -0.3490
 4989TIP3    H114973   3.160   5.676   4.090 -2.0610 -0.3077  0.2861
 4989TIP3    H214974   3.070   5.790   4.048 -0.4600  1.1840  0.7737
 4990TIP3   OH214975   4.314   1.235   2.112  0.1530  0.8075 -0.8140
 4990TIP3    H114976   4.290   1.156   2.063 -1.5193  0.6934  0.1270
 4990TIP3    H214977   4.249   1.300   2.085 -0.9615  0.6791  1.3617
 4991TIP3   OH214978   5.549   5.075   2.268  0.2218 -0.3652  0.1205
 4991TIP3    H114979   5.595   5.050   2.187  0.7701 -2.5400  1.0132
 4991TIP3    H214980   5.607   5.138   2.310  0.6421 -0.3256 -0.5040
 4992TIP3   OH214981   3.184   0.676   1.559 -0.0676 -0.0904 -0.0895
 4992TIP3    H114982   3.177   0.654   1.466 -1.0779  0.3879 -0.1393
 4992TIP3    H214983   3.143   0.763   1.566 -0.1642 -0.2046  0.8296
 4993TIP3   OH214984   2.217   5.422   0.409  0.5738 -0.0957  0.0486
 4993TIP3    H114985   2.203   5.465   0.325  0.5909 -1.2536 -0.5628
 4993TIP3    H214986   2.250   5.492   0.466  1.2564  0.5584 -1.1022
 4994TIP3   OH214987   4.720   4.379   3.879  0.3936  0.1359 -0.1855
 4994TIP3    H114988   4.699   4.432   3.803  3.7312  0.3931 -1.0847
 4994TIP3    H214989   4.682   4.293   3.860 -1.7872  1.0931 -0.4486
 4995TIP3   OH214990   0.741   5.682   0.508  0.0884  0.6748  0.1838
 4995TIP3    H114991   0.716   5.640   0.426  0.6767  1.2576 -0.3029
 4995TIP3    H214992   0.812   5.741   0.484  1.5876 -0.5358  1.4384
 4996TIP3   OH214993   6.170   0.487   2.211 -0.0551  0.4538  0.1506
 4996TIP3    H114994   6.136   0.561   2.263  3.4925  1.8387  0.7807
 4996TIP3    H214995   6.164   0.518   2.120 -1.3020  0.2266  0.1288
 4997TIP3   OH214996   3.141   3.332   4.602 -0.0031  0.8949 -0.1997
 4997TIP3    H114997   3.166   3.423   4.618 -0.6336  0.9516  0.5139
 4997TIP3    H214998   3.047   3.336   4.585 -0.0994  0.3413  0.1847
 4998TIP3   OH214999   1.600   4.898   1.272 -0.2198  0.3471  0.4583
 4998TIP3    H115000   1.680   4.922   1.225 -0.2047 -0.0489  0.2830
 4998TIP3    H215001   1.530   4.910   1.208 -0.1793 -0.3740  0.2643
 4999TIP3   OH215002   5.444   1.347   3.466 -0.4944 -0.1047  0.3457
 4999TIP3    H115003   5.378   1.294   3.421  0.0190 -0.9474  0.5557
 4999TIP3    H215004   5.421   1.341   3.558 -1.0037  0.8598  0.2949
 5000TIP3   OH215005   3.311   0.498   3.548  0.5396 -0.3276  0.0386
 5000TIP3    H115006   3.383   0.462   3.600  1.0575 -0.3625 -0.6913
 5000TIP3    H215007   3.325   0.593   3.549 -0.2843 -0.1899  1.1629
 5001TIP3   OH215008   2.039   3.179   3.826  0.0544  0.1135 -0.1190
 5001TIP3    H115009   1.969   3.228   3.869 -0.2162  0.2597 -0.7146
 5001TIP3    H215010   1.993   3.108   3.780  0.4398 -0.7294  0.7567
 5002TIP3   OH215011   2.324   4.838   4.217 -0.4478  0.1425 -0.6652
 5002TIP3    H115012   2.244   4.807   4.258  0.6207 -1.5175  0.2986
 5002TIP3    H215013   2.360   4.760   4.173  1.7642  0.2175  0.8518
 5003TIP3   OH215014   0.671   2.921   1.822  0.5038 -0.1053  0.0269
 5003TIP3    H115015   0.647   2.846   1.877 -2.7444  1.2204  0.6609
 5003TIP3    H215016   0.677   2.994   1.883  1.3110  0.5820 -0.8547
 5004TIP3   OH215017   5.787   0.414   0.325 -0.1682  0.1715 -0.0012
 5004TIP3    H115018   5.874   0.392   0.357  0.5873  0.2630 -1.9003
 5004TIP3    H215019   5.737   0.332   0.336  1.3997 -1.3141 -2.9046
 5005TIP3   OH215020   6.016   2.695   5.123 -0.2970 -0.0681 -0.0077
 5005TIP3    H115021   5.992   2.782   5.092  0.5604  0.9492  2.0357
 5005TIP3    H215022   5.970   2.635   5.064 -1.3614  1.7445 -1.1019
 5006TIP3   OH215023   6.068   0.862   1.314  0.0376  0.0909  0.5699
 5006TIP3    H115024   6.065   0.952   1.349  0.8144  1.5305 -2.7260
 5006TIP3    H215025   6.002   0.861   1.246 -0.3802 -2.1057  0.9558
 5007TIP3   OH215026   3.121   5.418   2.148  0.1087 -0.3571 -0.7660
 5007TIP3    H115027   3.077   5.371   2.077 -0.4242 -1.1241  0.0459
 5007TIP3    H215028   3.214   5.398   2.136 -0.0598 -1.1827 -0.7633
 5008TIP3   OH215029   6.293   0.198   4.674  0.2793  0.1498  0.0328
 5008TIP3    H115030   6.347   0.162   4.604  0.7497 -0.5866  0.7540
 5008TIP3    H215031   6.355   0.241   4.733 -0.0808  0.5111  0.1547
 5009TIP3   OH215032   6.020   0.887   0.571  0.4929 -0.3464  0.2398
 5009TIP3    H115033   6.113   0.899   0.553  0.1758 -0.0925 -1.3185
 5009TIP3    H215034   6.003   0.795   0.555  0.7655 -0.7497  2.0446
 5010TIP3   OH215035   2.422   4.600   3.542 -0.0709  0.2895 -0.1680
 5010TIP3    H115036   2.462   4.629   3.624 -0.0001 -0.5956  0.1280
 5010TIP3    H215037   2.338   4.645   3.539 -0.0737  0.3295  0.4011
 5011TIP3   OH215038   2.754   1.030   4.796  0.4801 -0.4553  0.7843
 5011TIP3    H115039   2.798   1.114   4.789 -0.1302 -0.2226 -1.0900
 5011TIP3    H215040   2.679   1.047   4.853  0.4601  0.2460  0.5637
 5012TIP3   OH215041   6.114   2.032   5.150  0.0879  0.8638  0.1793
 5012TIP3    H115042   6.190   2.076   5.187 -0.0259 -0.0694  1.6156
 5012TIP3    H215043   6.100   2.075   5.065  2.5170  0.6946 -0.3826
 5013TIP3   OH215044   3.551   5.880   5.012 -0.4812 -0.0347 -0.2386
 5013TIP3    H115045   3.546   5.836   4.927  1.1599 -0.7802  0.0228
 5013TIP3    H215046   3.526   5.813   5.076  0.2342 -0.0617  0.0210
 5014TIP3   OH215047   2.021   3.543   3.159  0.1839  0.2608 -0.6005
 5014TIP3    H115048   1.938   3.495   3.160 -0.4454  1.3115  0.3787
 5014TIP3    H215049   2.084   3.482   3.119 -0.9437 -0.7321 -0.9120
 5015TIP3   OH215050   0.530   3.047   1.278  0.1511  0.6432  0.5129
 5015TIP3    H115051   0.447   3.000   1.291 -1.4436  2.5639 -1.7241
 5015TIP3    H215052   0.594   2.978   1.262 -1.5392 -0.8642 -0.1229
 5016TIP3   OH215053   2.969   1.704   1.121 -0.2825  0.1814  0.3426
 5016TIP3    H115054   2.920   1.691   1.201  1.3310 -1.5028  1.1460
 5016TIP3    H215055   3.042   1.761   1.146 -1.3787  2.1155 -0.6717
 5017TIP3   OH215056   4.546   0.691   4.848 -0.3650  0.4630  0.1697
 5017TIP3    H115057   4.496   0.737   4.781  1.1210 -0.7647 -1.9133
 5017TIP3    H215058   4.506   0.604   4.853  0.9811 -0.2709 -0.9582
 5018TIP3   OH215059   3.657   4.998   3.447 -0.0572 -0.3290  0.0126
 5018TIP3    H115060   3.668   5.077   3.501  1.9480 -0.2655 -0.3819
 5018TIP3    H215061   3.640   4.928   3.510  2.1758 -0.2415  0.8147
 5019TIP3   OH215062   5.803   3.464   1.635 -0.6687  0.0408 -0.8288
 5019TIP3    H115063   5.807   3.494   1.726  1.2616  1.2971 -1.2629
 5019TIP3    H215064   5.724   3.504   1.600  0.1375  2.0818 -0.4788
 5020TIP3   OH215065   0.826   4.190   3.264 -0.3535 -0.0297  0.0026
 5020TIP3    H115066   0.862   4.124   3.204  1.8067  1.2321 -0.1986
 5020TIP3    H215067   0.878   4.180   3.344 -1.1240  0.3571  0.5624
 5021TIP3   OH215068   4.733   4.488   4.605  0.2657  0.4629  0.0513
 5021TIP3    H115069   4.715   4.394   4.593  1.6031  0.1743  0.1662
 5021TIP3    H215070   4.827   4.492   4.622 -0.0775  1.6610  1.8627
 5022TIP3   OH215071   4.992   3.817   0.227 -0.4810 -0.4367 -0.5609
 5022TIP3    H115072   4.976   3.872   0.150  0.3072 -1.3664 -1.4089
 5022TIP3    H215073   4.930   3.849   0.292  0.7972  2.3247 -0.5644
 5023TIP3   OH215074   6.336   2.859   2.258  0.0014 -0.1908  0.3908
 5023TIP3    H115075   6.392   2.827   2.329 -0.9873 -0.4877  1.0489
 5023TIP3    H215076   6.248   2.828   2.280 -0.5299  0.7263 -0.3468
 5024TIP3   OH215077   2.591   0.932   0.231 -0.1980 -0.4384  0.9977
 5024TIP3    H115078   2.560   0.976   0.311 -0.3965  0.8253  0.2577
 5024TIP3    H215079   2.687   0.931   0.240 -0.2191 -0.3012  1.2508
 5025TIP3   OH215080   0.643   1.545   3.828  0.2174  0.3709  0.3387
 5025TIP3    H115081   0.560   1.516   3.790  0.3609 -0.0961  0.3746
 5025TIP3    H215082   0.655   1.489   3.905  1.7544 -1.2744 -1.0106
 5026TIP3   OH215083   5.237   1.281   1.985 -0.0455 -1.3144 -0.5291
 5026TIP3    H115084   5.262   1.273   1.893  1.6400 -2.6016 -0.0123
 5026TIP3    H215085   5.262   1.370   2.010  1.8679 -1.7678 -0.6956
 5027TIP3   OH215086   1.258   3.122   1.270  0.5181 -0.6743 -0.0793
 5027TIP3    H115087   1.270   3.216   1.280 -1.6931 -0.4762  1.3357
 5027TIP3    H215088   1.272   3.087   1.358  0.2384 -1.5403 -0.3675
 5028TIP3   OH215089   5.735   2.213   4.239 -0.6040 -0.4917 -0.3118
 5028TIP3    H115090   5.738   2.308   4.232 -2.4013 -0.3655  0.1791
 5028TIP3    H215091   5.759   2.183   4.151 -0.2388  0.4190 -0.5375
 5029TIP3   OH215092   2.804   2.789   1.270  0.4539  0.1044  0.0582
 5029TIP3    H115093   2.790   2.701   1.306  0.2304 -0.2055 -0.7716
 5029TIP3    H215094   2.844   2.838   1.342 -1.2912 -0.0879  1.2179
 5030TIP3   OH215095   3.948   3.229   3.614 -0.5604  0.0752 -0.0639
 5030TIP3    H115096   3.884   3.196   3.552 -0.3739  1.5684 -1.1032
 5030TIP3    H215097   4.031   3.227   3.567 -0.0559 -0.6710  0.8392
 5031TIP3   OH215098   2.823   2.435   4.584  0.2133  0.0402  0.3569
 5031TIP3    H115099   2.883   2.362   4.601 -0.8095 -0.9056  0.0092
 5031TIP3    H215100   2.843   2.462   4.494 -1.4224 -1.8419 -0.6608
 5032TIP3   OH215101   5.343   2.232   3.495  0.3843 -0.4247 -0.0075
 5032TIP3    H115102   5.256   2.197   3.513  0.1700 -0.8010 -1.5552
 5032TIP3    H215103   5.332   2.327   3.493  0.2433 -0.4212  0.8786
 5033TIP3   OH215104   1.995   4.450   2.905  0.1199  0.1255 -0.5783
 5033TIP3    H115105   1.905   4.482   2.916  0.4666  0.8240  0.3785
 5033TIP3    H215106   2.021   4.422   2.993  0.5530 -0.8876 -1.0071
 5034TIP3   OH215107   6.023   3.565   1.770  0.4185  0.6821  0.1689
 5034TIP3    H115108   6.058   3.481   1.740 -0.9695  0.2715 -0.3600
 5034TIP3    H215109   5.966   3.594   1.699 -0.3725  1.2890  1.0315
 5035TIP3   OH215110   2.292   2.226   3.062 -0.6942  0.2298 -1.1361
 5035TIP3    H115111   2.293   2.298   3.124 -0.2274 -0.5915 -0.1436
 5035TIP3    H215112   2.385   2.213   3.040 -0.5705 -1.1591  0.0546
 5036TIP3   OH215113   5.824   4.299   1.600 -0.6607 -0.2599  0.0084
 5036TIP3    H115114   5.845   4.366   1.666 -0.5769  0.2991 -0.5833
 5036TIP3    H215115   5.755   4.338   1.547 -1.4979 -1.1331  0.4130
 5037TIP3   OH215116   0.046   1.973   3.097  0.3884  0.7249  0.4701
 5037TIP3    H115117   0.107   2.011   3.034  0.2784  1.4347  0.7847
 5037TIP3    H215118   0.020   2.047   3.152 -0.4637  0.3502  0.5735
 5038TIP3   OH215119   2.840   1.886   2.648  0.1580 -0.0629  0.9120
 5038TIP3    H115120   2.925   1.906   2.688  0.8267  1.0132 -0.9047
 5038TIP3    H215121   2.846   1.922   2.559 -2.1579 -0.0942  0.6726
 5039TIP3   OH215122   5.605   3.431   2.365 -0.8153  0.1050  0.6406
 5039TIP3    H115123   5.554   3.507   2.337 -1.3306 -0.5978 -0.3759
 5039TIP3    H215124   5.696   3.458   2.355 -0.9759  0.0670 -1.2791
 5040TIP3   OH215125   4.155   2.941   1.808 -0.2556 -0.6467  0.0538
 5040TIP3    H115126   4.068   2.979   1.795  0.3627  0.5627 -0.7626
 5040TIP3    H215127   4.174   2.957   1.901 -0.4805  0.0260 -0.0067
 5041TIP3   OH215128   4.832   4.782   0.924  0.1873 -0.3578  0.4946
 5041TIP3    H115129   4.851   4.871   0.956  1.2302 -1.5805  3.6279
 5041TIP3    H215130   4.788   4.796   0.841  0.2401  3.1118  0.8968
 5042TIP3   OH215131   3.464   1.702   2.608 -0.0328  0.2140 -0.1386
 5042TIP3    H115132   3.551   1.682   2.642  0.1553  0.6253 -0.3625
 5042TIP3    H215133   3.479   1.769   2.541 -0.6073  0.9313  0.4295
 5043TIP3   OH215134   4.156   4.544   3.043  0.0983 -0.3500  0.3684
 5043TIP3    H115135   4.102   4.484   3.096  0.6267 -0.5517  0.6869
 5043TIP3    H215136   4.236   4.556   3.095  0.0030  0.6286  0.2983
 5044TIP3   OH215137   2.871   4.250   4.122 -0.1976  0.2491  0.7600
 5044TIP3    H115138   2.837   4.160   4.121  0.3805  0.0223  1.1338
 5044TIP3    H215139   2.834   4.290   4.043  2.7104 -1.5228 -1.7022
 5045TIP3   OH215140   3.467   2.466   0.812 -0.6885  0.0489 -0.3177
 5045TIP3    H115141   3.427   2.521   0.745 -1.7016 -1.5009 -1.0441
 5045TIP3    H215142   3.410   2.477   0.889 -0.2162  0.8935 -0.0784
 5046TIP3   OH215143   0.055   0.404   3.622  0.3904  0.7181 -0.1102
 5046TIP3    H115144   0.110   0.422   3.546  2.1992 -0.0017  0.9586
 5046TIP3    H215145  -0.007   0.477   3.625  0.7526  1.1538 -1.8038
 5047TIP3   OH215146   3.128   2.024   2.464  0.3771  0.6226 -0.0987
 5047TIP3    H115147   3.082   2.081   2.403 -0.5522  0.0741  0.0590
 5047TIP3    H215148   3.199   2.077   2.499 -0.5475  1.7244  0.1539
 5048TIP3   OH215149   3.213   3.804   2.922 -0.3359 -0.3133  0.4754
 5048TIP3    H115150   3.155   3.877   2.900 -0.5083 -0.7657 -0.6365
 5048TIP3    H215151   3.172   3.763   2.999  0.6037  1.6701  2.1369
 5049TIP3   OH215152   5.831   2.737   0.420 -0.0706 -0.2432 -0.1833
 5049TIP3    H115153   5.925   2.755   0.424 -0.1720  0.2524 -0.0554
 5049TIP3    H215154   5.816   2.675   0.491  0.0603  0.1110  0.1522
 5050TIP3   OH215155   4.239   3.802   1.525  0.1424 -0.2287  0.0296
 5050TIP3    H115156   4.303   3.732   1.536  0.6658  0.0689 -1.0586
 5050TIP3    H215157   4.188   3.776   1.448 -0.1896  0.1932  0.1058
 5051TIP3   OH215158   3.096   1.931   2.750 -0.7669  0.2902  0.2062
 5051TIP3    H115159   3.136   1.844   2.748  0.6672  0.8037  2.3719
 5051TIP3    H215160   3.130   1.976   2.673  0.0527 -0.4670  0.1147
 5052TIP3   OH215161   1.019   4.995   4.282  0.5335  0.0984  0.0100
 5052TIP3    H115162   1.068   5.048   4.344  0.1501 -0.9174  1.2077
 5052TIP3    H215163   0.997   4.915   4.329 -0.1679 -0.5139 -1.2830
 5053TIP3   OH215164   3.254   4.449   4.557 -0.1600  0.3263 -0.5470
 5053TIP3    H115165   3.227   4.463   4.466 -2.0094  0.7136  0.0306
 5053TIP3    H215166   3.268   4.537   4.592 -0.5975  0.2286 -0.1236
 5054TIP3   OH215167   4.215   4.084   1.464  0.1711 -1.1383 -0.1484
 5054TIP3    H115168   4.228   3.990   1.474 -0.1586 -1.1653  0.0667
 5054TIP3    H215169   4.141   4.104   1.523  3.4672  0.1904  4.0328
 5055TIP3   OH215170   0.613   0.687   1.737 -0.4526  0.0880  0.4316
 5055TIP3    H115171   0.546   0.658   1.676  0.7829 -1.2102 -0.3544
 5055TIP3    H215172   0.682   0.725   1.682  1.0175 -1.7700  0.8900
 5056TIP3   OH215173   4.911   5.668   0.997  0.1586  1.1755  0.1907
 5056TIP3    H115174   4.893   5.576   1.017 -0.9306  1.4484  0.5476
 5056TIP3    H215175   4.968   5.665   0.920  0.0071  0.2051  0.1027
 5057TIP3   OH215176   5.953   4.614   3.532 -0.6553 -0.0563  0.5149
 5057TIP3    H115177   5.968   4.683   3.597  1.4598 -0.2714  0.3083
 5057TIP3    H215178   5.940   4.661   3.450  2.4994  0.1633  0.0360
 5058TIP3   OH215179   1.306   2.925   1.738  0.2738  0.0547 -0.2121
 5058TIP3    H115180   1.224   2.876   1.743 -0.3043  0.9697 -0.4541
 5058TIP3    H215181   1.324   2.950   1.828  1.2206 -1.5920  0.1020
 5059TIP3   OH215182   0.691   4.818   0.661  0.2243  0.0099 -0.6576
 5059TIP3    H115183   0.634   4.890   0.687  1.7892  0.3208  2.3150
 5059TIP3    H215184   0.753   4.857   0.599  0.8394  1.1886  0.6539
 5060TIP3   OH215185   3.717   1.584   1.979  0.4463 -0.0239  0.3221
 5060TIP3    H115186   3.770   1.644   1.927  1.7034 -0.8731  0.5967
 5060TIP3    H215187   3.641   1.565   1.923  0.7904  0.6192 -0.3775
 5061TIP3   OH215188   5.028   1.755   4.016 -0.1021  0.7294  0.4673
 5061TIP3    H115189   4.996   1.845   4.018  0.3530  1.1882 -3.7408
 5061TIP3    H215190   5.111   1.758   4.063  0.3215  2.7535 -0.2876
 5062TIP3   OH215191   3.251   3.416   0.464 -0.4411 -0.1374 -0.0278
 5062TIP3    H115192   3.225   3.486   0.524 -1.5822 -0.8601  0.3655
 5062TIP3    H215193   3.226   3.448   0.377  1.5679  1.0721 -0.2107
 5063TIP3   OH215194   1.640   0.418   3.476  0.0817 -0.3736  0.2871
 5063TIP3    H115195   1.586   0.490   3.507  1.3022  0.5561  0.3407
 5063TIP3    H215196   1.646   0.433   3.381  0.5144 -0.2607  0.3287
 5064TIP3   OH215197   4.439   4.674   0.755  0.0498  0.0771 -0.7059
 5064TIP3    H115198   4.351   4.694   0.724 -0.0636 -2.1451 -1.9784
 5064TIP3    H215199   4.497   4.705   0.686  0.4434  2.6209  0.6432
 5065TIP3   OH215200   0.917   1.874   4.224 -0.1676 -0.5616  0.4794
 5065TIP3    H115201   0.902   1.812   4.296 -0.0761  1.5840  2.4434
 5065TIP3    H215202   1.011   1.871   4.208 -0.3510 -2.0415 -0.5747
 5066TIP3   OH215203   0.233   2.459   5.090 -0.5852  0.2752  0.1656
 5066TIP3    H115204   0.223   2.507   5.173 -2.2324  0.5354 -0.1429
 5066TIP3    H215205   0.148   2.415   5.079 -0.9382  1.4059 -2.0940
 5067TIP3   OH215206   0.184   0.404   2.596 -0.7288 -0.0324  0.1015
 5067TIP3    H115207   0.186   0.476   2.659 -2.3538  1.1166 -1.0958
 5067TIP3    H215208   0.274   0.395   2.567  0.0934 -0.6276  2.5548
 5068TIP3   OH215209   0.540   5.493   1.229  0.1024 -0.5047  0.1332
 5068TIP3    H115210   0.566   5.507   1.320 -2.4927  1.2629  0.6972
 5068TIP3    H215211   0.556   5.577   1.187  1.6325 -1.4087 -1.2135
 5069TIP3   OH215212   3.091   1.960   1.725  0.3349  0.4720 -0.5732
 5069TIP3    H115213   3.129   1.946   1.638 -2.8367  1.6462 -2.3343
 5069TIP3    H215214   3.121   2.047   1.751 -1.6198  1.8041 -2.3778
 5070TIP3   OH215215   2.774   3.170   1.461  0.2283 -0.9723 -0.1622
 5070TIP3    H115216   2.849   3.173   1.402  0.8633  0.5914  0.6565
 5070TIP3    H215217   2.724   3.094   1.433  1.8453 -1.7537 -1.0577
 5071TIP3   OH215218   1.029   0.813   3.344  0.2282 -0.6642  0.5044
 5071TIP3    H115219   1.124   0.821   3.335  0.2822 -1.7290  0.0222
 5071TIP3    H215220   1.010   0.848   3.431  1.2417 -1.7463  1.1837
 5072TIP3   OH215221   0.381   0.636   1.556 -0.0910  0.3661 -0.1255
 5072TIP3    H115222   0.342   0.581   1.489  0.3240 -0.3300  0.1949
 5072TIP3    H215223   0.318   0.707   1.568 -0.6488 -0.0548 -0.5206
 5073TIP3   OH215224   0.899   4.196   1.373 -0.2354  0.7117 -0.3251
 5073TIP3    H115225   0.835   4.265   1.393 -1.1495 -0.2503  0.1778
 5073TIP3    H215226   0.915   4.153   1.457 -0.4654 -0.3285 -0.7940
 5074TIP3   OH215227   1.835   1.655   2.567  0.0298  0.3045  0.1888
 5074TIP3    H115228   1.788   1.718   2.623 -0.2289 -1.2961  1.8538
 5074TIP3    H215229   1.926   1.662   2.595  0.1777  0.6789 -0.3728
 5075TIP3   OH215230   0.054   2.968   1.672 -0.2244  0.4979  0.0037
 5075TIP3    H115231   0.051   3.011   1.758 -1.9344 -0.9579  0.7312
 5075TIP3    H215232   0.029   3.037   1.610  1.1111  1.5902  0.6167
 5076TIP3   OH215233   4.273   5.045   4.250 -0.4322  0.2656  0.7462
 5076TIP3    H115234   4.349   4.987   4.254 -0.6628 -0.1641 -0.6426
 5076TIP3    H215235   4.284   5.094   4.168 -0.1553  2.3604  1.9490
 5077TIP3   OH215236   2.512   4.094   0.470  0.3682 -0.5118  0.5293
 5077TIP3    H115237   2.571   4.029   0.509  0.4285  0.0958  1.4800
 5077TIP3    H215238   2.539   4.098   0.378 -0.0971 -2.3378  0.2602
 5078TIP3   OH215239   2.458   1.312   2.930 -0.8291 -0.6164 -0.0011
 5078TIP3    H115240   2.484   1.220   2.925 -0.9116 -0.6334 -0.1253
 5078TIP3    H215241   2.402   1.317   3.007 -1.2639 -0.7787 -0.3069
 5079TIP3   OH215242   5.520   1.930   0.383  0.4354  0.8070 -0.0612
 5079TIP3    H115243   5.581   1.989   0.339  1.7651  0.2845  1.0199
 5079TIP3    H215244   5.454   1.911   0.317  0.9164  2.1429 -0.9685
 5080TIP3   OH215245   4.643   1.709   2.266 -0.5374  0.1163  0.5452
 5080TIP3    H115246   4.549   1.723   2.253 -0.7135  1.6449  2.8397
 5080TIP3    H215247   4.663   1.630   2.215 -3.3194 -0.9463  0.9117
 5081TIP3   OH215248   0.524   0.954   4.907 -0.1725 -0.1840 -0.0162
 5081TIP3    H115249   0.537   0.860   4.913 -1.0737 -0.3583 -0.4985
 5081TIP3    H215250   0.602   0.986   4.862 -0.0104 -0.7499 -0.1494
 5082TIP3   OH215251   4.473   1.447   3.161  0.6403 -0.2224  0.4783
 5082TIP3    H115252   4.503   1.357   3.149  2.2941  0.4470 -0.7761
 5082TIP3    H215253   4.394   1.454   3.107  0.4066 -0.9528  0.7173
 5083TIP3   OH215254   5.362   4.315   2.272  0.0082 -0.2624  0.2973
 5083TIP3    H115255   5.312   4.239   2.303  0.5303  0.4631  3.1842
 5083TIP3    H215256   5.297   4.371   2.229 -1.0010 -0.8840  0.9795
 5084TIP3   OH215257   2.561   1.414   1.205 -0.2766  0.6567  0.1559
 5084TIP3    H115258   2.500   1.347   1.176 -1.0431  1.8432 -1.0612
 5084TIP3    H215259   2.506   1.485   1.239  0.5057  0.8862  1.0131
 5085TIP3   OH215260   0.910   5.344   2.570  0.0570  0.7597  0.2797
 5085TIP3    H115261   0.824   5.382   2.591  0.2487  0.6885  1.2624
 5085TIP3    H215262   0.928   5.284   2.643  0.0164 -0.8042 -0.9650
 5086TIP3   OH215263   4.639   5.500   0.673 -0.0501  0.4310 -0.2221
 5086TIP3    H115264   4.641   5.595   0.681  0.2720  0.3007  1.6610
 5086TIP3    H215265   4.550   5.480   0.645  0.0295  1.3017 -1.1587
 5087TIP3   OH215266   4.109   3.530   0.957 -0.0750  0.3254 -0.7584
 5087TIP3    H115267   4.116   3.459   1.021  1.2014  2.5339  1.7686
 5087TIP3    H215268   4.178   3.511   0.893  0.9569 -0.2035  0.4511
 5088TIP3   OH215269   3.307   1.505   2.389  0.0445 -0.3970 -0.3726
 5088TIP3    H115270   3.349   1.529   2.472 -3.6417 -1.1779  1.9766
 5088TIP3    H215271   3.261   1.584   2.362 -1.6273 -1.0894  0.3320
 5089TIP3   OH215272   0.602   2.608   4.603  0.5833 -0.2774 -0.4473
 5089TIP3    H115273   0.653   2.681   4.637  1.6143 -0.9664 -0.4737
 5089TIP3    H215274   0.531   2.597   4.666  0.9440  0.1603  0.0497
 5090TIP3   OH215275   2.273   0.603   2.029 -0.5621 -0.3476 -0.2983
 5090TIP3    H115276   2.295   0.676   1.971  1.4634 -1.0496 -0.5050
 5090TIP3    H215277   2.194   0.564   1.991 -0.8068  0.8296 -1.0280
 5091TIP3   OH215278   0.904   4.717   0.944 -0.0466 -0.0408 -0.4876
 5091TIP3    H115279   0.918   4.623   0.939 -0.6182 -0.0713 -3.2523
 5091TIP3    H215280   0.975   4.755   0.892 -0.9110  0.8903 -1.0354
 5092TIP3   OH215281   1.542   1.487   3.832  0.2832 -0.1626  0.4514
 5092TIP3    H115282   1.633   1.487   3.801 -0.4089  1.4063 -1.8577
 5092TIP3    H215283   1.494   1.438   3.765 -0.6560 -0.6643  1.4588
 5093TIP3   OH215284   0.592   2.067   4.364  0.4727 -0.4632 -0.0150
 5093TIP3    H115285   0.500   2.054   4.340  0.7333 -2.0934 -0.2706
 5093TIP3    H215286   0.635   2.090   4.282  0.2467  0.6668  0.1714
 5094TIP3   OH215287   4.628   4.718   1.821  0.2219  0.0270 -0.7413
 5094TIP3    H115288   4.535   4.694   1.826  0.1836 -0.0580 -1.6406
 5094TIP3    H215289   4.641   4.743   1.729  1.0867  0.0479 -0.6188
 5095TIP3   OH215290   1.868   0.686   4.665 -0.5596  0.4577  0.2193
 5095TIP3    H115291   1.890   0.673   4.758 -0.1374  0.9566  0.1910
 5095TIP3    H215292   1.924   0.758   4.637 -0.9457  0.5434 -0.3354
 5096TIP3   OH215293   1.688   3.225   1.602  0.2483  0.3767  0.4493
 5096TIP3    H115294   1.776   3.207   1.634 -0.2220 -1.3463  0.8734
 5096TIP3    H215295   1.683   3.181   1.518  0.7258  2.9984 -1.0677
 5097TIP3   OH215296   6.155   4.535   2.876 -0.1019 -0.3500  0.2746
 5097TIP3    H115297   6.110   4.531   2.792  0.5283  1.4801 -0.1980
 5097TIP3    H215298   6.234   4.587   2.859  0.8130 -1.1802  1.6780
 5098TIP3   OH215299   3.012   4.451   1.536  0.1715 -0.7596  0.0908
 5098TIP3    H115300   2.990   4.544   1.532 -1.0284 -0.8043  3.1043
 5098TIP3    H215301   3.028   4.426   1.445  0.0481  2.2543 -0.8584
 5099TIP3   OH215302   1.119   3.380   4.361  0.2909 -0.4273  0.2853
 5099TIP3    H115303   1.213   3.359   4.365  1.3145  3.1353 -1.1094
 5099TIP3    H215304   1.096   3.368   4.269  0.1024  1.1114  0.1032
 5100TIP3   OH215305   3.564   0.062   1.013 -0.2219 -0.4631 -0.4624
 5100TIP3    H115306   3.563  -0.031   0.992  0.2507 -0.4540 -0.5338
 5100TIP3    H215307   3.497   0.101   0.957  0.5071 -0.5501 -1.4071
 5101TIP3   OH215308   5.160   1.825   3.419 -0.0534 -0.4410  0.2929
 5101TIP3    H115309   5.214   1.760   3.464 -0.7204 -1.0663  0.2106
 5101TIP3    H215310   5.216   1.859   3.349  1.1219  0.7892  1.7490
 5102TIP3   OH215311   3.250   2.967   2.715  0.2692  0.4863  0.5421
 5102TIP3    H115312   3.218   2.981   2.626  2.8682  0.5005 -0.4809
 5102TIP3    H215313   3.262   2.872   2.722 -0.1060  0.4661  0.9557
 5103TIP3   OH215314   0.447   2.392   4.226  0.2506  0.5022 -0.4423
 5103TIP3    H115315   0.466   2.352   4.311  3.5643  1.6735 -0.5104
 5103TIP3    H215316   0.470   2.324   4.162 -3.0542 -0.7057 -0.5759
 5104TIP3   OH215317   4.906   2.636   0.768  0.1094 -0.1941  0.0291
 5104TIP3    H115318   4.929   2.588   0.848  1.1317 -2.5405 -1.5607
 5104TIP3    H215319   4.924   2.728   0.789 -0.8988 -0.5341  2.8704
 5105TIP3   OH215320   2.906   1.566   2.433  0.2422  0.0609 -0.1041
 5105TIP3    H115321   2.915   1.524   2.347  1.3174  0.0683 -0.0086
 5105TIP3    H215322   2.967   1.518   2.489 -0.3656  0.1327  0.6343
 5106TIP3   OH215323   5.693   3.143   4.076  0.0729 -0.4582 -0.0224
 5106TIP3    H115324   5.657   3.055   4.068 -1.1186 -0.0525  0.6991
 5106TIP3    H215325   5.645   3.195   4.011 -1.1201  0.2169  1.3498
 5107TIP3   OH215326   0.440   3.043   3.273  0.0617  0.0901 -0.5820
 5107TIP3    H115327   0.396   2.966   3.310 -0.2281  1.2959  1.7115
 5107TIP3    H215328   0.483   3.085   3.347  0.0610  2.2715 -1.7260
 5108TIP3   OH215329   5.500   5.701   2.413  0.2925 -0.0784 -0.3423
 5108TIP3    H115330   5.547   5.678   2.493 -1.1197 -0.7572  0.3223
 5108TIP3    H215331   5.488   5.618   2.368 -0.7503 -0.0128 -0.2149
 5109TIP3   OH215332   6.044   5.101   4.306  0.6838 -0.0841  0.2175
 5109TIP3    H115333   6.121   5.122   4.358  0.2725 -0.4855  1.0070
 5109TIP3    H215334   6.043   5.006   4.301  2.3072 -0.0610 -3.0036
 5110TIP3   OH215335   1.582   0.938   1.405 -0.1593  0.2353  0.9286
 5110TIP3    H115336   1.602   0.964   1.494 -1.0072 -2.1547  1.9001
 5110TIP3    H215337   1.662   0.896   1.374  0.0359  0.7988  0.6590
 5111TIP3   OH215338   5.086   1.064   2.462 -0.5155  0.1874  0.2186
 5111TIP3    H115339   5.180   1.075   2.447 -0.6851  0.7652 -0.5030
 5111TIP3    H215340   5.047   1.079   2.376 -1.2592 -0.1806  0.4893
 5112TIP3   OH215341   2.844   5.310   1.265  0.3067 -0.2712 -0.3134
 5112TIP3    H115342   2.938   5.328   1.258  0.5793 -0.9202  1.3473
 5112TIP3    H215343   2.838   5.241   1.331 -1.4418  0.8056  0.7053
 5113TIP3   OH215344   1.237   4.960   3.128 -0.4227  0.1244 -0.1211
 5113TIP3    H115345   1.252   4.953   3.034 -1.2303 -2.0970 -0.1411
 5113TIP3    H215346   1.205   5.050   3.140 -1.0581  0.2104 -2.0884
 5114TIP3   OH215347   5.629   2.726   0.253 -0.1190 -0.1122  0.1335
 5114TIP3    H115348   5.712   2.715   0.300 -0.3804 -0.1815  0.5938
 5114TIP3    H215349   5.639   2.806   0.203  0.5187 -0.5444 -0.4446
 5115TIP3   OH215350   3.078   1.014   1.288  0.5160  0.4316 -0.1624
 5115TIP3    H115351   3.043   0.953   1.354 -0.6222  1.1644 -0.0588
 5115TIP3    H215352   3.141   1.068   1.336  0.2725  0.4448  0.1442
 5116TIP3   OH215353   3.839   1.324   1.690  0.1426  0.7863 -0.3427
 5116TIP3    H115354   3.771   1.289   1.748  0.2100  0.6712 -0.3336
 5116TIP3    H215355   3.883   1.247   1.655  0.2847  0.8612 -0.3299
 5117TIP3   OH215356   1.198   1.876   1.866  0.0206  0.3654  0.1621
 5117TIP3    H115357   1.226   1.956   1.821  2.0970  1.5531  3.2722
 5117TIP3    H215358   1.277   1.842   1.907 -1.4372 -1.4913  1.5965
 5118TIP3   OH215359   4.988   2.134   3.059 -0.1961 -0.0461 -0.1041
 5118TIP3    H115360   4.905   2.093   3.082 -0.2019 -0.8716 -1.5157
 5118TIP3    H215361   4.963   2.216   3.016 -0.2863 -0.2894 -0.5191
 5119TIP3   OH215362   4.572   3.868   2.864  0.1482  0.7864  0.1363
 5119TIP3    H115363   4.547   3.948   2.818  0.8156  0.3633 -1.0011
 5119TIP3    H215364   4.555   3.887   2.957 -2.4594  1.2223 -0.3538
 5120TIP3   OH215365   6.097   4.742   2.004 -0.0633  0.2165 -0.3376
 5120TIP3    H115366   6.160   4.735   2.076 -1.0528 -0.4403  0.4884
 5120TIP3    H215367   6.138   4.803   1.942  1.8883 -1.0234 -0.3566
 5121TIP3   OH215368   0.964   4.948   2.858 -0.3039 -0.0843  0.1083
 5121TIP3    H115369   0.964   4.910   2.770 -0.0696  0.4204 -0.1123
 5121TIP3    H215370   0.964   4.873   2.917 -0.5460 -0.4259 -0.3237
 5122TIP3   OH215371   5.016   5.283   3.144  0.2234  0.4919  0.3261
 5122TIP3    H115372   5.024   5.357   3.203 -0.1637  0.4764  0.3960
 5122TIP3    H215373   5.041   5.317   3.058  0.1291  0.6803  0.3745
 5123TIP3   OH215374   0.120   3.422   1.251  0.3452 -0.4790 -0.1798
 5123TIP3    H115375   0.052   3.421   1.318  1.1873 -0.7544  0.6904
 5123TIP3    H215376   0.072   3.414   1.168 -0.6081 -1.7671  0.4711
 5124TIP3   OH215377   0.357   5.021   2.296  0.1739  0.3601 -0.1935
 5124TIP3    H115378   0.402   5.057   2.373  1.2904  1.5247 -1.3339
 5124TIP3    H215379   0.332   5.098   2.245  2.2313 -0.3730 -2.5091
 5125TIP3   OH215380   4.004   0.830   3.303  0.3508 -0.0899  0.2341
 5125TIP3    H115381   4.003   0.794   3.214 -0.3774 -0.2523  0.3003
 5125TIP3    H215382   3.916   0.814   3.336  0.4700  0.4189  0.8107
 5126TIP3   OH215383   1.018   2.118   2.392 -0.2640 -0.0718  0.2445
 5126TIP3    H115384   0.955   2.098   2.462 -0.5711 -0.5810 -0.1676
 5126TIP3    H215385   0.967   2.115   2.312  0.3568 -0.8902 -0.1363
 5127TIP3   OH215386   4.710   4.448   1.252  0.2668  0.7496 -0.1340
 5127TIP3    H115387   4.689   4.511   1.183  3.2018  3.4335  1.1396
 5127TIP3    H215388   4.650   4.470   1.323 -0.2817  0.4880 -0.5080
 5128TIP3   OH215389   3.755   0.434   4.996  0.0212  0.6925  0.3625
 5128TIP3    H115390   3.739   0.502   5.061  0.8697  1.5494 -0.2874
 5128TIP3    H215391   3.832   0.465   4.948  0.1149 -0.4864 -0.2810
 5129TIP3   OH215392   3.964   5.026   2.306 -0.1969  0.0157 -0.4451
 5129TIP3    H115393   3.894   5.066   2.255  2.1400  0.1836 -3.8601
 5129TIP3    H215394   3.981   4.942   2.263  2.1005  0.2770 -0.1887
 5130TIP3   OH215395   1.391   2.002   1.127 -0.3016  0.0546 -0.9092
 5130TIP3    H115396   1.438   2.066   1.073 -2.5761  1.7367 -1.0319
 5130TIP3    H215397   1.329   1.961   1.067  0.4102 -1.5852 -0.5858
 5131TIP3   OH215398   4.672   4.725   4.782 -0.3493 -0.0179 -0.0834
 5131TIP3    H115399   4.577   4.727   4.773 -0.3405  0.3436 -0.1060
 5131TIP3    H215400   4.696   4.636   4.756 -0.5338  0.3457 -1.6028
 5132TIP3   OH215401   1.489   3.489   3.688 -0.0795  0.1038  0.4125
 5132TIP3    H115402   1.413   3.462   3.741 -0.5225 -0.3478 -0.4379
 5132TIP3    H215403   1.537   3.407   3.673  1.2547  0.5488  1.9474
 5133TIP3   OH215404   3.184   5.571   2.623  0.1767  0.1211 -0.1482
 5133TIP3    H115405   3.231   5.629   2.683 -0.8961 -0.5083  1.3368
 5133TIP3    H215406   3.107   5.621   2.597  0.0367 -0.0634 -0.0833
 5134TIP3   OH215407   3.052   1.979   0.082  0.1442  0.5538  0.1299
 5134TIP3    H115408   3.026   1.929   0.160  2.0215 -0.9992 -0.1761
 5134TIP3    H215409   3.076   2.064   0.116 -0.0040  0.2197  1.1181
 5135TIP3   OH215410   5.731   0.122   4.625  0.0440 -0.0994  0.1478
 5135TIP3    H115411   5.775   0.058   4.569  0.3642 -0.4703  0.8097
 5135TIP3    H215412   5.642   0.127   4.590  0.1651 -0.5202 -0.2359
 5136TIP3   OH215413   5.606   5.455   4.821 -0.3287  0.3970  0.3748
 5136TIP3    H115414   5.522   5.422   4.853 -0.1786  0.2079  0.5711
 5136TIP3    H215415   5.599   5.550   4.831 -0.6849  0.4174 -0.0106
 5137TIP3   OH215416   6.190   5.374   1.830 -0.2282  0.0017  0.4298
 5137TIP3    H115417   6.229   5.459   1.810  2.3003 -0.8148  1.5277
 5137TIP3    H215418   6.125   5.393   1.898 -0.8634  1.2175 -0.4652
 5138TIP3   OH215419   1.211   4.231   4.791 -0.3420  0.1518 -0.8506
 5138TIP3    H115420   1.283   4.293   4.783 -0.7940  0.9850  1.0840
 5138TIP3    H215421   1.137   4.274   4.747 -0.4343  0.6402 -0.2302
 5139TIP3   OH215422   5.552   3.148   1.605 -0.1321 -0.3791 -0.6202
 5139TIP3    H115423   5.482   3.161   1.541  0.2303 -0.1510 -0.9713
 5139TIP3    H215424   5.506   3.133   1.688 -0.6129 -1.2303 -1.0279
 5140TIP3   OH215425   0.406   3.234   1.645 -0.1559 -0.5912  0.3649
 5140TIP3    H115426   0.378   3.285   1.721 -0.3395 -1.1881  0.7104
 5140TIP3    H215427   0.333   3.241   1.583  0.0024 -0.0864  0.2327
 5141TIP3   OH215428   2.053   3.282   5.085  0.3297 -0.1247  0.2928
 5141TIP3    H115429   2.005   3.348   5.135  0.9607  1.8586 -1.5781
 5141TIP3    H215430   2.005   3.274   5.003  1.4707 -0.3841 -0.3690
 5142TIP3   OH215431   1.874   1.111   3.168  0.6816 -0.0910  0.1325
 5142TIP3    H115432   1.831   1.102   3.253 -1.0870  1.1225 -0.5846
 5142TIP3    H215433   1.850   1.031   3.121 -1.1050  0.6744 -0.3499
 5143TIP3   OH215434   1.361   5.778   2.286 -0.9801 -0.1828  0.0996
 5143TIP3    H115435   1.288   5.738   2.239  1.4735 -0.8812 -3.4789
 5143TIP3    H215436   1.412   5.703   2.320  1.0644 -0.0996 -2.4991
 5144TIP3   OH215437   1.000   4.740   0.221  0.2143  0.0683  0.1668
 5144TIP3    H115438   1.082   4.709   0.259 -0.1326 -0.1519  0.7333
 5144TIP3    H215439   1.002   4.708   0.131 -0.3393 -2.0334  0.8444
 5145TIP3   OH215440   3.123   3.831   3.403  0.0447 -0.6406 -0.1101
 5145TIP3    H115441   3.219   3.839   3.401  0.5385 -3.8086  2.5069
 5145TIP3    H215442   3.102   3.774   3.329  0.6279 -2.4102  1.0340
 5146TIP3   OH215443   3.033   3.992   2.787 -0.6332 -0.3069 -0.4674
 5146TIP3    H115444   3.004   4.080   2.811  0.2505 -0.7367  2.6107
 5146TIP3    H215445   2.952   3.941   2.783 -0.8965 -0.3696  2.8497
 5147TIP3   OH215446   5.903   3.734   4.812 -0.5061  0.6382 -0.2116
 5147TIP3    H115447   5.876   3.653   4.769  0.1954 -0.2135  0.8776
 5147TIP3    H215448   5.866   3.727   4.900  0.5297  0.9355  0.2692
 5148TIP3   OH215449   0.948   2.419   1.251 -0.2309  0.1917  0.4997
 5148TIP3    H115450   1.011   2.475   1.205 -0.6346 -0.5524 -1.0248
 5148TIP3    H215451   0.906   2.477   1.314 -0.7379  1.6764 -1.1272
 5149TIP3   OH215452   6.017   3.294   5.073 -0.5045  0.0693  0.4917
 5149TIP3    H115453   6.080   3.354   5.113 -1.1864  1.5111 -0.5186
 5149TIP3    H215454   6.062   3.209   5.073  2.0855  1.2951 -1.4625
 5150TIP3   OH215455   4.178   0.790   1.706 -0.0428 -0.4211 -0.2047
 5150TIP3    H115456   4.180   0.863   1.768 -1.8380 -2.0535  1.9261
 5150TIP3    H215457   4.162   0.831   1.621 -1.9427  1.6185  1.0341
 5151TIP3   OH215458   1.155   3.707   5.005 -0.2038 -0.2089 -0.1565
 5151TIP3    H115459   1.141   3.630   5.061  2.2014  0.3477  1.3131
 5151TIP3    H215460   1.225   3.681   4.945 -0.0067  0.5372 -0.2586
 5152TIP3   OH215461   5.131   1.819   1.185  0.6123  0.2065  0.5268
 5152TIP3    H115462   5.218   1.782   1.198  0.0673 -1.1457  0.4709
 5152TIP3    H215463   5.121   1.822   1.090  0.3282 -0.3173  0.5371
 5153TIP3   OH215464   6.004   3.301   4.778 -0.2700 -0.2103  0.3782
 5153TIP3    H115465   5.938   3.252   4.730  1.2454 -1.6290 -0.3864
 5153TIP3    H215466   5.975   3.299   4.869 -1.8180  0.1703 -0.0877
 5154TIP3   OH215467   0.909   4.637   1.316 -0.1687 -0.0607  0.2278
 5154TIP3    H115468   0.822   4.632   1.274  0.5360  0.8213 -1.4554
 5154TIP3    H215469   0.897   4.596   1.401 -2.4898  0.9225  0.4447
 5155TIP3   OH215470   4.569   5.969   4.802 -0.2145 -0.1697 -0.8807
 5155TIP3    H115471   4.536   5.929   4.882  1.0524 -0.7085 -0.6154
 5155TIP3    H215472   4.491   6.005   4.760 -0.9178 -0.0355  0.4979
 5156TIP3   OH215473   0.655   4.602   4.372  0.5738  0.4363 -0.1546
 5156TIP3    H115474   0.573   4.632   4.331 -0.9069 -1.7144  1.0236
 5156TIP3    H215475   0.650   4.636   4.461 -0.6440 -2.1656  0.8872
 5157TIP3   OH215476   0.771   3.742   1.269  0.1427  0.3482  0.9321
 5157TIP3    H115477   0.765   3.778   1.181  3.2241  1.3075  1.0134
 5157TIP3    H215478   0.699   3.679   1.274 -0.4625  0.6693 -2.0436
 5158TIP3   OH215479   2.898   5.666   0.742 -0.2595 -0.4914 -0.0159
 5158TIP3    H115480   2.976   5.712   0.711  0.0384 -1.4385 -0.7106
 5158TIP3    H215481   2.854   5.729   0.798 -1.6998  1.9585 -3.5634
 5159TIP3   OH215482   0.985   3.168   5.079  0.2543 -0.2801  0.7276
 5159TIP3    H115483   1.005   3.257   5.049 -2.0509 -0.0188 -0.2674
 5159TIP3    H215484   1.070   3.124   5.079  1.1332  1.2178 -1.2328
 5160TIP3   OH215485   1.027   1.469   4.446 -0.0021 -0.4851 -0.1229
 5160TIP3    H115486   1.047   1.434   4.360 -0.0466 -2.1408  0.5036
 5160TIP3    H215487   1.035   1.394   4.505 -0.1009  0.5743  1.3001
 5161TIP3   OH215488   3.998   3.771   4.343 -0.4132 -0.1310 -0.1734
 5161TIP3    H115489   3.922   3.716   4.362 -0.9274  0.2863 -0.9435
 5161TIP3    H215490   3.968   3.860   4.363 -0.1523  0.0450 -0.5589
 5162TIP3   OH215491   2.393   4.883   1.589 -0.5684  0.2731  0.0861
 5162TIP3    H115492   2.299   4.898   1.584 -0.9441 -1.4606  1.1467
 5162TIP3    H215493   2.430   4.942   1.523 -2.4003  0.7908 -0.5423
 5163TIP3   OH215494   5.374   1.210   4.790 -0.3120 -0.0694  0.0183
 5163TIP3    H115495   5.301   1.149   4.781  0.3089 -0.6639 -1.3236
 5163TIP3    H215496   5.422   1.203   4.707  0.9992  0.6614  0.6737
 5164TIP3   OH215497   0.162   3.772   4.645 -0.2811  0.9140 -0.4046
 5164TIP3    H115498   0.110   3.797   4.721  0.4631 -1.0820  0.8456
 5164TIP3    H215499   0.149   3.843   4.583 -1.5424  2.2445  1.2717
 5165TIP3   OH215500   4.642   2.480   2.499  0.1560  1.0542  0.1352
 5165TIP3    H115501   4.637   2.424   2.576 -0.6315  0.4922 -0.3081
 5165TIP3    H215502   4.732   2.471   2.468  0.1648  0.3789  0.3324
 5166TIP3   OH215503   2.983   3.179   4.098  0.7209 -0.1455  0.0931
 5166TIP3    H115504   2.957   3.089   4.120  1.1784 -0.3745 -0.3106
 5166TIP3    H215505   2.959   3.189   4.006  1.3194 -0.0838 -0.0540
 5167TIP3   OH215506   5.720   0.698   4.975  0.0323 -0.2038 -0.3786
 5167TIP3    H115507   5.705   0.604   4.986  0.6245 -0.0662  2.0493
 5167TIP3    H215508   5.638   0.731   4.937 -1.4458 -1.2634  1.7019
 5168TIP3   OH215509   1.578   0.875   1.805  0.2242  0.8375 -0.1412
 5168TIP3    H115510   1.581   0.948   1.744  0.4581  0.6357 -0.3801
 5168TIP3    H215511   1.670   0.862   1.830  0.1216  0.9478  0.2870
 5169TIP3   OH215512   0.619   5.864   3.173  0.1376 -0.1151  0.2379
 5169TIP3    H115513   0.662   5.780   3.164  0.3020 -0.0530  0.4387
 5169TIP3    H215514   0.670   5.911   3.240  1.2226  0.8827 -1.2316
 5170TIP3   OH215515   6.203   2.237   0.826  0.0745  0.5527 -0.3279
 5170TIP3    H115516   6.259   2.310   0.853 -0.3578  0.3477  1.2577
 5170TIP3    H215517   6.257   2.159   0.841  0.0066  0.4587 -0.5685
 5171TIP3   OH215518   5.262   2.793   1.015  0.0542  0.0336 -0.1250
 5171TIP3    H115519   5.311   2.718   1.048 -0.3994 -0.3694 -0.3576
 5171TIP3    H215520   5.301   2.869   1.058 -0.4346 -0.4649  1.2308
 5172TIP3   OH215521   2.263   5.855   3.377  0.0516  0.3223  0.1471
 5172TIP3    H115522   2.200   5.881   3.445 -2.0699 -0.7486 -1.2991
 5172TIP3    H215523   2.249   5.918   3.306  1.0893  0.4333  0.0157
 5173TIP3   OH215524   1.353   3.076   3.587  0.3752  0.1416  0.5149
 5173TIP3    H115525   1.382   3.154   3.541  2.4480 -1.0134 -0.2584
 5173TIP3    H215526   1.259   3.072   3.571  0.4563  1.7503 -0.5314
 5174TIP3   OH215527   6.137   0.337   1.000  0.2558  0.2579  0.0553
 5174TIP3    H115528   6.102   0.394   1.068  1.3993 -0.0530  0.9458
 5174TIP3    H215529   6.063   0.283   0.973 -0.2802  0.5809  0.8573
 5175TIP3   OH215530   4.966   2.480   4.274  0.0743  0.3980 -0.5315
 5175TIP3    H115531   4.975   2.389   4.248  1.8199 -0.3595  2.2611
 5175TIP3    H215532   4.973   2.479   4.370 -0.5231  3.4007 -0.3310
 5176TIP3   OH215533   1.265   0.583   3.108  0.0042  0.1307  0.0649
 5176TIP3    H115534   1.270   0.534   3.026  2.9100  0.3841 -0.0031
 5176TIP3    H215535   1.178   0.624   3.106 -0.6946 -1.3062 -2.0144
 5177TIP3   OH215536   2.120   1.675   1.491 -0.5094 -0.0038  0.1951
 5177TIP3    H115537   2.131   1.587   1.454 -1.2068 -0.1954  0.4252
 5177TIP3    H215538   2.030   1.698   1.470 -1.0238 -0.2378  1.9963
 5178TIP3   OH215539   5.461   4.744   3.148  0.5500  0.2442 -0.1209
 5178TIP3    H115540   5.518   4.687   3.200  1.9108  1.1516 -0.5636
 5178TIP3    H215541   5.475   4.715   3.058 -0.5709 -0.2569 -0.1518
 5179TIP3   OH215542   2.222   4.328   2.179 -0.7079  0.0661  0.2001
 5179TIP3    H115543   2.193   4.418   2.190  0.1418  0.6069 -1.5323
 5179TIP3    H215544   2.151   4.275   2.213 -3.3080  1.3125 -2.8470
 5180TIP3   OH215545   4.498   4.117   2.736 -0.0736  0.5975  0.3558
 5180TIP3    H115546   4.540   4.096   2.652  0.6392  2.1412  0.3040
 5180TIP3    H215547   4.457   4.202   2.722 -1.6277  0.0100  1.0096
 5181TIP3   OH215548   4.169   1.243   4.737  0.0046 -0.3980 -0.5909
 5181TIP3    H115549   4.183   1.255   4.643 -2.0885 -3.9150 -1.5303
 5181TIP3    H215550   4.215   1.161   4.758  0.0898  0.1152  1.3950
 5182TIP3   OH215551   4.163   2.958   2.715 -0.7035  0.1630  0.6459
 5182TIP3    H115552   4.118   2.895   2.658  1.1922  0.9675 -1.9048
 5182TIP3    H215553   4.214   2.904   2.775 -0.8110 -0.7485 -0.0586
 5183TIP3   OH215554   4.056   4.493   1.570  0.2190 -0.3626 -0.5695
 5183TIP3    H115555   4.042   4.473   1.477  0.1372 -0.3605 -0.5575
 5183TIP3    H215556   4.149   4.471   1.585  0.6166  0.9769 -0.9873
 5184TIP3   OH215557   6.161   1.266   2.387  0.3722  0.4755 -0.0011
 5184TIP3    H115558   6.074   1.259   2.348  1.0723 -2.2449 -1.2786
 5184TIP3    H215559   6.182   1.359   2.379 -2.3325  1.2115  0.2690
 5185TIP3   OH215560   6.190   5.797   3.510  0.7460  0.0954  0.3224
 5185TIP3    H115561   6.218   5.859   3.578  0.3273  0.4599  0.1710
 5185TIP3    H215562   6.101   5.772   3.537  0.1730  1.0301 -0.6180
 5186TIP3   OH215563   1.641   5.624   2.652  0.1751 -0.8385 -0.4854
 5186TIP3    H115564   1.640   5.652   2.561  0.9261  0.4312 -0.1286
 5186TIP3    H215565   1.568   5.563   2.659 -0.8614  0.2084 -1.5920
 5187TIP3   OH215566   4.006   3.378   0.269  0.2265  0.2464 -0.0895
 5187TIP3    H115567   4.011   3.291   0.309  1.1839 -0.0037 -0.7147
 5187TIP3    H215568   3.942   3.369   0.198 -1.1137  0.5671  1.0392
 5188TIP3   OH215569   0.113   3.361   4.964 -0.1694  0.0519 -0.1759
 5188TIP3    H115570   0.075   3.328   5.045 -2.6489  0.9174 -0.8881
 5188TIP3    H215571   0.065   3.442   4.946 -0.3298 -0.5354 -2.9056
 5189TIP3   OH215572   6.082   4.553   0.447  0.1685  0.5501  0.4070
 5189TIP3    H115573   5.993   4.549   0.414  0.3699 -2.2300  0.0097
 5189TIP3    H215574   6.127   4.614   0.388 -0.8586  0.0218 -0.9462
 5190TIP3   OH215575   1.041   0.614   0.088 -0.4973  0.2512  0.3312
 5190TIP3    H115576   0.955   0.593   0.052 -0.8625 -0.9989  1.8370
 5190TIP3    H215577   1.025   0.689   0.145 -0.3074  0.9046 -0.4574
 5191TIP3   OH215578   4.957   2.434   1.916  0.5272 -0.1077 -0.0409
 5191TIP3    H115579   4.867   2.467   1.916  0.6303  0.2825  1.4893
 5191TIP3    H215580   4.949   2.340   1.903 -0.1495 -0.1371  0.5298
 5192TIP3   OH215581   5.006   5.879   4.217  0.3771 -0.1435 -0.2007
 5192TIP3    H115582   5.035   5.928   4.294  1.4936 -2.0984  0.6911
 5192TIP3    H215583   4.928   5.833   4.245  0.3070 -0.2088 -0.4961
 5193TIP3   OH215584   1.110   2.899   3.319  0.2035 -0.5782 -0.3875
 5193TIP3    H115585   1.084   2.989   3.344  0.4501 -0.7771  0.6275
 5193TIP3    H215586   1.111   2.901   3.223  0.4060  0.5636 -0.3848
 5194TIP3   OH215587   1.437   3.813   4.297 -0.3396  0.3562  0.2390
 5194TIP3    H115588   1.514   3.863   4.321  1.0441 -1.2447 -0.6269
 5194TIP3    H215589   1.421   3.755   4.372 -0.4863  0.4566  0.2845
 5195TIP3   OH215590   6.129   5.888   2.351 -0.0149 -0.2472 -0.1381
 5195TIP3    H115591   6.121   5.906   2.445 -0.1422  1.1214 -0.3949
 5195TIP3    H215592   6.039   5.874   2.322 -0.1495  0.9442 -0.3438
 5196TIP3   OH215593   3.018   0.649   3.465  0.4732  0.5462  0.1118
 5196TIP3    H115594   3.107   0.640   3.431  0.3306 -0.3892 -0.0368
 5196TIP3    H215595   2.995   0.562   3.497  0.5150  1.3433  2.4626
 5197TIP3   OH215596   3.533   5.724   3.459  0.4794  0.3747  0.4612
 5197TIP3    H115597   3.509   5.791   3.394 -0.6383 -2.4172 -2.2553
 5197TIP3    H215598   3.628   5.718   3.452  0.2962 -1.4680 -2.9361
 5198TIP3   OH215599   0.949   0.686   4.864  0.8843  0.0111 -0.4251
 5198TIP3    H115600   0.910   0.599   4.875  1.7175 -0.2158  1.0118
 5198TIP3    H215601   1.040   0.669   4.842  1.0151  0.5101 -0.2894
 5199TIP3   OH215602   5.196   3.635   0.111  0.2981 -0.0644 -0.2125
 5199TIP3    H115603   5.272   3.685   0.080 -0.3007  0.9100 -0.1571
 5199TIP3    H215604   5.134   3.702   0.139 -1.6249 -0.7036 -2.6015
 5200TIP3   OH215605   4.316   5.002   0.274 -0.6380 -0.4114  0.1020
 5200TIP3    H115606   4.382   4.941   0.240 -0.6021  0.0437 -0.6594
 5200TIP3    H215607   4.244   4.945   0.301 -0.9629 -0.7777 -1.3925
 5201TIP3   OH215608   2.276   0.361   4.272 -0.5229  0.1226  0.0548
 5201TIP3    H115609   2.248   0.449   4.248 -0.5573 -0.0153 -0.4121
 5201TIP3    H215610   2.303   0.321   4.190 -2.1182 -0.8885 -0.0102
 5202TIP3   OH215611   1.907   0.169   0.994  0.7558  0.2737 -0.2236
 5202TIP3    H115612   1.941   0.198   1.079 -0.7824  1.7583 -0.0739
 5202TIP3    H215613   1.944   0.081   0.982  0.1242 -0.4527  2.5065
 5203TIP3   OH215614  -0.003   1.138   2.242  0.1163 -0.4039  0.8906
 5203TIP3    H115615  -0.038   1.200   2.306  0.6801 -1.1297  1.9364
 5203TIP3    H215616   0.052   1.191   2.185  0.0360  0.1760  1.3445
 5204TIP3   OH215617   0.964   2.265   0.861  0.0685 -0.7712  0.3876
 5204TIP3    H115618   1.042   2.316   0.884 -0.5277 -0.3819  1.6185
 5204TIP3    H215619   0.927   2.313   0.786 -0.0652  0.1990  1.0494
 5205TIP3   OH215620   0.800   1.705   0.603 -0.2136  0.3274  0.2263
 5205TIP3    H115621   0.706   1.692   0.619 -0.4959  0.9438 -0.8464
 5205TIP3    H215622   0.807   1.716   0.508  0.8725  0.9154  0.3579
 5206TIP3   OH215623   0.077   5.863   2.453 -0.4577 -0.0198 -0.1455
 5206TIP3    H115624   0.099   5.836   2.364 -1.8341 -1.4292 -0.1082
 5206TIP3    H215625  -0.016   5.844   2.461 -0.6363  1.2289  1.2178
 5207TIP3   OH215626   2.315   0.193   1.865 -0.3090  0.2503 -0.0025
 5207TIP3    H115627   2.327   0.252   1.791  0.8259 -0.7085 -0.6164
 5207TIP3    H215628   2.380   0.220   1.929  0.1239 -0.2370 -0.2308
 5208TIP3   OH215629   2.198   1.945   3.084 -0.1400 -0.0695  0.3664
 5208TIP3    H115630   2.119   1.996   3.103  0.1733  0.7267 -0.4354
 5208TIP3    H215631   2.226   1.974   2.998  0.5070 -1.0279  0.2337
 5209TIP3   OH215632   5.966   0.350   0.080  0.2071  0.2069  0.3782
 5209TIP3    H115633   5.933   0.261   0.068  0.1831  0.1340  0.9496
 5209TIP3    H215634   5.899   0.407   0.043 -0.0351  0.0114  0.5195
 5210TIP3   OH215635   1.172   3.152   2.567  0.0533  0.2978  0.0198
 5210TIP3    H115636   1.136   3.226   2.617 -0.9973  2.3601 -3.4573
 5210TIP3    H215637   1.236   3.192   2.509  1.6609 -2.0713  0.0534
 5211TIP3   OH215638   2.299   5.623   3.666 -0.3730 -0.0655  0.2229
 5211TIP3    H115639   2.261   5.710   3.656 -1.0549 -0.3676  0.1526
 5211TIP3    H215640   2.239   5.564   3.619 -0.5430 -0.7249  1.2180
 5212TIP3   OH215641   0.490   1.404   0.301  0.1654  0.7441  0.7788
 5212TIP3    H115642   0.503   1.343   0.228  1.9396  0.6328  1.1616
 5212TIP3    H215643   0.449   1.481   0.260 -3.8849 -1.2315  0.5405
 5213TIP3   OH215644   2.430   5.683   1.868  0.1258  0.9635 -0.2823
 5213TIP3    H115645   2.478   5.711   1.946  0.5368  0.4516 -0.3489
 5213TIP3    H215646   2.446   5.589   1.863 -0.0433  0.9665 -0.8901
 5214TIP3   OH215647   0.394   4.436   4.299  0.2307 -0.4697  0.0637
 5214TIP3    H115648   0.483   4.406   4.286  0.4019  0.1778 -0.3041
 5214TIP3    H215649   0.367   4.399   4.383  0.9113 -0.5050  0.2654
 5215TIP3   OH215650   6.155   0.212   3.533 -0.0927  0.1782 -0.0770
 5215TIP3    H115651   6.241   0.253   3.535  0.0090  0.1626 -2.1282
 5215TIP3    H215652   6.164   0.134   3.588  1.2350  0.0924 -0.3995
 5216TIP3   OH215653   0.194   5.631   1.968 -0.2883  0.1540 -0.6549
 5216TIP3    H115654   0.190   5.594   2.056 -0.8236  1.6052 -0.0212
 5216TIP3    H215655   0.201   5.726   1.983  0.3138  0.3784 -2.1795
 5217TIP3   OH215656   2.599   2.437   1.426 -0.3848 -0.5348 -0.6053
 5217TIP3    H115657   2.563   2.357   1.464  0.0551 -0.4557 -0.0023
 5217TIP3    H215658   2.682   2.410   1.388 -0.0010 -0.2770  0.0320
 5218TIP3   OH215659   1.890   0.776   3.530 -0.5547  0.4907  0.2531
 5218TIP3    H115660   1.853   0.839   3.591  0.3626 -0.4876  1.8855
 5218TIP3    H215661   1.960   0.824   3.485 -0.1312  0.7500  1.1813
 5219TIP3   OH215662   4.833   0.034   4.827  0.1286  0.2307  0.4791
 5219TIP3    H115663   4.750   0.006   4.789  1.1604 -0.0010 -1.7091
 5219TIP3    H215664   4.845  -0.024   4.903 -1.3809 -0.1487  0.4605
 5220TIP3   OH215665   4.145   3.086   0.998  0.0877  0.0971  0.0729
 5220TIP3    H115666   4.120   3.117   0.911 -1.2214 -0.4073  0.2461
 5220TIP3    H215667   4.164   3.165   1.048  3.1515  0.3784 -1.2504
 5221TIP3   OH215668   1.467   5.171   1.085 -0.3040  0.3542 -0.4628
 5221TIP3    H115669   1.405   5.237   1.116  0.6691  1.6298 -1.1321
 5221TIP3    H215670   1.552   5.216   1.085  0.5204 -1.1392 -0.2178
 5222TIP3   OH215671   4.626   1.070   4.053 -0.3113  0.0772 -0.8708
 5222TIP3    H115672   4.581   1.154   4.059 -0.8638 -0.2862  0.6085
 5222TIP3    H215673   4.562   1.012   4.013 -0.1527  0.2103 -1.3211
 5223TIP3   OH215674   1.015   5.383   1.264  0.2264 -0.1541 -0.0290
 5223TIP3    H115675   0.947   5.441   1.231  0.5611 -0.1730 -0.7874
 5223TIP3    H215676   1.026   5.407   1.356 -0.0592  0.5700 -0.1805
 5224TIP3   OH215677   3.051   1.254   3.830  0.0797  0.1933 -0.1659
 5224TIP3    H115678   3.112   1.252   3.757  0.0888  0.3578 -0.1620
 5224TIP3    H215679   3.023   1.163   3.840 -0.5826  0.3105 -0.9212
 5225TIP3   OH215680   5.885   5.292   0.098 -0.2008  0.1620  0.2060
 5225TIP3    H115681   5.912   5.369   0.047 -0.1275  0.0166  0.0262
 5225TIP3    H215682   5.848   5.329   0.178 -0.5268  0.4023 -0.0476
 5226TIP3   OH215683   5.997   0.619   1.427 -0.6778  0.6896  0.1606
 5226TIP3    H115684   6.042   0.700   1.404 -1.8479  1.4398  0.4187
 5226TIP3    H215685   5.941   0.643   1.501 -1.3375 -0.2594 -0.0086
 5227TIP3   OH215686   1.218   3.366   2.366 -0.3337  0.3129 -0.1900
 5227TIP3    H115687   1.127   3.389   2.347  0.0298  0.7511 -1.4893
 5227TIP3    H215688   1.256   3.346   2.281  0.8369  0.2875  0.3184
 5228TIP3   OH215689   0.841   3.537   1.803 -0.0271 -0.2375 -0.7803
 5228TIP3    H115690   0.928   3.560   1.769  0.0320 -0.6292 -0.9003
 5228TIP3    H215691   0.859   3.499   1.889 -0.0640 -0.4955 -0.8868
 5229TIP3   OH215692   4.003   0.245   1.031  0.3610  0.2419 -0.0641
 5229TIP3    H115693   3.974   0.180   1.096 -1.1149  1.0825  0.1500
 5229TIP3    H215694   3.940   0.238   0.959  0.1420  1.4530 -0.0170
 5230TIP3   OH215695   3.935   0.552   3.372 -0.1817 -0.0354 -0.1858
 5230TIP3    H115696   4.000   0.599   3.425  0.2852  0.6965 -1.3723
 5230TIP3    H215697   3.852   0.593   3.394  0.2349  1.4566 -1.2908
 5231TIP3   OH215698   4.519   2.339   2.299 -0.2033 -0.1149 -0.0862
 5231TIP3    H115699   4.474   2.274   2.353  1.0002 -1.5059 -0.6716
 5231TIP3    H215700   4.556   2.401   2.362 -0.1104 -0.8490  0.5985
 5232TIP3   OH215701   0.161   2.676   0.988 -0.6301  0.0713  1.0763
 5232TIP3    H115702   0.128   2.736   0.921 -1.1218 -0.1489  1.1102
 5232TIP3    H215703   0.094   2.607   0.993  0.7171 -1.4355 -0.1888
 5233TIP3   OH215704   2.642   2.762   0.420 -0.1882  0.0838  0.5041
 5233TIP3    H115705   2.679   2.712   0.347  1.0536  0.5442  0.7880
 5233TIP3    H215706   2.641   2.699   0.493  0.0788  0.0747  0.5024
 5234TIP3   OH215707   2.818   4.988   2.296  0.2948  0.1758  0.1291
 5234TIP3    H115708   2.760   4.918   2.267  0.3974 -0.0215  0.3974
 5234TIP3    H215709   2.901   4.970   2.251  0.1227  0.5074 -0.3224
 5235TIP3   OH215710   5.866   1.502   2.569  0.0314 -0.7115  0.3566
 5235TIP3    H115711   5.897   1.526   2.482  0.1203 -2.4116 -0.1163
 5235TIP3    H215712   5.813   1.576   2.597  1.0810  0.4462 -0.5738
 5236TIP3   OH215713   3.839   2.798   3.991  0.7427 -0.0759 -0.7094
 5236TIP3    H115714   3.857   2.761   4.078  1.5429 -1.2539 -1.3352
 5236TIP3    H215715   3.911   2.858   3.975  0.6070  0.1248 -0.5637
 5237TIP3   OH215716   1.261   2.083   5.190  0.7919  0.6202 -0.1355
 5237TIP3    H115717   1.259   2.177   5.176  1.3581  0.8913  1.4074
 5237TIP3    H215718   1.258   2.045   5.102  0.7944  2.0702 -0.7808
 5238TIP3   OH215719   1.318   4.458   1.778  0.3089 -0.1612 -0.3270
 5238TIP3    H115720   1.306   4.510   1.698 -0.5270  0.6983  0.3323
 5238TIP3    H215721   1.344   4.372   1.747 -1.5376 -0.3050 -1.6237
 5239TIP3   OH215722   5.755   4.540   3.876 -0.6131  0.2790 -0.0887
 5239TIP3    H115723   5.667   4.508   3.858 -0.8414  0.7004  0.2693
 5239TIP3    H215724   5.812   4.464   3.858 -1.2635 -0.8791  2.3404
 5240TIP3   OH215725   0.996   1.577   0.905 -0.3012  0.8818  0.7100
 5240TIP3    H115726   1.007   1.650   0.844 -2.8369 -0.0512 -1.0149
 5240TIP3    H215727   0.912   1.539   0.882 -0.3635 -0.8935  3.4207
 5241TIP3   OH215728   6.050   1.985   3.026 -0.0243  0.0821  0.2714
 5241TIP3    H115729   6.000   1.906   3.006 -0.8625  0.1310  1.9483
 5241TIP3    H215730   6.076   1.973   3.118  1.9175  0.6779 -0.1550
 5242TIP3   OH215731   6.170   5.353   2.707 -0.4398  0.3508  0.3477
 5242TIP3    H115732   6.118   5.398   2.774 -1.0124  0.7453 -0.3422
 5242TIP3    H215733   6.177   5.263   2.738 -0.8995  0.4724  0.8147
 5243TIP3   OH215734   3.914   2.712   1.599  0.2662 -0.1181 -0.1710
 5243TIP3    H115735   3.852   2.761   1.546 -0.1856  0.6781  1.0595
 5243TIP3    H215736   3.996   2.716   1.550 -0.2005  0.3920 -0.9208
 5244TIP3   OH215737   4.099   5.263   4.554  0.2731 -0.4033 -0.7831
 5244TIP3    H115738   4.078   5.172   4.534 -1.0764 -0.1471 -0.6255
 5244TIP3    H215739   4.154   5.257   4.633 -2.0025 -1.0160  0.8777
 5245TIP3   OH215740   1.135   2.768   1.491 -0.6745 -0.1806  0.1113
 5245TIP3    H115741   1.090   2.848   1.516 -1.1870 -0.7273  1.0030
 5245TIP3    H215742   1.084   2.698   1.532 -0.1572 -0.9567 -0.5313
 5246TIP3   OH215743   5.587   0.711   3.078 -0.0832  0.1419 -0.5505
 5246TIP3    H115744   5.529   0.693   3.004 -1.5540  0.3085  0.5176
 5246TIP3    H215745   5.674   0.713   3.039 -0.7064 -0.6954 -2.1269
 5247TIP3   OH215746   3.895   4.702   1.607 -0.3333 -0.0448 -0.0740
 5247TIP3    H115747   3.927   4.614   1.585 -0.6541 -0.3048  0.4940
 5247TIP3    H215748   3.961   4.737   1.667  0.3887  0.5541 -1.1691
 5248TIP3   OH215749   4.411   4.082   4.727  0.5351  0.0438 -0.6584
 5248TIP3    H115750   4.449   4.000   4.694 -0.0850 -0.6274  0.2286
 5248TIP3    H215751   4.442   4.087   4.818 -0.7902 -0.0892 -0.1825
 5249TIP3   OH215752   2.966   4.176   1.535 -0.4916 -0.1221  0.7670
 5249TIP3    H115753   2.977   4.110   1.604  0.7992 -0.9788 -0.1949
 5249TIP3    H215754   3.014   4.252   1.567  2.1121 -1.2733 -0.0649
 5250TIP3   OH215755   3.223   4.143   2.556 -0.5583 -0.3870 -0.9812
 5250TIP3    H115756   3.182   4.144   2.643  0.9633  1.1566 -0.2158
 5250TIP3    H215757   3.314   4.117   2.573 -0.1432  0.3041 -2.0540
 5251TIP3   OH215758   0.788   4.013   2.210 -0.4257  0.0167  0.2420
 5251TIP3    H115759   0.867   3.998   2.159 -0.9398  1.5410 -1.1096
 5251TIP3    H215760   0.819   4.051   2.293  0.2529  3.2456 -1.3223
 5252TIP3   OH215761   4.012   5.019   4.158 -0.4259 -0.1154 -0.3582
 5252TIP3    H115762   4.101   5.036   4.190 -0.6734 -0.2866  0.4528
 5252TIP3    H215763   3.974   5.106   4.144 -1.1633  0.0968  2.2903
 5253TIP3   OH215764   5.003   0.121   0.569  0.2174  0.7884  0.3935
 5253TIP3    H115765   5.069   0.075   0.517  2.0403 -0.2311  3.3475
 5253TIP3    H215766   4.920   0.086   0.539  1.2973 -1.1758 -0.5126
 5254TIP3   OH215767   5.527   2.887   2.480  0.0177 -0.5907  0.6934
 5254TIP3    H115768   5.613   2.873   2.520  1.4029 -0.9514 -2.1379
 5254TIP3    H215769   5.520   2.982   2.471  0.8992 -0.6179 -0.5078
 5255TIP3   OH215770   0.671   0.658   3.785  0.5553  0.9721 -0.0163
 5255TIP3    H115771   0.582   0.690   3.771  0.2255 -0.5647 -1.8930
 5255TIP3    H215772   0.660   0.564   3.798  1.9521  0.6654 -0.9502
 5256TIP3   OH215773   3.917   3.027   4.609 -0.4397  0.6396  0.3197
 5256TIP3    H115774   3.971   3.070   4.543 -0.7730  1.5611  0.6265
 5256TIP3    H215775   3.860   3.097   4.642 -0.8717 -0.0042  0.9646
 5257TIP3   OH215776   5.794   2.304   0.899  0.0037 -0.0992 -0.1873
 5257TIP3    H115777   5.824   2.394   0.913  1.2912 -0.2192 -1.8554
 5257TIP3    H215778   5.862   2.249   0.937  0.2239 -0.3709 -0.9599
 5258TIP3   OH215779   4.221   1.832   2.425 -0.7219  0.4250  0.4023
 5258TIP3    H115780   4.295   1.839   2.364 -0.7539  0.9124  0.4138
 5258TIP3    H215781   4.188   1.743   2.412 -0.7728  0.5432 -0.3383
 5259TIP3   OH215782   0.345   3.222   4.157  0.1561 -0.3472  0.2275
 5259TIP3    H115783   0.302   3.307   4.165 -0.2179 -0.4358 -0.7500
 5259TIP3    H215784   0.386   3.223   4.071  0.2279 -1.1179  0.2438
 5260TIP3   OH215785   1.109   4.009   1.260 -0.4565 -0.1768  0.1302
 5260TIP3    H115786   1.178   4.064   1.223 -1.6889  1.3315 -0.0505
 5260TIP3    H215787   1.036   4.069   1.274 -1.5109 -1.5875  0.9405
 5261TIP3   OH215788   6.290  -0.004   2.171  0.9475 -0.2555  0.1180
 5261TIP3    H115789   6.280   0.088   2.196 -1.9573 -0.1250 -1.1325
 5261TIP3    H215790   6.305  -0.050   2.254 -1.5269  0.9223  1.3245
 5262TIP3   OH215791   5.508   2.868   4.074  0.0876  0.4755  0.0212
 5262TIP3    H115792   5.543   2.873   4.163 -1.6286 -0.8663  0.8251
 5262TIP3    H215793   5.499   2.775   4.057  0.2417  0.7240 -1.5150
 5263TIP3   OH215794   1.541   3.176   4.252  0.3867 -0.0485 -0.0929
 5263TIP3    H115795   1.597   3.156   4.177  0.3925  0.1813 -0.1522
 5263TIP3    H215796   1.456   3.138   4.230  0.4305 -0.1149 -0.1468
 5264TIP3   OH215797   0.911   1.794   4.954 -0.4933  0.1683  0.1018
 5264TIP3    H115798   0.848   1.726   4.979 -2.0710  1.2147 -0.8594
 5264TIP3    H215799   0.873   1.875   4.988 -0.1016  0.9390 -1.2293
 5265TIP3   OH215800   3.040   3.609   0.183 -0.1489  0.8434 -0.1781
 5265TIP3    H115801   2.999   3.653   0.109  0.5765 -0.9773 -1.7622
 5265TIP3    H215802   3.134   3.612   0.163  0.0305  0.0525  0.4962
 5266TIP3   OH215803   1.773   3.676   0.028  0.5967 -0.6562  0.0201
 5266TIP3    H115804   1.751   3.664   0.121 -3.6993 -0.4887 -0.7670
 5266TIP3    H215805   1.756   3.591  -0.012  0.8393 -0.3005 -0.8555
 5267TIP3   OH215806   0.920   2.336   4.806 -0.0410 -0.0467  0.0082
 5267TIP3    H115807   0.885   2.368   4.723 -3.1139 -1.5451  0.5545
 5267TIP3    H215808   0.855   2.364   4.871  1.5890 -0.0735  1.7210
 5268TIP3   OH215809   6.124   0.792   2.760 -0.0601 -0.6377  0.3696
 5268TIP3    H115810   6.100   0.703   2.736  1.5264 -0.6576 -1.4841
 5268TIP3    H215811   6.044   0.843   2.749 -0.5612 -1.5500 -0.3458
 5269TIP3   OH215812   1.579   5.731   0.201 -0.3645  0.0897 -0.1652
 5269TIP3    H115813   1.528   5.796   0.153 -1.0525 -0.8305 -0.7017
 5269TIP3    H215814   1.647   5.703   0.140 -0.7767 -0.5259 -0.3531
 5270TIP3   OH215815   1.929   5.081   3.113  0.5513  0.6903  0.1376
 5270TIP3    H115816   2.017   5.115   3.095 -0.5333  2.6957 -1.8779
 5270TIP3    H215817   1.908   5.114   3.201  1.7896  0.1540  0.6608
 5271TIP3   OH215818   5.107   2.071   1.316 -0.6613 -0.0695  0.1636
 5271TIP3    H115819   5.119   2.007   1.246 -0.5662 -1.1124  1.0922
 5271TIP3    H215820   5.057   2.024   1.383  2.7111 -0.5696  2.5963
 5272TIP3   OH215821   5.645   2.601   3.134 -0.7717 -0.0155 -0.1691
 5272TIP3    H115822   5.584   2.565   3.070 -1.3815  2.8977 -1.3834
 5272TIP3    H215823   5.589   2.643   3.200 -0.1194  0.2424  0.2350
 5273TIP3   OH215824   4.090   2.609   1.260  0.4274  0.1152 -0.4336
 5273TIP3    H115825   4.163   2.553   1.236 -0.4228 -0.9984 -0.5035
 5273TIP3    H215826   4.123   2.664   1.331  0.4299 -2.5896  1.7991
 5274TIP3   OH215827   1.666   2.471   4.770  0.1143 -0.4354 -0.0364
 5274TIP3    H115828   1.690   2.383   4.744 -0.2014 -0.9501  1.3118
 5274TIP3    H215829   1.682   2.525   4.693  1.2981 -1.4895 -0.5524
 5275TIP3   OH215830   3.016   3.353   0.035 -0.1042 -0.4355 -0.1131
 5275TIP3    H115831   2.966   3.288   0.085  0.2270 -0.8621 -0.3203
 5275TIP3    H215832   3.019   3.430   0.091 -1.0832 -0.3635 -0.1476
 5276TIP3   OH215833   3.973   5.865   4.252  0.1671  0.1462 -0.3159
 5276TIP3    H115834   4.019   5.836   4.331  2.2094  0.0697 -1.4497
 5276TIP3    H215835   4.011   5.951   4.233 -1.1823  0.7063 -0.5509
 5277TIP3   OH215836   1.295   4.438   1.280  0.0190 -0.2408  0.3147
 5277TIP3    H115837   1.268   4.496   1.209  1.2510 -0.4681 -0.3841
 5277TIP3    H215838   1.292   4.492   1.359 -1.7008 -0.0770  0.1804
 5278TIP3   OH215839   5.748   0.349   3.475  0.0167  0.1392  0.3731
 5278TIP3    H115840   5.803   0.360   3.553  0.2742 -2.9276  0.7319
 5278TIP3    H215841   5.803   0.302   3.413  0.4251  3.9774 -2.5137
 5279TIP3   OH215842   3.278   3.934   4.489  0.0013  0.2109  0.5495
 5279TIP3    H115843   3.218   4.005   4.510 -1.6445 -1.0738  0.4183
 5279TIP3    H215844   3.273   3.925   4.394  1.2306  0.7556  0.4127
 5280TIP3   OH215845   3.986   1.158   2.148 -0.1026 -0.0884  0.0884
 5280TIP3    H115846   4.043   1.155   2.072 -0.9424  0.1477 -0.5678
 5280TIP3    H215847   3.916   1.220   2.124 -0.8935 -0.7225  0.6721
 5281TIP3   OH215848   1.011   5.705   3.167 -0.3412  0.2177  0.5221
 5281TIP3    H115849   1.071   5.764   3.212 -0.7979  1.2722 -0.2008
 5281TIP3    H215850   0.925   5.724   3.205 -0.4314 -0.2965  0.5854
 5282TIP3   OH215851   3.190   5.230   2.388 -0.6830 -0.5380 -0.1677
 5282TIP3    H115852   3.264   5.284   2.418 -1.4237  0.0494  0.6558
 5282TIP3    H215853   3.169   5.263   2.301 -0.9035  0.2788  0.1890
 5283TIP3   OH215854   0.822   3.351   4.757 -0.1702 -0.1137  0.4628
 5283TIP3    H115855   0.746   3.375   4.811 -0.1125 -0.1600  0.5656
 5283TIP3    H215856   0.827   3.255   4.764 -1.5431 -0.3779 -1.4735
 5284TIP3   OH215857   4.260   1.367   4.005  0.1468  0.0024 -0.1120
 5284TIP3    H115858   4.288   1.409   3.924  0.3966 -1.3623 -0.7561
 5284TIP3    H215859   4.338   1.367   4.060  0.2864 -0.0857 -0.3102
 5285TIP3   OH215860   3.110   3.866   2.066  0.6017  0.1405 -0.0790
 5285TIP3    H115861   3.063   3.813   2.001  0.7074 -1.3463  1.0153
 5285TIP3    H215862   3.130   3.805   2.137  2.4674  1.1915  0.3556
 5286TIP3   OH215863   1.381   3.551   4.424 -0.1199 -1.0742 -0.4371
 5286TIP3    H115864   1.384   3.512   4.337 -0.9602  3.4513 -2.7743
 5286TIP3    H215865   1.288   3.557   4.444 -0.0057 -0.3993 -0.1003
 5287TIP3   OH215866   0.127   3.513   3.562 -0.2209  0.4234  0.1473
 5287TIP3    H115867   0.135   3.418   3.549 -1.0050  0.2034  1.1277
 5287TIP3    H215868   0.181   3.531   3.639  0.6127  0.9352 -0.5317
 5288TIP3   OH215869   4.439   1.073   3.710 -0.6694  0.2535  0.2853
 5288TIP3    H115870   4.463   1.022   3.633 -0.3939  0.4786  0.2179
 5288TIP3    H215871   4.436   1.163   3.679 -0.4229  0.3626  0.5654
 5289TIP3   OH215872   0.286   2.967   1.349  0.1600  0.4601  0.1685
 5289TIP3    H115873   0.203   2.999   1.314 -0.6588 -0.1866  1.4185
 5289TIP3    H215874   0.289   3.001   1.438  1.7507  1.3203 -0.1725
 5290TIP3   OH215875   3.489   0.095   4.732  0.6107 -0.0749 -0.4895
 5290TIP3    H115876   3.547   0.119   4.660 -1.3698 -1.3519 -2.6757
 5290TIP3    H215877   3.507   0.159   4.800  2.4242  1.3747 -2.2191
 5291TIP3   OH215878   2.554   0.193   2.056 -0.2818 -0.1398  0.0795
 5291TIP3    H115879   2.534   0.182   2.148 -0.8587  0.8082  0.0721
 5291TIP3    H215880   2.544   0.286   2.039  2.0560  0.0937 -0.4275
 5292TIP3   OH215881   3.240   4.856   3.659 -0.1646  0.2889 -0.3001
 5292TIP3    H115882   3.211   4.913   3.588 -1.8964  1.0979  0.9806
 5292TIP3    H215883   3.238   4.768   3.621  2.4302  0.9728 -2.2766
 5293TIP3   OH215884   2.647   4.893   3.563  0.1515 -0.1775 -0.7525
 5293TIP3    H115885   2.736   4.924   3.575 -0.0670  0.3259 -0.4128
 5293TIP3    H215886   2.596   4.972   3.546 -0.1887 -0.4874 -1.1910
 5294TIP3   OH215887   1.791   4.651   1.004  0.0859 -0.5315  0.2118
 5294TIP3    H115888   1.728   4.674   0.935 -0.2041  2.6015  1.3886
 5294TIP3    H215889   1.739   4.604   1.069 -0.1426 -1.4299 -0.5946
 5295TIP3   OH215890   4.955   0.732   2.644 -0.2206  0.2141  0.8827
 5295TIP3    H115891   4.955   0.776   2.559  0.6447  1.2143  1.3888
 5295TIP3    H215892   4.862   0.713   2.661 -0.3611 -0.4825 -0.5148
 5296TIP3   OH215893   2.066   3.274   2.196  0.4299  0.1708  0.2562
 5296TIP3    H115894   2.143   3.244   2.148  0.9419 -1.7934  2.1607
 5296TIP3    H215895   2.073   3.233   2.282 -2.0737  1.0112  0.9634
 5297TIP3   OH215896   5.526   4.538   0.551  0.0671 -0.3799  0.2724
 5297TIP3    H115897   5.561   4.627   0.541  2.6366 -1.1046  1.8581
 5297TIP3    H215898   5.586   4.483   0.500 -0.3659 -1.4051  0.8398
 5298TIP3   OH215899   0.404   0.399   2.236 -0.7211  0.0712  0.4933
 5298TIP3    H115900   0.423   0.309   2.263  1.2000 -0.3008 -1.7618
 5298TIP3    H215901   0.350   0.390   2.158  0.4205  0.7913 -0.4121
 5299TIP3   OH215902   2.988   2.303   1.101 -0.3716  0.0821  0.0805
 5299TIP3    H115903   2.957   2.336   1.016 -1.6394  0.2871  0.6024
 5299TIP3    H215904   2.985   2.208   1.092 -0.5237  0.1022 -0.0966
 5300TIP3   OH215905   0.589   3.544   3.738  0.1317 -0.4257 -0.0008
 5300TIP3    H115906   0.656   3.611   3.751  0.0591 -0.1425 -0.9741
 5300TIP3    H215907   0.551   3.530   3.825  0.4793  0.4390  0.3023
 5301TIP3   OH215908   5.219   1.872   4.520 -0.6165  0.3147 -0.3719
 5301TIP3    H115909   5.240   1.780   4.530  1.1457  0.5954 -1.0349
 5301TIP3    H215910   5.223   1.888   4.426 -0.4053  1.1615 -0.2320
 5302TIP3   OH215911   5.539   1.394   2.465  0.1941 -0.1503 -0.0857
 5302TIP3    H115912   5.449   1.397   2.499  0.3226 -2.0082  0.4914
 5302TIP3    H215913   5.577   1.477   2.493 -1.5096  0.9688 -0.8920
 5303TIP3   OH215914   5.116   2.389   1.633 -0.0728 -0.0284 -0.5690
 5303TIP3    H115915   5.047   2.420   1.691 -0.7144  0.4914 -1.5884
 5303TIP3    H215916   5.077   2.391   1.545  0.7996 -1.0229 -0.9962
 5304TIP3   OH215917   2.058   0.608   2.571  0.3217  0.3238 -0.0621
 5304TIP3    H115918   2.036   0.515   2.582 -3.6973  1.0287 -0.5532
 5304TIP3    H215919   2.089   0.635   2.658  0.9955 -1.2876  0.2485
 5305TIP3   OH215920   5.490   0.707   2.188  0.5909  0.0077 -0.8436
 5305TIP3    H115921   5.525   0.775   2.246 -1.8087 -1.6330  2.8879
 5305TIP3    H215922   5.443   0.756   2.120 -1.5312  2.2950  1.9841
 5306TIP3   OH215923   3.825   2.011   0.282 -0.2761  0.0898 -0.0019
 5306TIP3    H115924   3.786   1.975   0.202  1.6555 -0.9123 -0.5557
 5306TIP3    H215925   3.752   2.052   0.328 -2.1797 -2.4953 -0.5092
 5307TIP3   OH215926   1.589   3.728   1.601 -0.0934  0.3920  0.1397
 5307TIP3    H115927   1.683   3.723   1.586  0.2504  1.5279  1.6507
 5307TIP3    H215928   1.559   3.795   1.539  0.2660  0.7221  0.3161
 5308TIP3   OH215929   0.773   2.046   3.616 -0.0090 -0.5100  0.4273
 5308TIP3    H115930   0.729   2.126   3.645  2.0628  0.0106  2.3814
 5308TIP3    H215931   0.713   2.008   3.551 -1.5198  2.0665  0.1837
 5309TIP3   OH215932   5.282   1.780   4.129 -0.6671  0.6327 -0.2856
 5309TIP3    H115933   5.320   1.865   4.149 -0.7405  0.8529 -1.0420
 5309TIP3    H215934   5.344   1.717   4.164 -1.5957  0.9610  2.1506
 5310TIP3   OH215935   6.313   1.210   4.317 -0.2737  0.0722  0.5461
 5310TIP3    H115936   6.320   1.194   4.223  1.2320  0.1753  0.6204
 5310TIP3    H215937   6.220   1.197   4.336 -0.3059 -1.8853 -0.6004
 5311TIP3   OH215938   3.880   0.881   5.144 -0.3387 -0.3654  0.6757
 5311TIP3    H115939   3.882   0.823   5.220  0.0902  0.7110  1.5121
 5311TIP3    H215940   3.962   0.862   5.098 -0.9728 -1.6024  0.0037
 5312TIP3   OH215941   3.645   1.690   2.212 -0.1033 -0.2491 -0.2105
 5312TIP3    H115942   3.661   1.628   2.141 -0.7675 -0.8833  0.1811
 5312TIP3    H215943   3.658   1.776   2.172  1.1458 -0.6259 -0.6856
 5313TIP3   OH215944   0.544   3.657   1.437  0.6717 -0.0945  0.0189
 5313TIP3    H115945   0.556   3.752   1.432  1.8746 -0.2754 -0.9312
 5313TIP3    H215946   0.633   3.623   1.449  0.3575 -1.1547 -0.5711
 5314TIP3   OH215947   3.828   5.019   3.898 -0.1251  0.0246 -0.0447
 5314TIP3    H115948   3.809   5.111   3.917  0.6658  0.0711  0.6263
 5314TIP3    H215949   3.805   4.973   3.979 -3.2240 -0.8348 -1.2707
 5315TIP3   OH215950   5.898   4.734   3.987 -0.4278  0.1765 -0.4350
 5315TIP3    H115951   5.934   4.685   4.061 -2.6862  1.2353  1.4910
 5315TIP3    H215952   5.874   4.666   3.924  0.4792 -0.8591  0.2920
 5316TIP3   OH215953   3.053   0.628   0.978 -0.2694  0.0866 -0.3832
 5316TIP3    H115954   3.003   0.586   0.909  0.8315 -0.9255 -0.6071
 5316TIP3    H215955   3.075   0.558   1.039 -3.1747  1.3054  2.3326
 5317TIP3   OH215956   3.685   5.017   1.732  0.0844  0.3980 -0.3307
 5317TIP3    H115957   3.667   5.110   1.742 -1.7241  0.1155 -0.5418
 5317TIP3    H215958   3.727   4.991   1.814 -0.1386  1.2313  0.0495
 5318TIP3   OH215959   0.821   2.171   0.189 -0.6533 -0.0048  0.3084
 5318TIP3    H115960   0.785   2.085   0.168 -0.7688 -0.1653  1.1241
 5318TIP3    H215961   0.835   2.168   0.284  1.6465  0.0114  0.0049
 5319TIP3   OH215962   0.800   4.828   1.875  0.0346  0.2549  0.3883
 5319TIP3    H115963   0.714   4.802   1.908 -0.3507  1.4458  0.3815
 5319TIP3    H215964   0.789   4.828   1.779  1.1991 -3.3726  0.1096
 5320TIP3   OH215965   0.175   3.441   2.557  0.1369  0.3646 -0.3970
 5320TIP3    H115966   0.244   3.379   2.581  0.2285  0.8741  0.7209
 5320TIP3    H215967   0.216   3.527   2.564 -0.8565  0.7427  1.2726
 5321TIP3   OH215968   5.408   2.955   4.960  0.4094  0.8130  0.5235
 5321TIP3    H115969   5.490   2.933   5.004  0.3364  0.8753  0.6894
 5321TIP3    H215970   5.399   2.888   4.892  0.5703  0.7750  0.5391
 5322TIP3   OH215971   4.574   4.491   1.539 -0.0981 -0.6823  0.3148
 5322TIP3    H115972   4.515   4.506   1.465  0.8846 -0.5690 -0.4743
 5322TIP3    H215973   4.603   4.578   1.565  0.4936 -0.7819  0.0248
 5323TIP3   OH215974   1.421   1.347   3.036  0.0561 -0.0563 -0.3184
 5323TIP3    H115975   1.460   1.373   2.952  2.3301 -0.9655  0.3728
 5323TIP3    H215976   1.386   1.260   3.020  0.8801 -0.4123 -0.2512
 5324TIP3   OH215977   0.735   0.458   5.012  0.3408  0.5929 -0.0712
 5324TIP3    H115978   0.804   0.411   5.059  0.6874  1.7547  0.6258
 5324TIP3    H215979   0.756   0.445   4.920  2.4190  2.2050  0.1128
 5325TIP3   OH215980   3.283   3.285   2.536  0.1957 -0.5025 -0.7013
 5325TIP3    H115981   3.224   3.299   2.610 -0.4068  0.6688 -1.3797
 5325TIP3    H215982   3.365   3.326   2.564 -0.2087  0.4632 -0.9035
 5326TIP3   OH215983   1.755   1.107   3.938  0.5038  0.1249  0.1879
 5326TIP3    H115984   1.731   1.196   3.913 -0.9790 -0.4198 -0.4502
 5326TIP3    H215985   1.843   1.095   3.904  1.6037  2.0559  2.1664
 5327TIP3   OH215986   1.330   5.138   0.682  0.2891  0.5895 -0.5177
 5327TIP3    H115987   1.314   5.231   0.700 -0.0834  1.1402 -3.1902
 5327TIP3    H215988   1.258   5.113   0.624  0.1811 -1.5063  0.4256
 5328TIP3   OH215989   3.349   3.922   4.179 -0.4627 -0.5020 -0.0892
 5328TIP3    H115990   3.416   3.943   4.114 -0.2345 -1.1789 -0.0804
 5328TIP3    H215991   3.271   3.900   4.128 -1.2089  1.8693 -0.0893
 5329TIP3   OH215992   0.097   4.035   2.655  0.5706  0.2852 -0.0087
 5329TIP3    H115993   0.009   4.015   2.687  0.9356 -4.1611 -1.0638
 5329TIP3    H215994   0.143   4.073   2.730 -1.5469  0.3722  1.3030
 5330TIP3   OH215995   2.826   5.174   0.118 -0.4452  0.3948 -0.1186
 5330TIP3    H115996   2.878   5.182   0.038  1.5164  2.3678  1.2507
 5330TIP3    H215997   2.736   5.165   0.087  0.5101 -2.6636 -2.5919
 5331TIP3   OH215998   4.326   2.103   4.951 -0.2450  0.0940  0.3290
 5331TIP3    H115999   4.367   2.017   4.960 -2.0285 -0.6940  1.5016
 5331TIP3    H216000   4.241   2.094   4.993 -1.1212  2.0146 -0.8644
 5332TIP3   OH216001   2.571   1.956   4.929  0.1071 -0.5359  0.4999
 5332TIP3    H116002   2.531   1.869   4.937 -0.5242 -0.4491 -1.2338
 5332TIP3    H216003   2.498   2.015   4.915  0.5244  0.3352  1.8335
 5333TIP3   OH216004   0.338   5.277   4.300  0.3005  0.4707 -0.2056
 5333TIP3    H116005   0.431   5.265   4.318  0.0911 -1.7827 -0.3781
 5333TIP3    H216006   0.297   5.283   4.386  0.6047  1.9081 -0.1274
 5334TIP3   OH216007   0.417   1.345   5.147 -0.0607  0.1754  0.2079
 5334TIP3    H116008   0.390   1.314   5.233 -0.0957  0.6080  0.3562
 5334TIP3    H216009   0.350   1.409   5.123 -0.5259 -0.5757 -0.5252
 5335TIP3   OH216010   1.553   3.974   1.447 -0.4688  0.1628 -0.2392
 5335TIP3    H116011   1.584   4.032   1.378 -0.8096 -0.9968 -1.4175
 5335TIP3    H216012   1.461   3.998   1.459 -0.9011 -0.7334 -1.4473
 5336TIP3   OH216013   4.216   0.960   4.487 -0.0256  0.1078  0.0369
 5336TIP3    H116014   4.252   0.953   4.398 -0.6414 -3.3547 -0.0689
 5336TIP3    H216015   4.125   0.988   4.473  0.2339  0.8224 -0.2868
 5337TIP3   OH216016   6.118   3.286   1.755 -0.6459 -0.2073 -0.1389
 5337TIP3    H116017   6.115   3.265   1.848  0.4917 -0.5495 -0.1682
 5337TIP3    H216018   6.041   3.242   1.717 -0.8336 -0.4754  0.5504
 5338TIP3   OH216019   4.583   1.325   2.831 -0.5500  0.2242  0.0829
 5338TIP3    H116020   4.605   1.284   2.747 -1.3583  0.2743 -0.1649
 5338TIP3    H216021   4.527   1.399   2.807 -0.0249  0.8044  0.6079
 5339TIP3   OH216022   2.235   0.115   0.965 -0.0947  0.2973  0.0559
 5339TIP3    H116023   2.254   0.127   0.872 -2.1282  0.8439 -0.3351
 5339TIP3    H216024   2.158   0.058   0.967  0.4349 -0.4161  1.4435
 5340TIP3   OH216025   2.350   5.556   3.006 -0.6390 -0.0549 -0.2063
 5340TIP3    H116026   2.356   5.576   2.913 -0.9851 -0.0114 -0.2176
 5340TIP3    H216027   2.389   5.468   3.013 -0.6982 -0.0984 -0.4043
 5341TIP3   OH216028   4.103   0.963   3.751 -0.0836 -0.0687 -0.1772
 5341TIP3    H116029   4.115   0.887   3.808  1.1571  0.5301  0.3908
 5341TIP3    H216030   4.173   0.954   3.686 -1.1584 -0.4611 -1.3201
 5342TIP3   OH216031   1.063   4.081   4.352 -0.3532  0.3735 -0.5482
 5342TIP3    H116032   1.107   4.029   4.419  0.8105  2.3209  0.2817
 5342TIP3    H216033   1.133   4.132   4.311 -1.5271  1.9404 -0.7003
 5343TIP3   OH216034   6.319   4.041   3.679  0.2870  0.2129 -0.2465
 5343TIP3    H116035   6.280   4.021   3.764 -0.3097 -1.6095 -0.9172
 5343TIP3    H216036   6.245   4.067   3.624  0.6315  1.0678 -0.3351
 5344TIP3   OH216037   3.675   0.576   3.129 -0.5528  0.1707 -0.1979
 5344TIP3    H116038   3.701   0.575   3.221 -3.7104  0.6268  0.8223
 5344TIP3    H216039   3.629   0.493   3.116  0.1505 -0.0466 -1.5113
 5345TIP3   OH216040   5.506   4.588   2.578 -0.0431 -0.2354 -0.5958
 5345TIP3    H116041   5.412   4.573   2.564  0.0563  0.5897 -2.3250
 5345TIP3    H216042   5.549   4.527   2.518  0.5388 -0.3232 -0.0974
 5346TIP3   OH216043   2.829   1.901   5.045 -0.1024  0.6323 -0.3551
 5346TIP3    H116044   2.857   1.988   5.074 -1.2041  0.5421  1.1229
 5346TIP3    H216045   2.738   1.913   5.019 -0.3468 -0.1246  0.1242
 5347TIP3   OH216046   2.689   4.863   3.959 -0.0251 -0.1386 -0.4273
 5347TIP3    H116047   2.774   4.898   3.931 -1.1153  1.4808 -1.9627
 5347TIP3    H216048   2.625   4.928   3.928 -1.9717 -2.1311 -0.8705
 5348TIP3   OH216049   5.296   4.899   3.853 -0.1614 -0.0985  0.2576
 5348TIP3    H116050   5.354   4.835   3.896  0.9172  0.0066 -0.9675
 5348TIP3    H216051   5.323   4.983   3.889 -1.9312 -0.3161  2.2599
 5349TIP3   OH216052   3.463   1.643   4.764 -0.0877 -0.0965  0.2269
 5349TIP3    H116053   3.496   1.652   4.853 -0.3686  0.5832  0.2657
 5349TIP3    H216054   3.401   1.715   4.754 -0.4897 -0.5108 -0.3233
 5350TIP3   OH216055   4.536   3.331   3.719 -0.4775  0.8081  0.0035
 5350TIP3    H116056   4.485   3.393   3.772 -3.2366 -1.2401 -0.0508
 5350TIP3    H216057   4.536   3.250   3.770  0.3488 -0.0384 -1.2880
 5351TIP3   OH216058   4.790   0.622   3.155  0.2951  0.1580  0.3957
 5351TIP3    H116059   4.697   0.619   3.132  0.4881 -0.6397 -0.3617
 5351TIP3    H216060   4.826   0.691   3.100  0.1861  0.3390  0.5504
 5352TIP3   OH216061   0.573   5.668   4.128  0.1402 -0.4943  0.5511
 5352TIP3    H116062   0.486   5.639   4.154  0.4077 -1.3398  0.5433
 5352TIP3    H216063   0.617   5.588   4.098  0.7226  0.0207 -0.0002
 5353TIP3   OH216064   5.827   2.550   1.032  0.4158 -0.5713 -0.9088
 5353TIP3    H116065   5.903   2.605   1.013 -0.8847  0.5883 -3.2754
 5353TIP3    H216066   5.786   2.592   1.108  0.8656  0.2226 -1.0902
 5354TIP3   OH216067   0.984   5.584   3.501 -0.0704  0.4694 -0.2354
 5354TIP3    H116068   0.985   5.679   3.516 -1.3550  0.3690  0.6155
 5354TIP3    H216069   0.892   5.562   3.489  0.1661 -0.7409  0.0202
 5355TIP3   OH216070   5.758   4.185   1.350 -0.5480  0.2152  0.6712
 5355TIP3    H116071   5.843   4.203   1.390 -0.5733  1.2584  0.2788
 5355TIP3    H216072   5.775   4.114   1.289 -0.1652 -0.2365  1.2842
 5356TIP3   OH216073   3.773   0.452   4.039  0.0566 -0.3400  0.4254
 5356TIP3    H116074   3.780   0.379   3.979  0.9338 -0.0201  0.1275
 5356TIP3    H216075   3.697   0.502   4.008  0.3737 -0.2925 -0.2928
 5357TIP3   OH216076   0.034   1.015   0.879  0.3907 -0.0251 -0.5558
 5357TIP3    H116077   0.113   0.966   0.860  2.6654  2.6610  1.2089
 5357TIP3    H216078   0.023   1.008   0.974 -3.6462 -3.1479 -0.9808
 5358TIP3   OH216079   2.786   4.486   4.580  0.8317 -0.1964 -0.1636
 5358TIP3    H116080   2.804   4.527   4.665 -0.7956 -0.5859  0.3966
 5358TIP3    H216081   2.745   4.403   4.602 -1.2562  0.4693 -1.3210
 5359TIP3   OH216082   6.227   3.689   2.895  0.2684 -0.2831 -0.4511
 5359TIP3    H116083   6.201   3.777   2.869 -0.2483  0.0317  1.0238
 5359TIP3    H216084   6.150   3.635   2.879  0.8679 -0.6871 -2.2021
 5360TIP3   OH216085   1.934   4.366   3.722 -0.1048 -0.1065  0.5848
 5360TIP3    H116086   2.025   4.337   3.729  0.1075  0.2597 -0.3952
 5360TIP3    H216087   1.937   4.458   3.749  0.6346  1.1733 -3.2601
 5361TIP3   OH216088   4.738   3.364   1.323 -0.1217 -0.6510  0.8674
 5361TIP3    H116089   4.681   3.294   1.291 -0.0719 -1.0304  1.5870
 5361TIP3    H216090   4.685   3.443   1.316 -1.6164 -1.2933  3.6083
 5362TIP3   OH216091   0.561   3.147   0.068  0.1708 -0.2094  0.1634
 5362TIP3    H116092   0.582   3.220   0.127  2.7521  0.5590 -1.5506
 5362TIP3    H216093   0.466   3.148   0.061 -0.0045  1.5146  1.9945
 5363TIP3   OH216094   1.985   0.119   4.239  0.4594  0.4259 -0.4542
 5363TIP3    H116095   1.890   0.127   4.245  0.1803 -1.9306 -0.5615
 5363TIP3    H216096   2.019   0.198   4.280 -1.5405  0.8910  0.4262
 5364TIP3   OH216097   2.160   0.764   3.698 -0.2675  0.0786  0.0820
 5364TIP3    H116098   2.075   0.746   3.738 -0.0504 -1.9556 -0.2769
 5364TIP3    H216099   2.140   0.817   3.621 -1.1239  0.2166  0.3860
 5365TIP3   OH216100   2.165   3.124   2.478  0.1727 -0.5545 -0.1135
 5365TIP3    H116101   2.215   3.116   2.559 -0.5630 -2.8812  0.1882
 5365TIP3    H216102   2.143   3.034   2.454 -2.0472  0.2388 -1.3642
 5366TIP3   OH216103   3.312   0.323   0.538  0.0101 -0.2762 -0.0965
 5366TIP3    H116104   3.338   0.391   0.601 -0.2919  0.7300 -1.0141
 5366TIP3    H216105   3.302   0.371   0.455 -0.5026 -1.4052 -0.7028
 5367TIP3   OH216106   0.756   3.123   2.970  0.5235  0.2458 -0.4865
 5367TIP3    H116107   0.721   3.180   3.039 -1.8993  0.1121 -1.5036
 5367TIP3    H216108   0.683   3.114   2.908  1.8663 -1.5097 -1.8875
 5368TIP3   OH216109   3.877   3.992   0.505 -0.3309  0.9562 -0.4627
 5368TIP3    H116110   3.798   3.949   0.540  0.2052 -0.0161 -0.3993
 5368TIP3    H216111   3.905   4.051   0.575 -0.4175  0.5211 -0.0467
 5369TIP3   OH216112   6.155   5.888   2.639 -0.0287 -0.3253  0.4488
 5369TIP3    H116113   6.229   5.854   2.690 -0.8750 -1.1770  1.1370
 5369TIP3    H216114   6.111   5.949   2.697 -0.2335 -0.2912  0.2606
 5370TIP3   OH216115   2.464   0.682   4.640 -0.4477 -0.0367  0.4201
 5370TIP3    H116116   2.496   0.770   4.658 -1.2465  0.5678 -0.9497
 5370TIP3    H216117   2.540   0.635   4.607 -0.3535  0.6027 -0.3062
 5371TIP3   OH216118   6.240   2.033   0.131  0.2918 -0.0335 -0.4056
 5371TIP3    H116119   6.286   1.955   0.100  1.1678 -0.6659  2.2124
 5371TIP3    H216120   6.303   2.104   0.119  0.5224 -0.2272 -0.3632
 5372TIP3   OH216121   4.991   5.941   1.147  0.2408  0.4774 -0.0047
 5372TIP3    H116122   5.085   5.943   1.128  0.2960 -2.0848 -0.3441
 5372TIP3    H216123   4.951   5.987   1.074  1.1553  0.4139 -0.5661
 5373TIP3   OH216124   6.159   2.431   0.610 -0.4146  0.3163  0.1506
 5373TIP3    H116125   6.208   2.397   0.535 -0.8312 -0.3113  0.1581
 5373TIP3    H216126   6.159   2.360   0.674 -0.0839  0.8394  0.7410
 5374TIP3   OH216127   3.883   3.592   0.847  0.5131  0.6761  0.1540
 5374TIP3    H116128   3.970   3.572   0.882  0.8735  0.2042 -0.9791
 5374TIP3    H216129   3.878   3.687   0.849  1.1106  0.7125  0.1097
 5375TIP3   OH216130   4.731   3.220   0.389  0.1171  0.6574  0.8076
 5375TIP3    H116131   4.684   3.213   0.306  1.0474 -1.6136  0.3958
 5375TIP3    H216132   4.807   3.275   0.369  1.3390 -1.3637 -0.4062
 5376TIP3   OH216133   2.529   1.015   4.963  0.0783 -0.1772 -0.1001
 5376TIP3    H116134   2.438   1.016   4.934  0.3930 -2.0031 -1.3013
 5376TIP3    H216135   2.546   1.104   4.993 -1.1624  1.0988 -2.8583
 5377TIP3   OH216136   5.445   0.744   4.178  0.0472 -0.2089 -0.0281
 5377TIP3    H116137   5.433   0.751   4.083 -0.1963 -0.1193  0.0083
 5377TIP3    H216138   5.530   0.701   4.188 -0.1045 -0.5786 -0.2911
 5378TIP3   OH216139   4.277   2.448   4.587 -0.1721 -0.2881  0.0129
 5378TIP3    H116140   4.330   2.379   4.627 -1.0758 -0.7887  0.3688
 5378TIP3    H216141   4.270   2.515   4.654  0.8033  0.2214 -0.3733
 5379TIP3   OH216142   3.107   4.176   3.070  0.4491  0.0546  0.0095
 5379TIP3    H116143   3.063   4.134   3.144 -0.0481 -0.1545 -0.3999
 5379TIP3    H216144   3.039   4.184   3.003  0.2404  2.4075  0.4153
 5380TIP3   OH216145   4.945   1.525   2.495 -0.2611  0.7228  0.2625
 5380TIP3    H116146   4.953   1.431   2.477 -0.3512  0.6036  0.8156
 5380TIP3    H216147   4.854   1.537   2.521 -0.2260  0.9467  0.2866
 5381TIP3   OH216148   5.436   5.124   1.861  0.0548  0.0718  0.0565
 5381TIP3    H116149   5.394   5.162   1.783 -0.6491 -1.7761 -0.5210
 5381TIP3    H216150   5.365   5.115   1.925  0.1067 -0.6360  0.0269
 5382TIP3   OH216151   1.089   0.981   2.849  0.3342  0.4097 -0.3786
 5382TIP3    H116152   1.105   1.070   2.816  1.6974  0.1578 -0.4242
 5382TIP3    H216153   1.035   0.995   2.928  0.4426  1.2678 -0.4412
 5383TIP3   OH216154   5.620   3.644   1.015  0.3323 -0.1494  0.3280
 5383TIP3    H116155   5.569   3.571   0.979  0.2761 -0.9995  1.9869
 5383TIP3    H216156   5.564   3.679   1.085  0.6191  1.1087 -0.0482
 5384TIP3   OH216157   2.915   0.601   1.392  0.5831  0.0587 -0.3777
 5384TIP3    H116158   2.990   0.622   1.337  0.8096  0.2625  0.0045
 5384TIP3    H216159   2.879   0.687   1.416  1.0947  0.0053  0.6222
 5385TIP3   OH216160   3.863   3.882   1.369  0.5062  0.1446  0.4422
 5385TIP3    H116161   3.778   3.846   1.343 -0.3866  0.8615  2.2385
 5385TIP3    H216162   3.868   3.967   1.327 -0.0503  0.4543  0.9920
 5386TIP3   OH216163   0.342   0.665   3.603  0.5492 -0.6238 -0.1779
 5386TIP3    H116164   0.254   0.700   3.616  0.1080 -0.9257 -2.0263
 5386TIP3    H216165   0.350   0.594   3.666 -0.7761 -0.9804 -0.3753
 5387TIP3   OH216166   5.043   3.253   0.153  0.1461 -0.0096 -0.1261
 5387TIP3    H116167   4.962   3.296   0.180 -0.5199 -1.2472 -0.1081
 5387TIP3    H216168   5.112   3.310   0.186 -0.6320 -0.7040  2.9714
 5388TIP3   OH216169   0.267   5.370   1.877  0.4482  0.2054  0.4293
 5388TIP3    H116170   0.268   5.437   1.809  0.1388  1.1679  1.3484
 5388TIP3    H216171   0.277   5.418   1.959 -1.4094 -0.6739  1.2575
 5389TIP3   OH216172   0.929   2.704   4.655  0.1630  0.0569 -0.6864
 5389TIP3    H116173   0.906   2.703   4.748 -0.0684  1.6181 -0.7081
 5389TIP3    H216174   0.999   2.769   4.648  0.3874 -0.2675 -1.5596
 5390TIP3   OH216175   0.818   5.156   4.182 -0.2016 -0.3070  0.5224
 5390TIP3    H116176   0.882   5.101   4.226  0.9176  1.3393  1.0361
 5390TIP3    H216177   0.756   5.094   4.142  1.1458 -1.9129  0.8366
 5391TIP3   OH216178   6.150   1.609   1.090  0.6669  0.2707  0.2263
 5391TIP3    H116179   6.100   1.555   1.028  1.0407 -1.0183  0.9990
 5391TIP3    H216180   6.184   1.681   1.037 -2.6073  1.6859 -0.1872
 5392TIP3   OH216181   1.603   5.308   2.407 -0.0675  0.0880  0.4576
 5392TIP3    H116182   1.644   5.270   2.485  0.9459  0.0220 -0.0929
 5392TIP3    H216183   1.627   5.249   2.336  1.3385  1.5679 -0.3773
 5393TIP3   OH216184   0.921   2.399   0.597 -0.1900  0.2406 -0.1479
 5393TIP3    H116185   0.827   2.403   0.579 -0.6047 -0.1432  1.7617
 5393TIP3    H216186   0.954   2.487   0.575 -1.2138  0.7368  0.2484
 5394TIP3   OH216187   5.793   2.908   2.596 -0.2887 -0.0623  0.2676
 5394TIP3    H116188   5.827   2.898   2.685 -0.1973  1.7255  0.4535
 5394TIP3    H216189   5.780   3.002   2.585  2.4156  0.1633 -2.5881
 5395TIP3   OH216190   3.510   2.591   5.150 -0.1987  0.0320 -0.5652
 5395TIP3    H116191   3.561   2.522   5.107  1.0057 -0.0108  0.8715
 5395TIP3    H216192   3.533   2.671   5.103  1.9558  0.1720  0.5834
 5396TIP3   OH216193   2.963   2.106   3.465 -0.5240 -0.2699 -0.3589
 5396TIP3    H116194   2.889   2.051   3.490  0.2200 -1.5193 -0.8144
 5396TIP3    H216195   2.939   2.139   3.378 -1.7714  1.6424  0.6486
 5397TIP3   OH216196   5.486   2.236   2.979 -0.1912 -0.0656 -0.0164
 5397TIP3    H116197   5.398   2.231   3.017 -0.4189  1.2412 -0.3189
 5397TIP3    H216198   5.486   2.319   2.930  1.0993 -0.2171 -0.3001
 5398TIP3   OH216199   0.424   3.801   4.816  0.8754  0.0925 -0.6703
 5398TIP3    H116200   0.369   3.725   4.797 -0.2657  0.5934  0.4712
 5398TIP3    H216201   0.493   3.798   4.749  0.7952 -1.8578 -0.7379
 5399TIP3   OH216202   4.652   0.462   2.542  0.0783  0.7092  0.0030
 5399TIP3    H116203   4.650   0.375   2.583  0.4919 -0.0278 -1.4869
 5399TIP3    H216204   4.679   0.520   2.613 -1.7465 -0.1086  1.4443
 5400TIP3   OH216205   2.513   1.897   4.244 -0.1124 -0.3070  0.1509
 5400TIP3    H116206   2.600   1.902   4.285 -0.3223  1.8472  0.4751
 5400TIP3    H216207   2.532   1.901   4.150  0.1335  1.7734  0.2443
 5401TIP3   OH216208   4.912   3.941   3.405  0.0598  0.0776 -0.7318
 5401TIP3    H116209   4.848   3.899   3.464  0.0855  0.5090 -0.3899
 5401TIP3    H216210   4.898   3.899   3.321  0.8775 -1.4594 -0.1382
 5402TIP3   OH216211   4.785   1.191   4.270 -0.2808  0.7130 -0.2296
 5402TIP3    H116212   4.818   1.150   4.190  1.4770  1.7368 -0.0652
 5402TIP3    H216213   4.756   1.278   4.243 -1.2881  0.4645 -0.0307
 5403TIP3   OH216214   2.363   2.877   5.033  0.5378 -0.0308  0.3335
 5403TIP3    H116215   2.337   2.915   5.117 -0.0552 -0.0515  0.1690
 5403TIP3    H216216   2.328   2.938   4.968 -1.4790 -1.4042  0.0208
 5404TIP3   OH216217   5.248   1.667   1.707  0.3517  0.6654  0.1733
 5404TIP3    H116218   5.227   1.645   1.617  2.6753  0.5343 -0.4163
 5404TIP3    H216219   5.267   1.761   1.704  1.4970  0.4527  0.2588
 5405TIP3   OH216220   5.574   3.012   0.952  0.0699  0.1546  0.0961
 5405TIP3    H116221   5.538   2.990   0.866 -1.6525 -0.6248  0.9697
 5405TIP3    H216222   5.576   2.929   0.999 -0.0500  0.7387  1.1666
 5406TIP3   OH216223   1.305   5.536   1.787 -0.7596  0.6778 -0.0796
 5406TIP3    H116224   1.278   5.597   1.856 -0.6594  1.4009 -0.6623
 5406TIP3    H216225   1.223   5.506   1.747 -0.7863  1.1445 -0.3851
 5407TIP3   OH216226   1.148   0.410   5.075 -0.7365 -0.2897 -0.2777
 5407TIP3    H116227   1.091   0.378   5.144  0.3375 -2.2571 -0.2419
 5407TIP3    H216228   1.176   0.332   5.028  3.2344  0.2619  0.7571
 5408TIP3   OH216229   4.019   5.627   0.276 -0.4367 -0.8171  0.0800
 5408TIP3    H116230   3.932   5.650   0.310 -0.9983 -1.1773 -1.0545
 5408TIP3    H216231   4.022   5.667   0.189  1.3837  1.0113  0.9111
 5409TIP3   OH216232   5.823   4.181   2.196 -0.2784 -0.6732 -0.0107
 5409TIP3    H116233   5.860   4.135   2.271  0.7146 -1.1589 -0.7795
 5409TIP3    H216234   5.748   4.128   2.170 -0.8888 -0.2718  0.8854
 5410TIP3   OH216235   0.742   2.802   4.439  0.1062 -0.5342  0.3388
 5410TIP3    H116236   0.786   2.854   4.372 -2.0629  0.3759 -0.4807
 5410TIP3    H216237   0.813   2.766   4.493  1.7776  1.7702 -0.1688
 5411TIP3   OH216238   2.634   5.648   1.251  0.3232  0.0124  0.2611
 5411TIP3    H116239   2.596   5.569   1.288  0.6874  0.9665  2.8615
 5411TIP3    H216240   2.573   5.673   1.181 -0.5849 -1.7140  0.3715
 5412TIP3   OH216241   1.148   2.085   4.640 -0.2389 -0.6006 -0.0313
 5412TIP3    H116242   1.112   2.007   4.681 -1.2579  0.2002  0.6544
 5412TIP3    H216243   1.073   2.126   4.596  0.6579 -0.9971 -2.0310
 5413TIP3   OH216244   3.006   2.933   0.489  0.3980  0.1857 -0.0837
 5413TIP3    H116245   3.049   2.854   0.521 -0.4738 -0.4509 -0.4392
 5413TIP3    H216246   3.065   3.004   0.513  2.7757 -0.8088 -2.4699
 5414TIP3   OH216247   6.157   2.301   0.194  0.3749  0.5772  0.1474
 5414TIP3    H116248   6.066   2.327   0.208  0.9090  3.0454 -0.5683
 5414TIP3    H216249   6.153   2.206   0.186 -1.9236  0.4548  1.6618
 5415TIP3   OH216250   1.412   1.485   1.429  0.7009 -0.2037 -0.2365
 5415TIP3    H116251   1.469   1.515   1.358  0.1534 -0.2971 -0.7245
 5415TIP3    H216252   1.347   1.555   1.439 -0.1556 -0.8725 -0.8996
 5416TIP3   OH216253   3.673   1.359   1.156 -0.4499  0.2079  0.3475
 5416TIP3    H116254   3.718   1.354   1.241  1.8153 -1.3221 -0.8489
 5416TIP3    H216255   3.615   1.283   1.155 -0.3556  0.1340  0.4659
 5417TIP3   OH216256   4.633   3.097   1.239  0.6046  0.3512  0.5440
 5417TIP3    H116257   4.695   3.028   1.265 -1.9149 -2.8853 -1.2684
 5417TIP3    H216258   4.571   3.103   1.311  0.0155 -0.3819  0.1125
 5418TIP3   OH216259   4.715   4.501   2.131 -0.4403  0.1112  0.9489
 5418TIP3    H116260   4.731   4.408   2.143  0.3212 -0.2567 -2.1691
 5418TIP3    H216261   4.770   4.544   2.197  1.0561 -1.5849  0.8596
 5419TIP3   OH216262   0.939   3.476   0.791 -0.1703  0.0416 -0.1242
 5419TIP3    H116263   0.952   3.563   0.754 -0.9191  0.9711  1.6274
 5419TIP3    H216264   0.848   3.478   0.823  0.5541 -0.4613  2.1239
 5420TIP3   OH216265   2.494   5.054   0.154  0.1092  0.4851 -0.4155
 5420TIP3    H116266   2.427   5.052   0.086 -1.5000  2.3823  1.0089
 5420TIP3    H216267   2.516   5.147   0.164  3.2210 -0.0658 -1.0096
 5421TIP3   OH216268   1.537   1.306   1.658  0.5206  0.1771  0.3293
 5421TIP3    H116269   1.589   1.370   1.708  2.9186  0.4527 -2.2802
 5421TIP3    H216270   1.461   1.355   1.628  1.1951  1.1862  0.2208
 5422TIP3   OH216271   6.307   0.848   3.909  0.4084  0.2808  0.3997
 5422TIP3    H116272   6.395   0.870   3.877  0.2128 -0.7037 -0.9017
 5422TIP3    H216273   6.322   0.783   3.978  0.7264  0.3853  0.4293
 5423TIP3   OH216274   0.957   2.756   3.780 -0.0402  0.5051 -0.8734
 5423TIP3    H116275   0.874   2.802   3.795 -0.9252 -0.1766 -3.2164
 5423TIP3    H216276   0.932   2.674   3.739  1.7272 -0.5904  0.1095
 5424TIP3   OH216277   2.872   3.869   1.452  0.5429 -0.3430 -0.4731
 5424TIP3    H116278   2.942   3.898   1.393  0.3291  0.4627 -0.3472
 5424TIP3    H216279   2.823   3.805   1.402  0.8226 -0.2303 -0.8951
 5425TIP3   OH216280   6.077   4.873   1.031 -0.7093 -0.4720 -0.3841
 5425TIP3    H116281   6.103   4.786   1.002  0.1877 -0.7898  1.2469
 5425TIP3    H216282   6.076   4.926   0.951  0.7348 -1.4999 -1.1253
 5426TIP3   OH216283   6.171   2.676   0.748 -0.2339 -0.0050  0.1353
 5426TIP3    H116284   6.178   2.593   0.702  1.5540 -0.9986  2.0368
 5426TIP3    H216285   6.261   2.708   0.756 -0.7281  1.2986  0.8501
 5427TIP3   OH216286   5.113   5.711   2.805 -0.0648  0.5781 -0.0840
 5427TIP3    H116287   5.118   5.728   2.711  1.7604  1.8880  0.2040
 5427TIP3    H216288   5.020   5.721   2.825 -0.6542 -0.6555 -1.8665
 5428TIP3   OH216289   3.323   3.901   2.327 -0.1150 -0.0743  0.1348
 5428TIP3    H116290   3.267   3.901   2.404  1.1492  1.3099  1.1214
 5428TIP3    H216291   3.309   3.816   2.286 -2.3343 -0.0633  0.7393
 5429TIP3   OH216292   5.875   1.147   4.129 -0.1717  0.9721  0.5659
 5429TIP3    H116293   5.918   1.225   4.164  1.5224  0.1055  0.4734
 5429TIP3    H216294   5.946   1.088   4.106 -1.4031 -0.3122 -0.0844
 5430TIP3   OH216295   2.976   3.313   0.555 -0.5858  0.1797  0.2504
 5430TIP3    H116296   3.064   3.348   0.565 -0.1813 -1.3295  2.9806
 5430TIP3    H216297   2.938   3.318   0.642 -2.0282 -2.1396 -0.1563
 5431TIP3   OH216298   3.545   1.909   3.508  0.5693  0.0713 -0.2178
 5431TIP3    H116299   3.470   1.937   3.455  1.2185  0.2888 -1.0516
 5431TIP3    H216300   3.507   1.882   3.591 -0.5063 -0.4880 -0.8675
 5432TIP3   OH216301   1.109   3.276   4.691  0.2273  0.2872 -0.0088
 5432TIP3    H116302   1.019   3.245   4.679  0.4207 -0.2539 -0.0534
 5432TIP3    H216303   1.104   3.335   4.767  0.1116 -0.9133  0.9364
 5433TIP3   OH216304   3.591   4.759   0.343 -0.0845  0.7918  0.1939
 5433TIP3    H116305   3.514   4.813   0.323  0.0970  1.8045  2.0020
 5433TIP3    H216306   3.661   4.822   0.359  0.9971 -0.1022 -0.8240
 5434TIP3   OH216307   1.916   2.423   2.285 -0.5740 -0.0488 -0.6121
 5434TIP3    H116308   1.845   2.464   2.334  0.9645 -0.4249  2.1273
 5434TIP3    H216309   1.890   2.331   2.278 -0.0566 -0.3546  1.1054
 5435TIP3   OH216310   3.075   0.609   0.556  0.2719  0.3677 -0.1868
 5435TIP3    H116311   3.088   0.515   0.547  2.1730  0.5853 -0.0168
 5435TIP3    H216312   2.990   0.617   0.601  1.1459 -1.3564  1.9688
 5436TIP3   OH216313   4.114   5.638   0.550 -0.3819 -0.0949 -0.2711
 5436TIP3    H116314   4.053   5.700   0.591 -0.7452 -0.5503 -0.1082
 5436TIP3    H216315   4.078   5.625   0.462 -0.5337 -0.3843 -0.1658
 5437TIP3   OH216316   1.931   1.323   0.464  0.5198 -0.3105 -0.6622
 5437TIP3    H116317   1.986   1.264   0.514  1.0536  0.1672 -0.6725
 5437TIP3    H216318   1.918   1.279   0.380  0.2009 -0.7941 -0.3624
 5438TIP3   OH216319   2.836   1.141   1.425  0.0419  0.5935 -0.3527
 5438TIP3    H116320   2.826   1.202   1.351  2.6171  0.7941 -0.6298
 5438TIP3    H216321   2.879   1.193   1.493 -0.8499 -0.0333  0.7274
 5439TIP3   OH216322   4.511   3.988   0.512  0.0003 -0.2983 -0.2479
 5439TIP3    H116323   4.552   4.075   0.519  0.3644 -0.0800 -3.4614
 5439TIP3    H216324   4.437   4.002   0.453 -1.1637 -1.8336  0.7835
 5440TIP3   OH216325   1.178   0.046   0.215  0.4339 -0.1143  0.3061
 5440TIP3    H116326   1.228   0.072   0.137  1.0462 -0.9150  0.4211
 5440TIP3    H216327   1.231   0.074   0.289 -0.1193  0.5898  0.4481
 5441TIP3   OH216328   3.116   5.366   0.643 -0.3824 -0.4985  0.1202
 5441TIP3    H116329   3.210   5.353   0.654 -0.4092 -0.3636  0.5283
 5441TIP3    H216330   3.108   5.452   0.603 -0.2473 -1.3195 -1.7523
 5442TIP3   OH216331   5.034   0.802   2.333  0.2927 -0.4543 -0.2004
 5442TIP3    H116332   5.102   0.735   2.345  0.6423  0.0055  0.4227
 5442TIP3    H216333   5.067   0.879   2.380  0.7971  0.8215 -2.5114
 5443TIP3   OH216334   2.315   1.377   3.168  0.3933 -0.0774  0.2323
 5443TIP3    H116335   2.289   1.289   3.196  0.2647 -0.0564  0.1811
 5443TIP3    H216336   2.247   1.434   3.204  1.2109  0.1625  1.4434
 5444TIP3   OH216337   1.144   4.858   1.843 -0.5444 -0.2065 -0.3919
 5444TIP3    H116338   1.234   4.827   1.850  0.6426  2.7306 -1.5495
 5444TIP3    H216339   1.110   4.816   1.764  0.6541  0.5580 -1.3327
 5445TIP3   OH216340   5.785   3.642   2.240  0.0763  0.5376 -0.5515
 5445TIP3    H116341   5.725   3.663   2.169  0.8246  2.5803 -0.6549
 5445TIP3    H216342   5.769   3.710   2.306 -0.1621 -0.9296  0.9935
 5446TIP3   OH216343   1.091   4.194   0.934  0.2517 -0.2253  0.0813
 5446TIP3    H116344   1.114   4.259   1.001 -0.0522 -0.3243  0.2843
 5446TIP3    H216345   1.009   4.225   0.897  1.3273  0.8143 -1.5383
 5447TIP3   OH216346   1.373   5.335   4.855 -0.5086 -0.0182 -0.2335
 5447TIP3    H116347   1.362   5.279   4.932 -0.6331  0.2520 -0.0560
 5447TIP3    H216348   1.297   5.393   4.856 -0.4686  0.0425 -0.5140
 5448TIP3   OH216349   4.636   1.311   1.673 -0.4926 -0.3644  0.2354
 5448TIP3    H116350   4.590   1.247   1.728  0.0197 -1.5961 -0.7206
 5448TIP3    H216351   4.594   1.305   1.587  1.0139 -1.0895 -0.5018
 5449TIP3   OH216352   1.645   1.063   1.631 -0.1709  0.0263  0.3078
 5449TIP3    H116353   1.735   1.097   1.630  0.1022 -0.6632  0.6192
 5449TIP3    H216354   1.590   1.140   1.642  0.2107  0.8013 -2.4295
 5450TIP3   OH216355   2.570   0.514   0.876 -0.1557 -0.5774  0.1351
 5450TIP3    H116356   2.542   0.601   0.904 -0.0451 -0.4476 -0.1568
 5450TIP3    H216357   2.594   0.525   0.784  0.8232 -0.6928  0.3661
 5451TIP3   OH216358   1.367   3.532   2.841 -0.0757  0.6235 -0.0306
 5451TIP3    H116359   1.307   3.498   2.775  0.0302 -1.4963  0.8538
 5451TIP3    H216360   1.362   3.468   2.913 -0.4585  2.9986  2.2162
 5452TIP3   OH216361   6.050   5.438   1.485  0.2432  0.3416 -0.2535
 5452TIP3    H116362   5.970   5.464   1.532 -0.3026 -0.2005 -0.8674
 5452TIP3    H216363   6.092   5.374   1.544  1.0588  1.7766  0.7869
 5453TIP3   OH216364   3.977   5.894   3.350 -0.0158 -0.3404 -0.0547
 5453TIP3    H116365   3.958   5.916   3.259 -0.7146  0.2395  0.2192
 5453TIP3    H216366   4.063   5.932   3.367 -1.4035  2.8786  0.5756
 5454TIP3   OH216367   5.020   3.702   5.014  0.3100  0.3856  0.0307
 5454TIP3    H116368   5.064   3.658   4.942  0.5266 -1.3939  1.1905
 5454TIP3    H216369   4.949   3.751   4.973  2.6195  2.4443 -1.7726
 5455TIP3   OH216370   0.977   0.661   2.465  0.6217 -0.1005 -0.2538
 5455TIP3    H116371   1.000   0.675   2.374  0.2810  1.2408 -0.1564
 5455TIP3    H216372   0.971   0.750   2.502  1.4938 -0.6339  1.2531
 5456TIP3   OH216373   4.571   0.960   3.480  0.6612 -0.0196  0.0876
 5456TIP3    H116374   4.591   0.910   3.401 -1.5056 -1.9725  0.6769
 5456TIP3    H216375   4.575   1.052   3.452  1.3805 -0.5942 -1.8952
 5457TIP3   OH216376   2.171   5.577   2.600 -0.2936 -0.4721  0.1645
 5457TIP3    H116377   2.237   5.619   2.546 -1.6655  3.0958  1.0009
 5457TIP3    H216378   2.088   5.615   2.572 -1.4175 -0.9865  2.5303
 5458TIP3   OH216379   2.980   3.688   1.925  0.6662 -0.0332 -0.3033
 5458TIP3    H116380   2.972   3.699   1.830 -0.6263  0.1746 -0.1820
 5458TIP3    H216381   2.960   3.596   1.940  1.1132 -0.1253 -0.2416
 5459TIP3   OH216382   4.748   2.240   4.411  0.1515  0.0697 -0.1818
 5459TIP3    H116383   4.821   2.180   4.397  0.1965 -0.1100  0.8113
 5459TIP3    H216384   4.687   2.191   4.466 -1.1423 -0.1106 -1.6803
 5460TIP3   OH216385   4.984   0.170   4.646  0.2025 -0.2546  0.1315
 5460TIP3    H116386   4.920   0.208   4.586  0.2813  1.7255  1.2210
 5460TIP3    H216387   4.932   0.144   4.723  0.3375 -1.2452 -0.0983
 5461TIP3   OH216388   1.621   5.237   4.750 -0.6464 -0.1505  0.1187
 5461TIP3    H116389   1.616   5.310   4.688 -0.3678 -0.0782  0.1790
 5461TIP3    H216390   1.545   5.248   4.807 -1.0164 -0.3308 -0.3339
 5462TIP3   OH216391   2.560   0.281   1.561 -0.3192 -0.1678 -0.2150
 5462TIP3    H116392   2.618   0.229   1.616  0.4798 -0.2235 -1.0860
 5462TIP3    H216393   2.570   0.243   1.473  0.0442  1.2472 -0.8094
 5463TIP3   OH216394   4.262   2.820   3.749 -0.0796  0.5449  0.1471
 5463TIP3    H116395   4.192   2.785   3.693 -1.3242  0.3193  1.7624
 5463TIP3    H216396   4.221   2.830   3.835  2.1804 -0.6762  1.4581
 5464TIP3   OH216397   2.225   2.179   4.930  0.4763  0.1441  0.3098
 5464TIP3    H116398   2.253   2.176   5.022  2.2630 -2.6330 -0.1881
 5464TIP3    H216399   2.169   2.102   4.920 -0.3068  0.8246 -0.7925
 5465TIP3   OH216400   0.128   4.403   3.424  0.4805 -0.7950 -0.2558
 5465TIP3    H116401   0.076   4.457   3.365  0.3807  0.9369  1.3658
 5465TIP3    H216402   0.197   4.367   3.367  0.3009  0.6798 -1.4760
 5466TIP3   OH216403   3.024   2.923   3.300 -0.1863 -0.2812 -0.0513
 5466TIP3    H116404   3.003   2.985   3.370 -1.7279  0.7093 -1.3303
 5466TIP3    H216405   3.046   2.842   3.346 -0.1548  0.6246  1.6024
 5467TIP3   OH216406   6.095   3.798   0.975  0.5884 -0.2314 -0.0383
 5467TIP3    H116407   6.008   3.764   0.954 -0.1151  0.7942  1.1153
 5467TIP3    H216408   6.079   3.875   1.028  2.2161  0.0691  0.0710
 5468TIP3   OH216409   5.645   1.717   0.875  0.6452  0.1635 -0.7779
 5468TIP3    H116410   5.651   1.728   0.970 -0.5357  1.4775 -0.8192
 5468TIP3    H216411   5.573   1.654   0.863  2.1828 -1.6826 -0.7819
 5469TIP3   OH216412   6.295   1.632   0.779 -0.2837  0.9642  0.0152
 5469TIP3    H116413   6.264   1.681   0.703 -1.5815  1.9307  1.1288
 5469TIP3    H216414   6.247   1.550   0.777 -0.3612  1.0156 -0.1789
 5470TIP3   OH216415   6.234   0.558   4.867  0.0610  0.4835  0.2114
 5470TIP3    H116416   6.199   0.589   4.784  0.7444  0.2096 -0.1786
 5470TIP3    H216417   6.185   0.479   4.886 -0.9520  1.1980  0.6874
 5471TIP3   OH216418   3.348   0.600   0.630  0.1780  0.0744  0.2940
 5471TIP3    H116419   3.265   0.622   0.588  0.8771  1.4704 -0.4613
 5471TIP3    H216420   3.340   0.635   0.719 -0.1859 -0.1375  0.3440
 5472TIP3   OH216421   1.602   3.040   3.063  0.3555 -0.4366  0.6680
 5472TIP3    H116422   1.645   3.002   2.986 -0.7052 -1.4274  0.5434
 5472TIP3    H216423   1.641   2.995   3.138  0.5389 -0.3165  0.6460
 5473TIP3   OH216424   1.593   5.877   4.556 -0.5625  0.1649 -0.0345
 5473TIP3    H116425   1.651   5.953   4.550  0.5792 -0.7084 -0.3585
 5473TIP3    H216426   1.594   5.853   4.649  0.6186 -0.5994 -0.2265
 5474TIP3   OH216427   1.820   0.072   3.455 -0.6556  0.0733 -0.8399
 5474TIP3    H116428   1.888   0.006   3.439 -0.7328  0.0899 -1.2379
 5474TIP3    H216429   1.810   0.117   3.371  0.7986  1.9359 -0.0881
 5475TIP3   OH216430   0.818   0.753   5.155 -0.1911  0.3316  0.3664
 5475TIP3    H116431   0.869   0.778   5.078  0.8565 -1.6434  0.3675
 5475TIP3    H216432   0.739   0.808   5.150  1.0793  2.1625 -0.6062
 5476TIP3   OH216433   4.089   1.983   0.384 -0.4490 -0.2163 -0.4059
 5476TIP3    H116434   4.000   1.994   0.352 -0.2072 -0.9700 -1.3800
 5476TIP3    H216435   4.121   2.072   0.399 -0.8736  0.1137 -1.4191
 5477TIP3   OH216436   6.285   5.771   2.891  0.5121  0.0122 -0.3553
 5477TIP3    H116437   6.344   5.841   2.919  0.1021 -0.5256  2.0914
 5477TIP3    H216438   6.204   5.786   2.941  0.1114 -1.6968 -0.4267
 5478TIP3   OH216439   1.473   1.031   2.681  0.1814 -0.3025 -0.1938
 5478TIP3    H116440   1.513   1.111   2.648 -0.7955  0.8844  1.3732
 5478TIP3    H216441   1.392   1.022   2.630  0.6847 -0.7838 -0.9382
 5479TIP3   OH216442   0.085   0.913   4.666  0.0455  0.5438  0.6386
 5479TIP3    H116443   0.120   1.000   4.648 -1.0440  0.7759 -0.5155
 5479TIP3    H216444  -0.010   0.924   4.660 -0.1995 -0.3678  2.2206
 5480TIP3   OH216445   2.955   3.564   3.812  0.1860  0.2734  0.1142
 5480TIP3    H116446   2.888   3.567   3.880  0.6592 -0.7113  0.6346
 5480TIP3    H216447   2.992   3.476   3.817 -0.2818 -0.1050 -1.9316
 5481TIP3   OH216448   4.188   2.264   0.370  0.1613 -0.1248  0.3458
 5481TIP3    H116449   4.127   2.288   0.440 -0.2180 -1.3213  0.4678
 5481TIP3    H216450   4.132   2.254   0.292  0.3181 -0.4078  0.2655
 5482TIP3   OH216451   4.203   4.041   4.184  0.1029  0.0877  0.7264
 5482TIP3    H116452   4.248   3.985   4.247  1.5384  0.0769 -0.2667
 5482TIP3    H216453   4.221   4.001   4.099 -1.1617  0.5255  0.2282
 5483TIP3   OH216454   2.974   2.038   1.056  0.1730 -0.0034  0.3002
 5483TIP3    H116455   3.045   1.982   1.024 -0.2447  0.3134 -1.2439
 5483TIP3    H216456   2.978   2.030   1.151  1.6338 -0.7799  0.1925
 5484TIP3   OH216457   3.941   0.081   0.167  0.2215  0.1011 -0.6864
 5484TIP3    H116458   3.907   0.157   0.214  2.0720  1.3057 -1.1728
 5484TIP3    H216459   3.866   0.048   0.117 -0.3772  2.3679 -1.4070
 5485TIP3   OH216460   1.222   0.664   4.798 -0.1975  0.4534  0.1210
 5485TIP3    H116461   1.182   0.601   4.737 -1.1391 -0.3395  1.5030
 5485TIP3    H216462   1.292   0.705   4.747 -0.8493 -0.2801 -1.4461
 5486TIP3   OH216463   5.357   2.123   4.519 -0.3905 -0.5245 -0.2982
 5486TIP3    H116464   5.328   2.032   4.520  0.5425 -0.8278 -0.5945
 5486TIP3    H216465   5.319   2.159   4.439 -0.8698 -0.6078 -0.1155
 5487TIP3   OH216466   5.667   4.746   0.783  0.2800  0.1213  0.4123
 5487TIP3    H116467   5.589   4.711   0.825  1.5971 -1.9281  1.3252
 5487TIP3    H216468   5.639   4.765   0.693 -1.5238  0.5977  1.0251
 5488TIP3   OH216469   2.663   2.675   0.106  0.0541  0.7013 -0.2188
 5488TIP3    H116470   2.720   2.620   0.052  0.2269  0.9435 -0.2871
 5488TIP3    H216471   2.669   2.762   0.066 -1.1811  0.5129 -0.8571
 5489TIP3   OH216472   6.292   3.728   1.204  0.4558  0.1470 -0.1149
 5489TIP3    H116473   6.358   3.755   1.268  0.0917  0.9910 -0.0907
 5489TIP3    H216474   6.280   3.804   1.147 -0.8016  0.1572  0.1295
 5490TIP3   OH216475   2.551   3.942   3.607  0.1161 -0.0448  0.5463
 5490TIP3    H116476   2.545   3.887   3.685  1.1205 -0.3569  0.4141
 5490TIP3    H216477   2.511   3.889   3.538  0.4488 -0.3216  0.5662
 5491TIP3   OH216478   2.671   4.017   4.833  0.3199 -0.2783 -0.3857
 5491TIP3    H116479   2.689   3.926   4.855 -0.1561 -0.5031 -0.9064
 5491TIP3    H216480   2.631   4.054   4.912  0.6207 -0.4868 -0.1362
 5492TIP3   OH216481   4.980   3.902   2.557  0.2249 -0.0565  0.3731
 5492TIP3    H116482   4.977   3.842   2.483 -1.9847  1.7959 -1.1871
 5492TIP3    H216483   4.890   3.907   2.589  0.6745  1.0458  1.6116
 5493TIP3   OH216484   1.310   2.045   4.343  0.5641 -0.0990 -0.0119
 5493TIP3    H116485   1.384   2.050   4.282  0.4483  2.2783 -0.0478
 5493TIP3    H216486   1.349   2.053   4.429  0.3459  1.6671 -0.0545
 5494TIP3   OH216487   5.955   5.024   3.590 -0.6076 -0.0256 -0.0112
 5494TIP3    H116488   5.943   5.087   3.661  3.0230  1.2929 -0.3619
 5494TIP3    H216489   5.964   4.939   3.633  1.3995  0.7375  1.1964
 5495TIP3   OH216490   4.401   0.469   2.411  0.2684  0.5354  0.2725
 5495TIP3    H116491   4.371   0.525   2.483  1.6889 -0.2835  1.5561
 5495TIP3    H216492   4.491   0.448   2.434  0.4739 -0.4482 -1.3441
 5496TIP3   OH216493   2.575   4.092   0.784 -0.9247 -0.1807 -0.5692
 5496TIP3    H116494   2.632   4.075   0.709 -0.6684 -0.0051 -0.4167
 5496TIP3    H216495   2.612   4.038   0.854 -0.6800  0.2636 -0.3476
 5497TIP3   OH216496   3.118   1.868   5.033 -0.2224 -0.2306 -0.4823
 5497TIP3    H116497   3.072   1.951   5.043 -1.4122 -1.0960  1.6671
 5497TIP3    H216498   3.049   1.803   5.022  0.6387 -1.1154 -0.8007
 5498TIP3   OH216499   2.300   4.740   1.800  0.0218  0.3609  0.1588
 5498TIP3    H116500   2.254   4.674   1.748  0.8140  0.3152 -0.5081
 5498TIP3    H216501   2.349   4.791   1.735 -1.1554  2.0930  0.5793
 5499TIP3   OH216502   1.505   0.760   3.022  0.5288 -0.2504  0.1564
 5499TIP3    H116503   1.493   0.837   3.077 -1.0420 -0.6840  0.4644
 5499TIP3    H216504   1.446   0.694   3.059  0.3289 -0.9405 -1.3120
 5500TIP3   OH216505   6.087   3.916   3.005 -0.3961  0.0770 -0.3341
 5500TIP3    H116506   6.044   3.850   3.058 -0.2930 -0.4793 -0.9290
 5500TIP3    H216507   6.052   3.904   2.917  1.2713 -0.6953 -0.9430
 5501TIP3   OH216508   3.045   5.077   2.584 -0.7028  0.5447 -0.3811
 5501TIP3    H116509   2.988   5.153   2.584 -0.5917  0.6583  1.0977
 5501TIP3    H216510   3.097   5.086   2.504 -0.9553  1.8173 -0.4232
 5502TIP3   OH216511   1.912   1.887   0.934  0.6531  0.0816 -0.1482
 5502TIP3    H116512   1.861   1.879   0.853  0.8446  0.0644 -0.2698
 5502TIP3    H216513   2.001   1.908   0.903  0.3533  1.9051  0.1013
 5503TIP3   OH216514   3.676   3.781   1.041 -0.2753  0.0514  0.5456
 5503TIP3    H116515   3.626   3.801   0.962 -4.3648  1.9298  3.2834
 5503TIP3    H216516   3.718   3.864   1.066 -1.4634  0.2934  1.8369
 5504TIP3   OH216517   3.979   4.539   0.792 -0.6188 -0.1214  0.1088
 5504TIP3    H116518   3.917   4.535   0.865 -0.3232 -2.2403  0.3160
 5504TIP3    H216519   4.060   4.574   0.831 -1.4402  2.0040 -0.0126
 5505TIP3   OH216520   6.336   2.421   4.987 -0.4360 -0.7322  0.1050
 5505TIP3    H116521   6.349   2.497   4.930 -0.2804 -0.6209  0.2848
 5505TIP3    H216522   6.246   2.428   5.017 -0.3109 -0.4123  0.4128
 5506TIP3   OH216523   2.947   1.005   3.867  0.1499  0.4267  0.2460
 5506TIP3    H116524   2.995   0.948   3.927  0.1355  0.5171  0.3437
 5506TIP3    H216525   2.918   0.947   3.797 -0.3536  0.2041  0.6356
 5507TIP3   OH216526   2.737   1.419   3.070  0.1943  0.1311 -0.0306
 5507TIP3    H116527   2.731   1.499   3.122 -1.8459  0.4615 -0.6890
 5507TIP3    H216528   2.708   1.350   3.130  2.2516 -0.2102  0.6343
 5508TIP3   OH216529   5.013   5.285   1.399 -0.1824 -0.6154  0.1576
 5508TIP3    H116530   5.057   5.353   1.450  0.0092 -0.1569 -0.6012
 5508TIP3    H216531   4.998   5.214   1.461 -0.0052 -0.0483  0.8610
 5509TIP3   OH216532   4.946   4.963   3.782  0.1565 -0.2746 -0.0928
 5509TIP3    H116533   4.905   4.961   3.869  1.0836 -0.4141  0.3592
 5509TIP3    H216534   4.951   5.056   3.760  0.1811 -0.2223  0.1320
 5510TIP3   OH216535   3.041   5.173   2.892 -0.2289  0.1821 -0.2279
 5510TIP3    H116536   3.134   5.186   2.875  0.1937  0.9521  2.2523
 5510TIP3    H216537   3.014   5.251   2.940 -1.4890 -1.1319  1.3473
 5511TIP3   OH216538   1.157   4.382   3.874  0.2614  0.3295 -0.0500
 5511TIP3    H116539   1.221   4.354   3.809  1.0016 -0.3297  0.9423
 5511TIP3    H216540   1.150   4.477   3.862  0.7653  0.2880 -0.7314
 5512TIP3   OH216541   6.023   4.360   0.978  0.1766  0.3645 -0.3624
 5512TIP3    H116542   6.022   4.385   0.885  2.5858  0.8867 -0.3212
 5512TIP3    H216543   6.086   4.288   0.982 -0.6613 -0.3310  0.7504
 5513TIP3   OH216544   3.852   4.689   4.924  0.0690 -0.1588 -0.4081
 5513TIP3    H116545   3.829   4.672   5.016 -2.5182  1.6797 -0.5699
 5513TIP3    H216546   3.904   4.769   4.927  3.2703 -2.0917 -0.3779
 5514TIP3   OH216547   5.903   0.660   0.269 -0.6963 -0.2472  0.5061
 5514TIP3    H116548   5.876   0.595   0.333  0.6726 -0.4173  0.9320
 5514TIP3    H216549   5.847   0.736   0.286 -0.6655 -0.4626  1.5926
 5515TIP3   OH216550   3.036   5.948   1.550 -0.1669 -0.8221 -0.3986
 5515TIP3    H116551   2.987   6.006   1.492 -0.6812 -0.0266  0.7982
 5515TIP3    H216552   3.117   5.929   1.502  0.6915  2.0477 -0.2927
 5516TIP3   OH216553   5.936   4.390   3.361  0.0175 -0.4738 -0.3360
 5516TIP3    H116554   5.921   4.477   3.398 -0.5584  0.2853 -2.2448
 5516TIP3    H216555   6.019   4.398   3.314 -0.2899 -0.8111 -0.9376
 5517TIP3   OH216556   3.779   2.951   1.493 -0.4914 -1.0858 -0.0859
 5517TIP3    H116557   3.703   2.999   1.526 -0.5924  0.7699 -2.7396
 5517TIP3    H216558   3.824   3.013   1.436  3.2553 -1.9730  1.5324
 5518TIP3   OH216559   2.552   2.231   2.305  0.2843  0.0184  0.2403
 5518TIP3    H116560   2.459   2.224   2.324  0.2423 -0.8019 -0.2258
 5518TIP3    H216561   2.556   2.264   2.216  0.4643  1.3850  0.7294
 5519TIP3   OH216562   3.873   0.591   2.181 -0.5220 -0.3283 -0.8256
 5519TIP3    H116563   3.933   0.661   2.153 -0.9263 -0.2037 -1.3961
 5519TIP3    H216564   3.792   0.610   2.135 -0.4521 -1.5264 -1.4715
 5520TIP3   OH216565   3.441   4.578   4.326  0.0927  0.0125  0.1734
 5520TIP3    H116566   3.427   4.495   4.281 -0.5589  0.9675 -1.4832
 5520TIP3    H216567   3.528   4.606   4.298 -1.2340  1.7812 -2.6516
 5521TIP3   OH216568   2.046   1.409   2.096 -0.3735  0.2091 -0.3478
 5521TIP3    H116569   1.974   1.347   2.098 -0.6805  0.5410  1.9845
 5521TIP3    H216570   2.105   1.375   2.029 -2.3063 -0.4773 -1.7964
 5522TIP3   OH216571   4.694   2.515   1.909 -0.1042 -0.2592 -0.3262
 5522TIP3    H116572   4.632   2.587   1.903  0.1219  0.0439  0.7436
 5522TIP3    H216573   4.642   2.440   1.937 -0.0546 -0.0786  0.2697
 5523TIP3   OH216574   3.010   2.674   4.684 -0.5687 -0.1895 -0.3478
 5523TIP3    H116575   2.935   2.716   4.641 -2.9417 -1.1419  2.4968
 5523TIP3    H216576   3.022   2.724   4.764  1.0915 -0.8339 -0.1689
 5524TIP3   OH216577   5.983   1.520   1.666 -0.1802 -0.4692 -0.2368
 5524TIP3    H116578   6.013   1.545   1.579 -0.6536  2.2753  0.3261
 5524TIP3    H216579   6.047   1.454   1.694  1.5829  0.5575 -1.5960
 5525TIP3   OH216580   1.521   2.539   4.440  0.0130  0.2926  0.1706
 5525TIP3    H116581   1.549   2.449   4.456  1.2402  0.5229 -0.5229
 5525TIP3    H216582   1.449   2.553   4.501 -0.6896 -1.3794 -0.2055
 5526TIP3   OH216583   5.539   4.676   2.846  0.0517 -0.4455  0.0724
 5526TIP3    H116584   5.540   4.654   2.753 -0.0430  0.3386 -0.1177
 5526TIP3    H216585   5.628   4.660   2.876 -0.3829 -2.7941  0.3675
 5527TIP3   OH216586   0.635   3.695   2.369  1.0484 -0.0960  0.6905
 5527TIP3    H116587   0.602   3.677   2.281 -0.1587  0.1531  1.0809
 5527TIP3    H216588   0.725   3.724   2.355  0.8030  0.1543 -0.4830
 5528TIP3   OH216589   5.717   4.003   0.950  0.2569  0.1816  0.4247
 5528TIP3    H116590   5.757   3.917   0.953 -1.7873 -0.9660 -1.7663
 5528TIP3    H216591   5.779   4.057   0.900 -0.0410 -1.0658 -1.3830
 5529TIP3   OH216592   2.684   2.245   0.097  0.1451 -0.5470 -0.0071
 5529TIP3    H116593   2.624   2.194   0.043  0.9716 -1.0637 -0.4678
 5529TIP3    H216594   2.690   2.196   0.179 -1.9799  0.8181  1.0575
 5530TIP3   OH216595   3.343   0.061   2.254  0.1214  0.3863  0.4507
 5530TIP3    H116596   3.260   0.065   2.301 -0.2597  0.6612 -0.2225
 5530TIP3    H216597   3.370  -0.030   2.260 -0.4803  0.1921  0.2506
 5531TIP3   OH216598   3.828   5.283   4.343  0.1233  0.1286  0.5206
 5531TIP3    H116599   3.779   5.333   4.278  0.3063 -1.0361 -0.5500
 5531TIP3    H216600   3.917   5.317   4.338 -0.2785  1.4271  1.6260
 5532TIP3   OH216601   6.138   1.104   4.958 -0.2004  0.0323  0.0062
 5532TIP3    H116602   6.125   1.014   4.985 -1.3424  0.8087  2.2863
 5532TIP3    H216603   6.181   1.146   5.033 -0.6415  1.6117 -0.5789
 5533TIP3   OH216604   6.160   3.998   1.896 -0.0198  0.4676  0.4248
 5533TIP3    H116605   6.163   4.046   1.979 -1.6620  1.5139 -0.0701
 5533TIP3    H216606   6.193   4.061   1.831  0.3250 -0.0083  0.1290
 5534TIP3   OH216607   4.819   0.919   1.884 -0.4655  0.3889  0.1428
 5534TIP3    H116608   4.900   0.947   1.840 -2.6184  1.2177 -3.7475
 5534TIP3    H216609   4.843   0.837   1.927  2.5618  0.8887 -0.3538
 5535TIP3   OH216610   4.505   1.271   1.036  0.0332 -0.0762 -0.2917
 5535TIP3    H116611   4.497   1.281   1.131 -0.5248  0.0987 -0.3522
 5535TIP3    H216612   4.599   1.273   1.019  0.0965  1.3456  0.1118
 5536TIP3   OH216613   0.946   4.334   2.190  0.0986  0.1755  0.7923
 5536TIP3    H116614   0.999   4.406   2.226  2.2987 -2.1595  2.6467
 5536TIP3    H216615   0.896   4.301   2.265  1.3318 -1.9677  0.7545
 5537TIP3   OH216616   0.401   4.117   1.140 -0.3708 -0.2303  0.4943
 5537TIP3    H116617   0.493   4.107   1.117 -0.8621 -0.5117 -1.4862
 5537TIP3    H216618   0.395   4.205   1.178  0.6261 -0.0126  0.1766
 5538TIP3   OH216619   0.337   5.947   1.077  0.2676 -0.1842  0.2895
 5538TIP3    H116620   0.251   5.971   1.042 -0.3753 -3.0946 -0.3775
 5538TIP3    H216621   0.391   6.025   1.062 -1.1827  0.3802 -3.0279
 5539TIP3   OH216622   5.557   4.590   4.516  0.2104  0.1527 -0.0879
 5539TIP3    H116623   5.644   4.628   4.531  1.0437 -1.3580 -0.8108
 5539TIP3    H216624   5.535   4.548   4.599  0.6344 -0.2986 -0.1960
 5540TIP3   OH216625   4.845   5.142   2.321  0.2038 -0.1516  0.3280
 5540TIP3    H116626   4.865   5.058   2.363 -0.6372 -0.4054  0.2349
 5540TIP3    H216627   4.782   5.120   2.252 -0.0422  0.5549  0.3182
 5541TIP3   OH216628   3.495   5.305   1.057 -0.0132  0.1412 -0.1499
 5541TIP3    H116629   3.555   5.243   1.097  1.6734  1.7498 -0.0393
 5541TIP3    H216630   3.552   5.368   1.013 -1.7020  0.0225 -2.7269
 5542TIP3   OH216631   4.150   3.520   1.460 -0.4608 -0.2678  0.6072
 5542TIP3    H116632   4.173   3.555   1.374 -0.1738 -1.2059  0.2944
 5542TIP3    H216633   4.199   3.439   1.467 -1.0612 -0.5798  1.3442
 5543TIP3   OH216634   6.238   3.628   3.954 -0.4225  0.5772 -0.2987
 5543TIP3    H116635   6.253   3.554   3.896 -0.7865 -1.2392  1.8101
 5543TIP3    H216636   6.312   3.686   3.939  0.5192 -0.7891 -1.1526
 5544TIP3   OH216637   3.123   4.905   1.755  0.3633  0.7181 -0.1097
 5544TIP3    H116638   3.184   4.958   1.704  0.2826  0.0745 -0.8793
 5544TIP3    H216639   3.178   4.860   1.819  0.5247  1.1381  0.0542
 5545TIP3   OH216640   3.455   3.490   4.809 -0.2733 -0.0861  0.4583
 5545TIP3    H116641   3.415   3.422   4.864  0.4283  0.3690  1.5605
 5545TIP3    H216642   3.382   3.545   4.782 -0.8404 -1.2082 -0.3642
 5546TIP3   OH216643   5.355   5.307   2.913 -0.0351 -0.0641 -0.4862
 5546TIP3    H116644   5.376   5.401   2.913 -2.8647  0.6829  0.3505
 5546TIP3    H216645   5.364   5.280   2.822  1.5132  0.8317 -0.6240
 5547TIP3   OH216646   5.480   1.832   2.727  0.0455  0.0496  0.0017
 5547TIP3    H116647   5.502   1.924   2.716 -1.1233  0.2331 -1.0853
 5547TIP3    H216648   5.387   1.832   2.749 -0.3716 -0.9094 -1.5766
 5548TIP3   OH216649   4.796   1.576   3.296  0.2736 -0.4520 -0.3000
 5548TIP3    H116650   4.846   1.586   3.215 -1.5448 -0.4888 -1.4830
 5548TIP3    H216651   4.718   1.630   3.283 -0.6738 -1.4756  0.8943
 5549TIP3   OH216652   4.927   4.305   0.726  0.4806  0.2002  0.0895
 5549TIP3    H116653   4.983   4.291   0.802 -0.0358 -0.5684  0.3400
 5549TIP3    H216654   4.952   4.236   0.664 -0.0386 -0.0242  0.1229
 5550TIP3   OH216655   3.016   3.741   4.501  0.0252 -0.2073  0.5410
 5550TIP3    H116656   2.946   3.720   4.563  0.8065  0.7168  1.7968
 5550TIP3    H216657   3.008   3.836   4.489  0.6738 -0.1938  0.2176
 5551TIP3   OH216658   0.895   0.742   2.194  0.1444 -0.0021 -0.2454
 5551TIP3    H116659   0.857   0.830   2.196  0.2695  0.0811 -1.0785
 5551TIP3    H216660   0.823   0.684   2.219 -0.4414  0.1854 -1.4285
 5552TIP3   OH216661   1.854   4.402   0.603  0.2610  0.3696 -0.0307
 5552TIP3    H116662   1.775   4.373   0.558 -0.0608  1.6058 -0.2839
 5552TIP3    H216663   1.925   4.378   0.543  0.3174 -2.4251  0.9936
 5553TIP3   OH216664   2.830   0.297   4.306 -0.0196 -0.5900  0.2230
 5553TIP3    H116665   2.865   0.365   4.364 -0.6290 -0.4473  0.4299
 5553TIP3    H216666   2.744   0.330   4.279  0.5438 -0.3258 -1.3431
 5554TIP3   OH216667   0.416   2.907   1.652 -0.4191 -0.0271 -0.5053
 5554TIP3    H116668   0.437   2.996   1.682  1.5763 -0.0614 -1.5961
 5554TIP3    H216669   0.325   2.894   1.677  0.3563  0.7415  3.4771
 5555TIP3   OH216670   3.229   0.318   1.976  0.3208 -0.1637  0.3284
 5555TIP3    H116671   3.184   0.363   2.048  1.0050  1.0168  0.0473
 5555TIP3    H216672   3.321   0.321   2.000  0.9871  3.1231 -2.0170
 5556TIP3   OH216673   5.464   2.575   0.956  0.4291 -0.2653 -0.0592
 5556TIP3    H116674   5.511   2.544   0.878 -1.0528 -2.3011 -0.2338
 5556TIP3    H216675   5.437   2.494   1.000 -1.8858  0.8022  0.6282
 5557TIP3   OH216676   4.771   3.926   3.852 -0.9481  0.1967  0.6839
 5557TIP3    H116677   4.865   3.927   3.871 -0.9643  0.7925  0.7574
 5557TIP3    H216678   4.730   3.954   3.934 -1.1801  0.1622  0.5813
 5558TIP3   OH216679   0.929   3.513   3.802  0.3000  0.3187 -0.2800
 5558TIP3    H116680   0.902   3.566   3.877  0.5722 -1.1844  0.9291
 5558TIP3    H216681   1.020   3.491   3.819 -0.2105 -1.7618  0.0508
 5559TIP3   OH216682   0.236   2.593   0.332 -0.3956  0.4685 -0.1696
 5559TIP3    H116683   0.285   2.575   0.252  0.5598 -0.0926  0.5181
 5559TIP3    H216684   0.149   2.558   0.316  0.1475 -0.7704 -0.5142
 5560TIP3   OH216685   4.642   4.485   0.804 -0.5255 -0.1818 -0.9306
 5560TIP3    H116686   4.569   4.541   0.778 -0.6969 -1.0577 -2.4243
 5560TIP3    H216687   4.601   4.402   0.828 -0.2366  0.1522  0.9472
 5561TIP3   OH216688   3.355   1.330   1.236  0.0261 -0.4909  0.3163
 5561TIP3    H116689   3.389   1.416   1.260 -2.7790  0.6644  0.5260
 5561TIP3    H216690   3.263   1.346   1.216 -0.5262 -3.4293  0.1545
 5562TIP3   OH216691   2.308   3.841   0.385  0.2581  0.0350 -0.7765
 5562TIP3    H116692   2.319   3.930   0.352 -1.5528  1.6259  2.3726
 5562TIP3    H216693   2.371   3.833   0.457 -0.9520 -0.4203  0.2847
 5563TIP3   OH216694   5.891   2.638   3.233 -0.2245 -0.3772 -0.1662
 5563TIP3    H116695   5.814   2.596   3.196  0.4069 -1.2390 -0.5420
 5563TIP3    H216696   5.869   2.731   3.236 -1.1701 -0.5821 -0.5196
 5564TIP3   OH216697   1.352   1.443   0.835 -0.4281 -0.4350  0.9440
 5564TIP3    H116698   1.267   1.400   0.843 -0.3365 -0.4616  2.0239
 5564TIP3    H216699   1.388   1.440   0.924  0.7149 -0.4536  0.4971
 5565TIP3   OH216700   0.027   4.748   4.887  0.3832 -0.2606  0.3750
 5565TIP3    H116701   0.099   4.708   4.936  0.4999 -0.1239  0.3142
 5565TIP3    H216702   0.020   4.694   4.808  0.7287  0.0073  0.1570
 5566TIP3   OH216703   0.871   3.584   2.966 -0.1599 -0.2243  0.3489
 5566TIP3    H116704   0.882   3.524   2.892  1.0320 -1.0502  1.1477
 5566TIP3    H216705   0.802   3.545   3.019 -0.4145 -0.0914  0.1172
 5567TIP3   OH216706   2.883   0.329   1.497 -0.1163  0.4419 -0.2681
 5567TIP3    H116707   2.857   0.335   1.405 -1.0857  2.3444  0.0731
 5567TIP3    H216708   2.858   0.414   1.535  1.2546  0.1226  1.5048
 5568TIP3   OH216709   5.010   2.802   0.267  0.0961 -0.6357 -0.0156
 5568TIP3    H116710   5.017   2.891   0.302  0.8544  0.2882 -2.2776
 5568TIP3    H216711   5.093   2.761   0.290 -0.3568 -0.8891  1.2594
 5569TIP3   OH216712   6.019   3.559   2.334  0.3972  0.1498  0.1154
 5569TIP3    H116713   6.006   3.464   2.324  1.1777  0.2775 -3.5302
 5569TIP3    H216714   5.932   3.596   2.320  0.1674  0.0315  1.1392
 5570TIP3   OH216715   1.393   5.326   0.242  0.0582  0.0298 -0.8072
 5570TIP3    H116716   1.354   5.407   0.275  0.5865  0.3717 -0.9931
 5570TIP3    H216717   1.324   5.261   0.249 -0.4502  0.5531 -0.8687
 5571TIP3   OH216718   0.009   4.723   2.735 -0.3507 -0.3523 -0.1481
 5571TIP3    H116719   0.059   4.657   2.686 -0.7644 -1.0987  0.4079
 5571TIP3    H216720  -0.060   4.750   2.674  0.0669 -0.1190 -0.5266
 5572TIP3   OH216721   2.464   5.862   0.067 -0.6670  0.3006 -0.2918
 5572TIP3    H116722   2.481   5.901  -0.019  0.8711  0.7803  0.2025
 5572TIP3    H216723   2.527   5.903   0.125  0.3291 -2.1617  0.4822
 5573TIP3   OH216724   5.789   5.196   0.577  0.8374 -1.2412 -0.2680
 5573TIP3    H116725   5.858   5.217   0.640 -0.0440  0.3624  0.2033
 5573TIP3    H216726   5.794   5.266   0.512 -1.0176 -0.4926  0.3434
 5574TIP3   OH216727   3.207   2.240   0.568 -0.0247  0.5802 -0.3313
 5574TIP3    H116728   3.189   2.224   0.660 -0.2730  2.7695  0.0371
 5574TIP3    H216729   3.196   2.154   0.527  1.7959 -0.8413  1.8932
 5575TIP3   OH216730   0.671   4.471   4.877 -0.4281 -0.5229  0.7252
 5575TIP3    H116731   0.601   4.508   4.823 -1.4930 -0.5654  2.0400
 5575TIP3    H216732   0.747   4.468   4.818 -1.7164 -1.2426 -0.9757
 5576TIP3   OH216733   0.503   1.991   0.757  0.0066 -0.2404  0.1714
 5576TIP3    H116734   0.425   1.941   0.780  0.2914 -1.1159 -0.6573
 5576TIP3    H216735   0.515   1.975   0.663 -1.4873  3.7063 -0.8591
 5577TIP3   OH216736   6.324   2.517   3.467 -0.4148 -0.8300  0.2991
 5577TIP3    H116737   6.244   2.561   3.436  1.5418  1.3402 -2.0899
 5577TIP3    H216738   6.368   2.582   3.521  1.3409 -0.6460 -1.2462
 5578TIP3   OH216739   0.577   0.150   4.114 -0.2025 -0.3676 -0.1271
 5578TIP3    H116740   0.670   0.130   4.106  0.0201  1.1433 -2.1168
 5578TIP3    H216741   0.573   0.225   4.174  0.0476  0.5573 -1.2365
 5579TIP3   OH216742   0.666   5.736   4.754 -0.2907  0.1027  0.4300
 5579TIP3    H116743   0.743   5.777   4.715 -1.1164 -0.5594 -2.1338
 5579TIP3    H216744   0.642   5.793   4.827  3.1372 -0.1982  1.9755
 5580TIP3   OH216745   4.872   2.452   2.745 -0.4485 -0.6638 -0.6196
 5580TIP3    H116746   4.873   2.535   2.696 -0.7518 -0.0880  0.3199
 5580TIP3    H216747   4.893   2.385   2.680 -0.3216  0.1407 -1.4218
 5581TIP3   OH216748   2.159   2.244   1.892  0.5339  0.2542  0.0026
 5581TIP3    H116749   2.134   2.333   1.867 -0.2349  0.7311  2.2081
 5581TIP3    H216750   2.076   2.202   1.916  0.9729 -0.8473 -0.3476
 5582TIP3   OH216751   2.257   1.761   2.456 -0.1864  0.0338  0.2184
 5582TIP3    H116752   2.275   1.770   2.550 -1.7167  0.2771  0.5075
 5582TIP3    H216753   2.216   1.675   2.447  0.9103 -0.4449 -0.4012
 5583TIP3   OH216754   0.064   2.943   5.180 -0.2440 -0.2654  0.3281
 5583TIP3    H116755   0.033   2.882   5.246  0.8773 -0.3305  0.8119
 5583TIP3    H216756   0.118   2.890   5.121 -1.0710 -0.1715 -0.5546
 5584TIP3   OH216757   5.543   0.698   3.332 -0.8830  0.3155 -0.5225
 5584TIP3    H116758   5.537   0.716   3.238  0.0463 -0.4290 -0.7411
 5584TIP3    H216759   5.479   0.627   3.346  1.5559 -2.2463 -1.3718
 5585TIP3   OH216760   5.734   5.585   4.506  0.2914 -0.2358  0.4288
 5585TIP3    H116761   5.657   5.641   4.512 -0.6405 -1.4430  0.2310
 5585TIP3    H216762   5.797   5.635   4.454 -0.3684  0.7603  0.5651
 5586TIP3   OH216763   0.383   4.885   4.739 -0.3476 -0.5421  0.3565
 5586TIP3    H116764   0.387   4.979   4.718 -0.5899 -0.5682  0.1855
 5586TIP3    H216765   0.290   4.864   4.733 -0.2204 -0.9443 -0.2793
 5587TIP3   OH216766   1.544   0.380   1.859  0.1446 -0.5085 -0.2273
 5587TIP3    H116767   1.509   0.452   1.807  0.9067  0.4481  0.5538
 5587TIP3    H216768   1.466   0.333   1.890 -0.4146  0.6211  0.1348
 5588TIP3   OH216769   6.371   2.353   4.641  0.3492  0.1824 -0.5789
 5588TIP3    H116770   6.304   2.298   4.601 -1.1632  0.5148  1.3528
 5588TIP3    H216771   6.342   2.443   4.624  0.5192  0.3334 -0.0872
 5589TIP3   OH216772   3.473   5.948   2.879 -0.2472  0.2069 -0.1707
 5589TIP3    H116773   3.393   5.997   2.895  0.2280  0.6335  1.0254
 5589TIP3    H216774   3.533   6.012   2.841 -1.1066 -0.6094 -3.1829
 5590TIP3   OH216775   1.367   0.636   1.003 -0.0678 -0.3963  0.2050
 5590TIP3    H116776   1.460   0.644   1.020  0.2901 -1.9305 -0.8255
 5590TIP3    H216777   1.350   0.542   1.004 -1.0896 -0.3094 -1.9845
 5591TIP3   OH216778   2.834   1.378   2.222  0.0568 -0.2943  0.5364
 5591TIP3    H116779   2.768   1.374   2.153  1.0265 -0.2194 -0.4135
 5591TIP3    H216780   2.857   1.286   2.238  1.7017 -0.2387 -1.1201
 5592TIP3   OH216781   0.546   2.333   4.472 -0.2553  0.1259  0.4445
 5592TIP3    H116782   0.618   2.271   4.468 -0.8556 -0.5145 -0.9562
 5592TIP3    H216783   0.513   2.325   4.562  1.5495  0.6323  1.1943
 5593TIP3   OH216784   0.436   2.250   0.486 -0.0986  0.1628  0.0462
 5593TIP3    H116785   0.344   2.244   0.462 -0.0171  0.5790 -0.3644
 5593TIP3    H216786   0.455   2.165   0.527 -0.5396 -0.0977 -0.2825
 5594TIP3   OH216787   0.630   1.007   2.179  1.0254 -0.2216 -0.4671
 5594TIP3    H116788   0.548   1.051   2.200  1.3998  1.3787 -2.0718
 5594TIP3    H216789   0.693   1.043   2.242  1.0901  0.7909 -1.0829
 5595TIP3   OH216790   3.526   3.191   3.679 -0.3267  0.0850  0.2127
 5595TIP3    H116791   3.564   3.212   3.594  0.5926 -1.1148  0.3082
 5595TIP3    H216792   3.599   3.160   3.732 -1.0274  0.0380  1.1862
 5596TIP3   OH216793   5.734   3.934   5.150  0.7187  0.0582  0.1289
 5596TIP3    H116794   5.752   4.025   5.175 -2.4670  0.4162  1.6523
 5596TIP3    H216795   5.658   3.939   5.093 -0.6304 -1.6863  1.6298
 5597TIP3   OH216796   2.670   3.121   4.009 -0.6186 -0.3215  0.5062
 5597TIP3    H116797   2.677   3.053   4.077  0.1406 -2.8198 -1.9062
 5597TIP3    H216798   2.706   3.081   3.931  0.2115  3.0558 -1.0378
 5598TIP3   OH216799   3.135   0.150   1.586 -0.4914 -0.5496  0.1106
 5598TIP3    H116800   3.120   0.244   1.575 -1.1969 -0.8156 -1.6386
 5598TIP3    H216801   3.101   0.112   1.505 -1.9725 -2.4965  1.5526
 5599TIP3   OH216802   2.957   1.778   0.275 -0.6292  0.7277 -0.0501
 5599TIP3    H116803   3.001   1.735   0.202 -1.4245  0.6409 -0.4923
 5599TIP3    H216804   2.921   1.706   0.328 -0.0598  0.7904  0.4250
 5600TIP3   OH216805   4.814   3.990   0.438  0.5604 -0.3947  0.2026
 5600TIP3    H116806   4.896   4.029   0.468 -0.8071  2.9466  0.0787
 5600TIP3    H216807   4.753   4.064   0.434 -1.6895 -2.1930 -2.4640
 5601TIP3   OH216808   3.658   0.267   4.439  0.4626  0.0506  0.3352
 5601TIP3    H116809   3.633   0.360   4.444 -3.3071 -0.6183 -2.0191
 5601TIP3    H216810   3.740   0.267   4.390 -0.1050  2.1068 -0.7381
 5602TIP3   OH216811   4.610   2.453   4.645 -0.2793 -0.5165  0.5749
 5602TIP3    H116812   4.580   2.506   4.718 -0.4195 -0.6034  0.5818
 5602TIP3    H216813   4.677   2.395   4.683  1.7296  1.3518  0.0684
 5603TIP3   OH216814   2.797   5.697   2.523  0.2661 -0.2307  0.5372
 5603TIP3    H116815   2.882   5.741   2.526  0.1100  0.0380  1.2076
 5603TIP3    H216816   2.794   5.655   2.437 -0.1001  2.1172 -0.6841
 5604TIP3   OH216817   3.608   0.254   1.958 -0.0332 -0.9542  0.3641
 5604TIP3    H116818   3.596   0.320   1.890  0.4188  0.7540  1.8518
 5604TIP3    H216819   3.701   0.230   1.951 -0.2540 -1.6432 -0.3343
 5605TIP3   OH216820   5.378   1.725   1.131  0.5849 -0.3703 -0.0387
 5605TIP3    H116821   5.432   1.730   1.210  0.3785 -2.8691  0.3662
 5605TIP3    H216822   5.412   1.649   1.084 -0.7784 -0.3109 -1.1918
 5606TIP3   OH216823   0.545   1.060   1.609  0.2584  0.2363  0.1276
 5606TIP3    H116824   0.506   1.147   1.613 -0.5471 -0.0654 -0.6456
 5606TIP3    H216825   0.538   1.035   1.517  0.6777 -0.5520  0.3011
 5607TIP3   OH216826   2.177   4.211   2.778  0.2054  0.2997  0.1429
 5607TIP3    H116827   2.223   4.232   2.696  0.3486 -0.6901 -0.0495
 5607TIP3    H216828   2.097   4.263   2.775  0.7926  1.2126 -0.0373
 5608TIP3   OH216829   5.602   4.465   2.321 -0.0866  0.0940 -0.0846
 5608TIP3    H116830   5.527   4.410   2.299 -0.4158  0.2044  0.7392
 5608TIP3    H216831   5.643   4.421   2.396  0.1534  0.5103  0.0296
 5609TIP3   OH216832   1.639   1.276   4.214 -0.0237 -0.0509 -0.3910
 5609TIP3    H116833   1.577   1.349   4.212  1.1047  0.9133 -0.9199
 5609TIP3    H216834   1.647   1.249   4.123  1.8557  1.1675 -0.6263
 5610TIP3   OH216835   2.607   1.149   4.099 -0.3002  0.3695 -0.0641
 5610TIP3    H116836   2.666   1.126   4.171 -1.0135 -2.0072 -0.1851
 5610TIP3    H216837   2.531   1.092   4.110 -0.9294  0.7256 -2.0689
 5611TIP3   OH216838   3.908   5.904   3.064  0.2218  0.0243  0.5639
 5611TIP3    H116839   3.885   5.813   3.081 -0.9231  0.1253 -0.2774
 5611TIP3    H216840   3.902   5.913   2.969  0.1113  1.0212  0.6506
 5612TIP3   OH216841   5.321   5.504   1.797  0.4882 -0.1385  0.3326
 5612TIP3    H116842   5.236   5.533   1.831  0.1711 -0.1840 -0.4110
 5612TIP3    H216843   5.360   5.455   1.869  0.0896  0.2867  0.8445
 5613TIP3   OH216844   0.182   2.070   4.628  0.6536  0.0701  0.8844
 5613TIP3    H116845   0.198   2.108   4.542  1.2248 -0.4913  0.7320
 5613TIP3    H216846   0.185   2.145   4.688  2.4921  0.2140  0.6837
 5614TIP3   OH216847   5.351   3.728   5.068  0.2995 -0.5813  0.6943
 5614TIP3    H116848   5.426   3.676   5.096  0.2634 -1.7161 -1.1756
 5614TIP3    H216849   5.296   3.667   5.019  0.3888  1.2081 -1.8578
 5615TIP3   OH216850   5.575   0.968   2.307  0.1007 -0.1014 -0.5066
 5615TIP3    H116851   5.653   1.008   2.269  0.9668 -1.1836  0.1150
 5615TIP3    H216852   5.603   0.937   2.393 -0.9661 -0.6852 -0.3572
 5616TIP3   OH216853   3.157   4.805   2.667  0.1638  0.0984  0.3832
 5616TIP3    H116854   3.244   4.841   2.680  0.4496 -0.5098  0.1612
 5616TIP3    H216855   3.170   4.710   2.662 -0.3715  0.0686 -0.7025
 5617TIP3   OH216856   4.458   3.253   0.250  0.3221  0.2526  0.0678
 5617TIP3    H116857   4.373   3.295   0.243  0.3723  0.4163  0.4321
 5617TIP3    H216858   4.447   3.188   0.319  0.1440 -0.5866 -0.7299
 5618TIP3   OH216859   6.011   4.508   4.092 -0.4178  0.6512 -0.2527
 5618TIP3    H116860   6.007   4.413   4.102  0.5656  0.6933  0.8365
 5618TIP3    H216861   6.047   4.521   4.005  2.3155 -0.0902  0.6519
 5619TIP3   OH216862   3.111   1.123   5.126  0.2198  0.3558  0.4639
 5619TIP3    H116863   3.041   1.088   5.182  0.4341 -2.5616 -0.9139
 5619TIP3    H216864   3.103   1.218   5.134 -2.7784  0.1004  1.6983
 5620TIP3   OH216865   1.939   4.781   1.278  0.2739 -0.6864  0.1274
 5620TIP3    H116866   1.972   4.865   1.245  0.6185 -0.7814  0.2293
 5620TIP3    H216867   1.845   4.795   1.289  0.1142 -0.7183 -1.1017
 5621TIP3   OH216868   6.170   3.991   0.662 -0.4233 -0.1551  0.3778
 5621TIP3    H116869   6.199   3.931   0.730 -2.0240 -0.5984  0.7248
 5621TIP3    H216870   6.130   3.934   0.596  1.3817  0.2342 -1.1362
 5622TIP3   OH216871   2.004   5.532   4.330 -0.1820 -0.0105 -0.1473
 5622TIP3    H116872   1.925   5.479   4.317  1.4101 -2.3677 -0.7743
 5622TIP3    H216873   1.976   5.603   4.387 -2.2680 -2.0045  1.4765
 5623TIP3   OH216874   2.841   5.383   0.289 -0.7579  0.5009 -0.7367
 5623TIP3    H116875   2.824   5.320   0.219 -1.7673  1.0788 -1.0410
 5623TIP3    H216876   2.809   5.340   0.368  1.0083 -0.4309 -0.4906
 5624TIP3   OH216877   4.041   1.110   3.515 -0.1556 -0.1832 -0.3842
 5624TIP3    H116878   4.060   1.056   3.592  2.2610 -1.5851 -1.8450
 5624TIP3    H216879   3.951   1.089   3.492 -1.1183  0.6021  2.2316
 5625TIP3   OH216880   6.348   0.807   3.392 -0.2559  0.3624 -0.0164
 5625TIP3    H116881   6.312   0.776   3.308 -2.1338  0.9901  0.5097
 5625TIP3    H216882   6.285   0.872   3.423 -0.0485 -0.4301  2.2815
 5626TIP3   OH216883   6.141   1.408   0.721 -0.0455 -0.1709  0.6054
 5626TIP3    H116884   6.046   1.402   0.728 -0.0097 -0.2077  1.0456
 5626TIP3    H216885   6.173   1.320   0.741  0.1564  0.1621  1.7935
 5627TIP3   OH216886   5.341   0.221   0.777  0.0199  0.0923 -0.7221
 5627TIP3    H116887   5.309   0.275   0.704  1.2964  2.3600  0.2873
 5627TIP3    H216888   5.269   0.221   0.840  0.0494  0.7379 -0.6828
 5628TIP3   OH216889   3.753   1.450   4.739 -0.2047  0.2897  0.4569
 5628TIP3    H116890   3.797   1.387   4.681  1.2103 -0.0506  1.8343
 5628TIP3    H216891   3.809   1.527   4.737 -2.2936  1.8926 -1.7768
 5629TIP3   OH216892   5.303   2.522   1.225  0.3968  0.4396  0.2827
 5629TIP3    H116893   5.362   2.591   1.256  0.3214  0.4864  0.3234
 5629TIP3    H216894   5.361   2.457   1.185  0.2441  2.5350 -3.8782
 5630TIP3   OH216895   2.268   1.579   4.325 -0.3249  0.1713  0.2050
 5630TIP3    H116896   2.317   1.598   4.245 -1.1297  2.8001  0.2522
 5630TIP3    H216897   2.239   1.489   4.314  4.2015 -1.5549  0.0638
 5631TIP3   OH216898   0.169   3.265   3.467  0.5068 -0.0078 -0.2764
 5631TIP3    H116899   0.189   3.171   3.466 -0.5408 -0.2611  0.6731
 5631TIP3    H216900   0.218   3.300   3.393  2.9688 -0.8649  0.8408
 5632TIP3   OH216901   1.056   1.591   3.489 -0.2955 -0.2457 -0.1084
 5632TIP3    H116902   1.117   1.569   3.419  0.4977 -2.1727  1.1031
 5632TIP3    H216903   1.085   1.677   3.520  0.0671  0.0993 -1.3479
 5633TIP3   OH216904   5.352   0.682   2.599  0.3726  0.0139  0.6097
 5633TIP3    H116905   5.439   0.641   2.603  0.1625 -0.5347 -0.3069
 5633TIP3    H216906   5.368   0.773   2.625  1.0739 -0.2859  1.2971
 5634TIP3   OH216907   5.487   2.701   1.351 -0.4266 -0.6625  0.0164
 5634TIP3    H116908   5.468   2.759   1.425 -0.5670 -0.0017 -0.5320
 5634TIP3    H216909   5.528   2.624   1.391 -0.6495 -0.3863  0.7980
 5635TIP3   OH216910   0.234   5.197   0.735  0.0156  0.1221  0.2979
 5635TIP3    H116911   0.219   5.285   0.769  2.6397  0.2904  1.2862
 5635TIP3    H216912   0.167   5.143   0.776 -0.6305  1.3783  0.9421
 5636TIP3   OH216913   1.749   1.247   4.461 -0.4299  0.3846 -0.1075
 5636TIP3    H116914   1.710   1.230   4.376  1.3217  0.0371 -0.8783
 5636TIP3    H216915   1.702   1.323   4.495 -0.7336  0.9143 -1.6672
 5637TIP3   OH216916   0.996   0.246   2.666 -0.2562  0.3546 -0.2778
 5637TIP3    H116917   0.902   0.249   2.680 -0.0069  0.3126  1.6242
 5637TIP3    H216918   1.030   0.320   2.716  0.8525 -0.6202  0.4681
 5638TIP3   OH216919   4.750   2.013   3.774 -0.3466 -0.0258  0.4644
 5638TIP3    H116920   4.818   2.077   3.756 -1.6829  0.9538 -1.5487
 5638TIP3    H216921   4.774   1.937   3.721 -0.6571  0.2248 -0.0463
 5639TIP3   OH216922   0.686   5.167   1.815  0.2169  0.4148  0.4052
 5639TIP3    H116923   0.733   5.085   1.829  0.3157  0.3488 -0.2564
 5639TIP3    H216924   0.737   5.233   1.862 -0.1652  0.0194  1.4054
 5640TIP3   OH216925   3.059   3.059   4.522 -0.1743 -0.3849  0.0412
 5640TIP3    H116926   3.126   3.117   4.558 -0.2402  0.0069 -0.4674
 5640TIP3    H216927   2.993   3.053   4.591 -0.7111  1.0386 -0.3164
 5641TIP3   OH216928   4.705   3.229   2.268 -0.1584  0.1556  0.0382
 5641TIP3    H116929   4.661   3.191   2.192  1.1128 -1.6943  0.1574
 5641TIP3    H216930   4.760   3.158   2.302  1.7937  1.9069  0.7451
 5642TIP3   OH216931   5.400   5.906   3.425 -0.3590 -0.2426 -0.2693
 5642TIP3    H116932   5.444   5.978   3.470  2.5917 -2.0861  0.0892
 5642TIP3    H216933   5.392   5.935   3.334 -0.4892  1.0325  0.1335
 5643TIP3   OH216934   5.607   2.446   3.505  0.3161 -0.0160 -0.4654
 5643TIP3    H116935   5.514   2.456   3.489  0.8331  1.1742 -3.2545
 5643TIP3    H216936   5.645   2.531   3.484  2.1555 -0.7927 -0.5362
 5644TIP3   OH216937   3.750   1.301   0.415 -0.0839 -0.0705 -0.0338
 5644TIP3    H116938   3.703   1.351   0.349 -0.1057 -0.4867 -0.3410
 5644TIP3    H216939   3.689   1.233   0.442  0.0550 -0.1239  0.1513
 5645TIP3   OH216940   0.902   0.723   1.330 -0.0418  0.1541 -0.2305
 5645TIP3    H116941   0.911   0.781   1.254 -1.4162 -0.9912 -1.3316
 5645TIP3    H216942   0.983   0.671   1.329  0.1397  0.4347 -0.6745
 5646TIP3   OH216943   6.179   0.969   4.600 -0.1271 -0.7180 -0.1631
 5646TIP3    H116944   6.119   0.994   4.671 -1.4103 -2.4337 -0.5975
 5646TIP3    H216945   6.154   1.026   4.527 -0.5201 -0.7054 -0.0220
 5647TIP3   OH216946   5.363   5.468   5.169 -0.0022  0.2778  0.1251
 5647TIP3    H116947   5.291   5.407   5.185 -0.7356  0.2507 -2.6922
 5647TIP3    H216948   5.426   5.419   5.116 -0.1857  1.6367 -1.4491
 5648TIP3   OH216949   1.052   5.613   2.819  0.2662 -0.8637  0.7662
 5648TIP3    H116950   1.132   5.643   2.777 -0.7817 -0.0130 -0.7270
 5648TIP3    H216951   1.055   5.517   2.811  0.7118 -0.7868 -0.0928
 5649TIP3   OH216952   2.558   5.330   2.232  0.4127  0.2977  0.4674
 5649TIP3    H116953   2.572   5.385   2.155 -2.0990  2.2144  1.2419
 5649TIP3    H216954   2.644   5.294   2.251  1.8862  2.7030 -1.0550
 5650TIP3   OH216955   3.668   5.811   4.536  0.4197  0.0630  0.5149
 5650TIP3    H116956   3.719   5.737   4.503 -0.4429 -0.0945 -0.4993
 5650TIP3    H216957   3.646   5.862   4.459 -1.4986 -0.2270  0.8228
 5651TIP3   OH216958   4.365   0.431   0.072  0.0896  0.0192 -0.1858
 5651TIP3    H116959   4.270   0.423   0.068  0.0464  0.6208 -0.4247
 5651TIP3    H216960   4.394   0.349   0.112 -0.4635 -0.5293 -0.8867
 5652TIP3   OH216961   5.860   3.892   0.542 -0.2929  0.6454 -0.2892
 5652TIP3    H116962   5.875   3.808   0.584  1.7572  1.6286  1.0892
 5652TIP3    H216963   5.776   3.922   0.578  0.3273  0.4302  1.4180
 5653TIP3   OH216964   3.008   0.151   2.197  0.3296  0.3566  0.0462
 5653TIP3    H116965   2.975   0.178   2.111  1.1484 -1.5752 -0.9319
 5653TIP3    H216966   2.958   0.072   2.218 -0.7954  1.5185  2.0073
 5654TIP3   OH216967   2.968   0.401   3.535 -0.3189 -0.3921 -0.0486
 5654TIP3    H116968   2.895   0.364   3.486 -0.7408 -0.4922  0.6531
 5654TIP3    H216969   2.936   0.408   3.625  0.4161 -0.1204  0.1973
 5655TIP3   OH216970   3.757   2.095   3.521 -0.2956 -0.1106  0.2954
 5655TIP3    H116971   3.715   2.173   3.485  0.3004  0.3566  0.6019
 5655TIP3    H216972   3.687   2.029   3.522 -1.0083  0.6320  0.7469
 5656TIP3   OH216973   0.913   3.953   4.985 -0.4699 -0.3133 -0.2720
 5656TIP3    H116974   0.871   4.017   4.928  0.9322  1.6758  0.7804
 5656TIP3    H216975   0.841   3.911   5.032 -1.4626  3.2571  1.8052
 5657TIP3   OH216976   4.957   2.063   4.216  0.2781 -0.5102  0.2442
 5657TIP3    H116977   4.956   2.059   4.121  0.6740 -3.0953  0.2639
 5657TIP3    H216978   4.924   1.977   4.244 -2.1181  0.9806  2.4950
 5658TIP3   OH216979   1.096   3.962   4.791  0.5758 -0.7424 -0.2496
 5658TIP3    H116980   1.064   3.943   4.879  0.7911 -0.0721 -0.0165
 5658TIP3    H216981   1.106   4.057   4.790  0.2068 -0.7079 -1.1270
 5659TIP3   OH216982   4.784   5.682   4.275 -0.4697 -0.2273 -0.1161
 5659TIP3    H116983   4.786   5.631   4.356 -0.1417  1.3197  0.8842
 5659TIP3    H216984   4.757   5.770   4.302 -0.4926  0.2931 -1.7118
 5660TIP3   OH216985   4.961   4.269   1.988  0.0876  0.3563 -0.7795
 5660TIP3    H116986   4.935   4.301   1.902  0.3057  2.5517 -0.0819
 5660TIP3    H216987   5.036   4.212   1.970 -1.5082 -1.4172 -2.2452
 5661TIP3   OH216988   3.726   4.585   4.247 -0.6315 -0.3704  0.3592
 5661TIP3    H116989   3.725   4.597   4.152  2.3210 -1.2966  0.0963
 5661TIP3    H216990   3.809   4.622   4.275 -1.2643 -0.4666  2.5547
 5662TIP3   OH216991   6.118   2.703   3.426  0.2524  0.2558 -0.3230
 5662TIP3    H116992   6.085   2.780   3.472 -0.5077 -0.8462  1.0375
 5662TIP3    H216993   6.042   2.668   3.380  0.8219  0.8575 -1.8156
 5663TIP3   OH216994   4.409   2.644   1.039 -0.2636 -0.3803 -0.5392
 5663TIP3    H116995   4.412   2.732   1.076  0.2878 -0.4707 -0.3577
 5663TIP3    H216996   4.367   2.591   1.108  0.7083 -0.5366 -0.0473
 5664TIP3   OH216997   1.506   4.028   2.666  0.4982 -0.3220  0.4429
 5664TIP3    H116998   1.462   4.023   2.581  0.8538  1.5361  0.1209
 5664TIP3    H216999   1.480   3.947   2.711 -0.6012 -0.8019 -0.9868
 5665TIP3   OH217000   1.694   2.760   4.657  0.2682  0.4987 -0.3054
 5665TIP3    H117001   1.609   2.738   4.619  1.1437 -0.6302 -1.6871
 5665TIP3    H217002   1.676   2.837   4.711 -1.3206  1.3295 -1.8925
 5666TIP3   OH217003   0.412   1.242   0.550 -0.2210 -0.2268 -0.0246
 5666TIP3    H117004   0.474   1.303   0.591 -0.9752  0.1693  0.5308
 5666TIP3    H217005   0.419   1.261   0.456  1.1284 -0.7865 -0.0765
 5667TIP3   OH217006   5.317   3.625   2.496  0.2014 -0.2081 -0.2282
 5667TIP3    H117007   5.282   3.625   2.585 -0.6857  2.2323 -0.5009
 5667TIP3    H217008   5.243   3.600   2.440  0.8755 -2.2110 -0.3238
 5668TIP3   OH217009   4.503   1.572   0.953  0.1318  0.3245 -0.4063
 5668TIP3    H117010   4.425   1.613   0.914 -1.1603 -2.6196 -1.1963
 5668TIP3    H217011   4.469   1.494   0.997  2.1313  1.2348  3.1322
 5669TIP3   OH217012   3.303   5.197   2.812  0.1354 -0.1915  0.2693
 5669TIP3    H117013   3.310   5.180   2.718  0.9453 -2.5507  0.6745
 5669TIP3    H217014   3.382   5.247   2.834  0.5933 -0.7442 -0.1061
 5670TIP3   OH217015   3.176   2.866   0.105  0.4842  0.0537 -0.5896
 5670TIP3    H117016   3.121   2.796   0.139  2.5229 -0.3363  2.2726
 5670TIP3    H217017   3.251   2.821   0.065  1.0715  0.5617 -0.0820
 5671TIP3   OH217018   4.945   4.198   3.263  0.0693  0.6125 -0.7723
 5671TIP3    H117019   4.965   4.117   3.216 -1.1334  0.9207 -1.8761
 5671TIP3    H217020   5.013   4.204   3.331  0.3396 -1.1597 -0.8398
 5672TIP3   OH217021   2.456   3.693   0.633 -0.3450 -0.1749  0.3446
 5672TIP3    H117022   2.423   3.640   0.706 -0.9004  1.5580  1.4057
 5672TIP3    H217023   2.419   3.780   0.648  0.1195  0.4050 -1.6283
 5673TIP3   OH217024   2.663   4.073   2.707 -0.4340 -0.3605  0.3398
 5673TIP3    H117025   2.666   3.978   2.713 -0.5667 -0.3513  0.5313
 5673TIP3    H217026   2.585   4.099   2.755 -0.4101 -0.1552  0.2723
 5674TIP3   OH217027   1.278   3.808   1.022  0.0944  0.2671  0.0472
 5674TIP3    H117028   1.226   3.774   1.096  0.7326  0.0407  0.4004
 5674TIP3    H217029   1.344   3.740   1.007  1.5277  1.4008  0.8889
 5675TIP3   OH217030   5.595   1.646   4.878 -0.2026  0.2490  0.0098
 5675TIP3    H117031   5.508   1.663   4.841 -0.4949 -2.0797 -0.5286
 5675TIP3    H217032   5.586   1.563   4.924  1.9665 -0.5309 -0.8395
 5676TIP3   OH217033   5.354   4.211   2.898  0.8535  0.1630 -0.5688
 5676TIP3    H117034   5.409   4.137   2.874 -0.6286 -1.1005 -0.2128
 5676TIP3    H217035   5.406   4.259   2.964  1.5503 -0.9429 -0.2798
 5677TIP3   OH217036   5.397   1.482   2.965 -0.1674 -0.2130 -0.4832
 5677TIP3    H117037   5.393   1.444   2.878 -1.0434  0.8695 -0.9324
 5677TIP3    H217038   5.452   1.422   3.015 -1.3746 -1.9821 -1.1944
 5678TIP3   OH217039   3.603   1.143   1.652  0.8091  0.2150  0.1440
 5678TIP3    H117040   3.637   1.062   1.689  2.1350  0.3002 -0.8446
 5678TIP3    H217041   3.632   1.142   1.561  1.1231  1.9522  0.1994
 5679TIP3   OH217042   0.632   1.208   4.533  0.1308 -0.6234  0.0632
 5679TIP3    H117043   0.671   1.268   4.469 -0.2819 -0.7856 -0.3467
 5679TIP3    H217044   0.538   1.222   4.525  0.0980 -0.1506  1.1289
 5680TIP3   OH217045   1.860   4.699   4.691  0.0455  0.1595 -0.2323
 5680TIP3    H117046   1.924   4.721   4.623  1.4153 -0.4642  0.8153
 5680TIP3    H217047   1.827   4.784   4.720  3.5026  0.9134  2.0759
 5681TIP3   OH217048   0.631   0.310   1.291  0.0275  0.0655 -0.2213
 5681TIP3    H117049   0.550   0.308   1.241  0.1193  0.5532 -0.3959
 5681TIP3    H217050   0.631   0.395   1.335 -0.7328 -0.9142  1.7879
 5682TIP3   OH217051   4.512   3.708   1.590 -0.1310  0.8154 -0.3913
 5682TIP3    H117052   4.569   3.773   1.548 -0.7702 -0.0896 -2.8238
 5682TIP3    H217053   4.534   3.626   1.547 -1.6299  0.0151  0.2986
 5683TIP3   OH217054   5.823   3.773   1.469  0.0575 -0.1025 -0.1564
 5683TIP3    H117055   5.841   3.783   1.563 -2.8429  1.3406  0.3716
 5683TIP3    H217056   5.893   3.716   1.437  2.0213  0.5761  2.5506
 5684TIP3   OH217057   2.714   4.175   3.874 -0.2735  0.5721 -0.0282
 5684TIP3    H117058   2.792   4.187   3.819 -0.5481  1.1540 -0.2978
 5684TIP3    H217059   2.734   4.098   3.928  2.1435  2.8603  2.6945
 5685TIP3   OH217060   3.875   3.005   1.757 -0.2545 -0.3235  0.0442
 5685TIP3    H117061   3.851   2.968   1.672 -2.6806  0.0743  0.4637
 5685TIP3    H217062   3.860   3.099   1.747  0.0151 -0.2013  0.7302
 5686TIP3   OH217063   4.709   5.690   2.362 -0.1814  0.1628 -0.1824
 5686TIP3    H117064   4.635   5.741   2.396 -1.2791 -1.1123 -0.5524
 5686TIP3    H217065   4.682   5.666   2.273  0.7184 -0.2510 -0.3502
 5687TIP3   OH217066   2.143   4.564   0.649  0.0808 -0.0982 -0.1183
 5687TIP3    H117067   2.103   4.582   0.735  0.0420  0.9331 -0.3364
 5687TIP3    H217068   2.070   4.569   0.587  0.1284 -0.7221 -0.2245
 5688TIP3   OH217069   5.389   5.415   4.591 -1.0651 -0.1624 -0.2809
 5688TIP3    H117070   5.344   5.350   4.645  0.3392 -0.9235  0.0311
 5688TIP3    H217071   5.482   5.406   4.616 -0.3789 -0.4226 -2.6883
 5689TIP3   OH217072   4.527   1.675   3.983 -0.6265 -0.5023 -0.1432
 5689TIP3    H117073   4.568   1.614   3.922  0.0201 -0.7885  0.5696
 5689TIP3    H217074   4.451   1.709   3.935  0.7054  0.4403 -1.6988
 5690TIP3   OH217075   5.798   1.983   1.536 -0.0817  0.2496 -0.6098
 5690TIP3    H117076   5.877   1.966   1.484 -0.3204 -1.6452 -0.4252
 5690TIP3    H217077   5.798   2.078   1.549  1.2799  0.4813 -1.9987
 5691TIP3   OH217078   1.491   0.416   3.804 -0.0644  0.0860 -0.4065
 5691TIP3    H117079   1.583   0.389   3.807 -0.3263 -0.9922 -1.3302
 5691TIP3    H217080   1.495   0.511   3.793  0.9405  0.0750 -0.2729
 5692TIP3   OH217081   3.421   1.214   3.030 -0.2081  0.0867 -0.3335
 5692TIP3    H117082   3.429   1.308   3.017 -0.2184 -0.0091 -1.0877
 5692TIP3    H217083   3.494   1.176   2.980 -0.7101 -0.3494 -0.7534
 5693TIP3   OH217084   0.649   3.825   0.711 -0.1815  0.0817  0.1480
 5693TIP3    H117085   0.601   3.893   0.758 -1.4997 -0.1844 -0.7429
 5693TIP3    H217086   0.583   3.758   0.692  0.2576  0.1765 -2.0249
 5694TIP3   OH217087   0.512   1.269   1.899  0.1156  0.2667  0.3071
 5694TIP3    H117088   0.515   1.183   1.858 -0.7668  1.0550 -1.5277
 5694TIP3    H217089   0.578   1.320   1.853 -0.8626  1.1606 -0.1459
 5695TIP3   OH217090   5.567   0.352   0.872 -0.4162 -0.6549 -0.2305
 5695TIP3    H117091   5.531   0.441   0.869  0.5867 -0.2311 -0.1261
 5695TIP3    H217092   5.494   0.296   0.846 -1.3054  0.1221  0.4970
 5696TIP3   OH217093   0.323   1.837   4.718 -0.2605 -0.7482 -0.0766
 5696TIP3    H117094   0.377   1.839   4.639 -0.3581  0.7937 -0.1302
 5696TIP3    H217095   0.264   1.912   4.709  0.5584  0.2218  2.0275
 5697TIP3   OH217096   4.771   5.313   3.316 -0.1231  0.1514 -0.5198
 5697TIP3    H117097   4.847   5.367   3.295  1.4797 -0.9691  1.9758
 5697TIP3    H217098   4.782   5.234   3.264  0.1536  0.2024 -0.5414
 5698TIP3   OH217099   0.789   5.334   1.571  0.3388 -0.2895  0.5267
 5698TIP3    H117100   0.732   5.396   1.618  1.3693  1.3644 -0.3040
 5698TIP3    H217101   0.843   5.390   1.516  0.2970 -2.0589 -1.3968
 5699TIP3   OH217102   2.644   0.690   3.837 -0.5355  0.0456 -0.1873
 5699TIP3    H117103   2.701   0.766   3.832  0.7325 -0.8670  0.0812
 5699TIP3    H217104   2.606   0.694   3.925 -3.0632  2.1206 -1.2293
 5700TIP3   OH217105   3.789   2.587   4.747 -0.1888 -0.7241 -1.1005
 5700TIP3    H117106   3.789   2.679   4.774 -1.2691 -1.0268  0.0201
 5700TIP3    H217107   3.832   2.587   4.662 -0.2272  0.8280 -1.1437
 5701TIP3   OH217108   5.020   4.546   1.341 -0.6317  0.1743  0.6955
 5701TIP3    H117109   5.058   4.614   1.396  2.0841  1.1938 -2.1433
 5701TIP3    H217110   4.974   4.594   1.273  0.1135 -0.8280 -0.5538
 5702TIP3   OH217111   4.416   5.840   3.475 -0.3757 -0.0189  0.6099
 5702TIP3    H117112   4.366   5.827   3.556 -0.9088 -0.0964  0.2763
 5702TIP3    H217113   4.507   5.843   3.503 -0.5238 -0.4991  1.1644
 5703TIP3   OH217114   2.803   4.850   0.135 -0.1842 -0.1409 -0.5234
 5703TIP3    H117115   2.811   4.945   0.127 -1.6432  0.0585  0.2306
 5703TIP3    H217116   2.809   4.818   0.045 -2.4409  0.9128 -1.0970
 5704TIP3   OH217117   2.980   2.348  -0.006 -0.6098  0.5358  0.1996
 5704TIP3    H117118   2.948   2.301   0.071 -0.3599  1.1675  0.6950
 5704TIP3    H217119   2.957   2.440   0.011 -1.7302  0.5260 -1.0710
 5705TIP3   OH217120   1.408   4.297   2.530 -0.2075 -0.2007  0.1171
 5705TIP3    H117121   1.399   4.204   2.551  0.9423 -0.3929 -0.1932
 5705TIP3    H217122   1.452   4.298   2.445  3.1333  0.5917  1.6935
 5706TIP3   OH217123   1.234   2.316   3.409 -0.6910 -0.4769 -0.1079
 5706TIP3    H117124   1.198   2.262   3.339  0.0922 -1.6316  0.3403
 5706TIP3    H217125   1.324   2.283   3.420 -0.7683 -0.2562  1.3587
 5707TIP3   OH217126   4.499   1.904   1.358  0.4078 -0.1974 -0.7081
 5707TIP3    H117127   4.427   1.957   1.391  1.1404 -0.8418  2.2562
 5707TIP3    H217128   4.474   1.813   1.377  0.4928 -0.7626 -2.9395
 5708TIP3   OH217129   1.492   1.732   3.037 -0.1207  0.0128  0.1703
 5708TIP3    H117130   1.537   1.653   3.068 -0.0841 -0.3228 -0.6831
 5708TIP3    H217131   1.542   1.758   2.959 -0.8672  0.1515 -0.2742
 5709TIP3   OH217132   5.908   4.787   2.231 -0.1278 -0.0259 -0.3447
 5709TIP3    H117133   5.941   4.811   2.144  2.8334  0.6692  0.8294
 5709TIP3    H217134   5.973   4.824   2.291 -1.6786 -1.1350  2.1343
 5710TIP3   OH217135   5.415   1.592   0.882  0.5112 -0.5210  0.9168
 5710TIP3    H117136   5.340   1.540   0.852  0.3344  1.1749 -1.9833
 5710TIP3    H217137   5.385   1.682   0.879  1.9262  0.0454  2.2284
 5711TIP3   OH217138   4.496   5.875   1.353 -0.5473  0.2061  0.0951
 5711TIP3    H117139   4.534   5.848   1.436 -2.1057 -3.5353 -0.2076
 5711TIP3    H217140   4.409   5.908   1.376 -0.9438 -0.7438 -0.0161
 5712TIP3   OH217141   3.656   0.131   0.740 -0.1672 -0.1044 -0.2309
 5712TIP3    H117142   3.588   0.118   0.806 -0.5041 -2.5263 -0.9622
 5712TIP3    H217143   3.730   0.078   0.770  0.5942  0.7479 -0.5572
 5713TIP3   OH217144   0.504   5.337   0.716 -0.5155 -0.0079 -0.4231
 5713TIP3    H117145   0.504   5.339   0.620 -1.8299  0.9938 -0.4259
 5713TIP3    H217146   0.436   5.274   0.738  2.0136 -2.8711 -0.0873
 5714TIP3   OH217147   4.168   0.033   4.238  0.2389  0.0790 -0.5302
 5714TIP3    H117148   4.091   0.071   4.197 -0.0573  1.6052  1.2914
 5714TIP3    H217149   4.148  -0.060   4.247 -1.0903  0.3310 -0.7076
 5715TIP3   OH217150   0.265   3.967   0.963 -0.2850 -0.2896 -0.0795
 5715TIP3    H117151   0.297   4.004   1.045 -0.5763 -2.4296  1.0943
 5715TIP3    H217152   0.192   4.023   0.937  1.7504  2.2787 -0.6412
 5716TIP3   OH217153   1.899   4.003   4.502  0.1131  0.9380 -0.4870
 5716TIP3    H117154   1.969   4.067   4.517  0.1644  0.6626  0.5035
 5716TIP3    H217155   1.943   3.929   4.460  1.0886 -0.4563  2.6302
 5717TIP3   OH217156   0.750   1.178   0.919 -0.2589  0.1741 -0.3746
 5717TIP3    H117157   0.661   1.145   0.905  0.4967 -1.6350 -1.2187
 5717TIP3    H217158   0.757   1.253   0.860 -1.5708  1.0492  0.5394
 5718TIP3   OH217159   4.450   0.740   3.847  0.3542  0.4073 -0.2745
 5718TIP3    H117160   4.465   0.792   3.925 -0.7753  0.9702 -0.4199
 5718TIP3    H217161   4.522   0.676   3.847  1.6503  1.8160 -0.0000
 5719TIP3   OH217162   3.633   1.936   4.759  1.1075 -0.2861  0.1058
 5719TIP3    H117163   3.543   1.969   4.760  1.2863  0.2268 -0.3813
 5719TIP3    H217164   3.631   1.864   4.696  1.1667  0.1191 -0.3683
 5720TIP3   OH217165   0.381   1.198   1.184  0.1095 -0.2394  0.1481
 5720TIP3    H117166   0.367   1.110   1.217  1.1252 -0.2277  0.6486
 5720TIP3    H217167   0.476   1.207   1.179  0.0032  0.4125 -1.0400
 5721TIP3   OH217168   0.363   5.762   1.294  0.0827 -0.4720  0.3048
 5721TIP3    H117169   0.340   5.819   1.220 -0.8773 -0.3253  0.7072
 5721TIP3    H217170   0.459   5.766   1.298  0.2281 -1.2599 -1.5290
 5722TIP3   OH217171   6.141   4.253   2.846  0.4486  0.1892  0.0167
 5722TIP3    H117172   6.127   4.345   2.869  2.0638  0.4746 -0.0033
 5722TIP3    H217173   6.160   4.210   2.929 -0.6382 -0.2048  0.0687
 5723TIP3   OH217174   0.465   2.302   1.099 -0.3708  0.2588 -0.1711
 5723TIP3    H117175   0.441   2.337   1.185  0.2175 -1.0094  0.5313
 5723TIP3    H217176   0.557   2.324   1.089  0.3439 -2.0266  0.8085
 5724TIP3   OH217177   1.925   3.562   1.047  0.1126  0.3075  0.2190
 5724TIP3    H117178   1.873   3.614   0.986 -0.1539  1.4344  1.3370
 5724TIP3    H217179   2.015   3.576   1.019 -0.1072 -1.0504 -1.2784
 5725TIP3   OH217180   2.184   4.095   0.860  0.0551  0.0528 -0.5025
 5725TIP3    H117181   2.128   4.132   0.928 -0.3107  1.3238 -1.4558
 5725TIP3    H217182   2.177   4.157   0.787 -1.8518 -2.6589 -2.8329
 5726TIP3   OH217183   3.118   1.438   2.588  0.0163  0.2057  0.5583
 5726TIP3    H117184   3.174   1.396   2.653 -0.7856 -2.2130 -0.2228
 5726TIP3    H217185   3.167   1.430   2.506 -0.9074 -0.8656  0.0846
 5727TIP3   OH217186   2.995   5.856   2.786 -0.1232  0.2719  0.0504
 5727TIP3    H117187   3.019   5.841   2.694 -0.6242 -2.5480  0.2970
 5727TIP3    H217188   3.078   5.876   2.829  0.6101 -1.3550 -0.5246
 5728TIP3   OH217189   1.044   3.922   0.890 -0.5520 -0.5513 -0.5013
 5728TIP3    H117190   1.094   3.864   0.948 -1.0846 -1.2580 -0.7373
 5728TIP3    H217191   1.083   4.008   0.904 -0.6765 -0.6928  0.9158
 5729TIP3   OH217192   4.123   5.377   3.826  0.1662  0.3101 -0.4081
 5729TIP3    H117193   4.028   5.387   3.820  0.0420 -0.0740  0.6929
 5729TIP3    H217194   4.147   5.330   3.746 -0.9805 -2.2386  0.6169
 5730TIP3   OH217195   2.128   0.322   3.622 -0.0828 -0.1719  0.4222
 5730TIP3    H117196   2.149   0.245   3.570  0.5316 -0.1631  0.6450
 5730TIP3    H217197   2.191   0.389   3.593 -0.1162  0.0101  0.7584
 5731TIP3   OH217198   1.010   5.813   1.570  0.1509  0.7793  0.1976
 5731TIP3    H117199   1.099   5.849   1.575  0.5985 -0.4043  1.0561
 5731TIP3    H217200   0.974   5.851   1.489  1.5294  1.0398 -0.3279
 5732TIP3   OH217201   5.108   2.306   1.065  0.0573  0.3929  0.1530
 5732TIP3    H117202   5.144   2.222   1.095  0.4179 -0.3323 -2.1030
 5732TIP3    H217203   5.016   2.287   1.048 -0.0245  0.6454  0.3254
 5733TIP3   OH217204   2.392   1.479   4.575  0.2354  0.5312 -0.1014
 5733TIP3    H117205   2.373   1.536   4.500 -3.0793 -1.1223 -0.7266
 5733TIP3    H217206   2.484   1.455   4.565  0.0074  0.5914 -3.5683
 5734TIP3   OH217207   3.498   3.810   2.724 -0.0044  0.3414  0.1628
 5734TIP3    H117208   3.428   3.798   2.661 -1.1838  1.4747  1.1918
 5734TIP3    H217209   3.486   3.739   2.788  1.5669 -1.1898 -1.1212
 5735TIP3   OH217210   5.071   0.888   1.676  0.3654 -0.3623  0.0798
 5735TIP3    H117211   5.149   0.902   1.729 -0.7327  3.1915  1.0505
 5735TIP3    H217212   5.105   0.873   1.588  2.2177  1.4530  0.3992
 5736TIP3   OH217213   4.974   2.789   4.305 -0.4890 -0.0124 -0.7991
 5736TIP3    H117214   4.936   2.744   4.381  2.0065 -2.2347 -0.7190
 5736TIP3    H217215   4.984   2.720   4.239  0.7075  1.0849 -1.8175
 5737TIP3   OH217216   0.807   0.165   4.849 -0.1674  0.3617  0.4499
 5737TIP3    H117217   0.778   0.077   4.871  0.6236  0.1104  0.4835
 5737TIP3    H217218   0.732   0.203   4.802 -0.5235 -0.3100  0.4613
 5738TIP3   OH217219   0.168   5.186   2.173 -0.0377  0.9496 -0.7510
 5738TIP3    H117220   0.122   5.263   2.208 -1.9492 -0.4453 -0.0303
 5738TIP3    H217221   0.100   5.135   2.129  1.0580 -0.6297 -0.6851
 5739TIP3   OH217222   6.176   3.202   1.227  0.4343  0.6376 -0.0214
 5739TIP3    H117223   6.216   3.285   1.205  0.5972  0.4063 -0.6126
 5739TIP3    H217224   6.094   3.226   1.271  1.3018  1.1119  1.4100
 5740TIP3   OH217225   2.487   5.560   4.912 -0.2272  0.3387  0.5815
 5740TIP3    H117226   2.461   5.469   4.898 -1.3396  0.4751  1.6182
 5740TIP3    H217227   2.506   5.593   4.824 -3.0490  0.0167 -0.2633
 5741TIP3   OH217228   1.991   3.326   4.313  0.1784 -0.1863  0.7629
 5741TIP3    H117229   1.914   3.371   4.347  0.5199  0.0770  1.2022
 5741TIP3    H217230   1.956   3.251   4.265 -0.4539  1.0138 -0.7344
 5742TIP3   OH217231   3.031   5.263   3.481  0.5373  0.2275  0.0104
 5742TIP3    H117232   2.955   5.320   3.484  0.9855  0.8898 -0.8974
 5742TIP3    H217233   3.065   5.263   3.571 -0.6764 -0.2937  0.4870
 5743TIP3   OH217234   1.903   5.292   0.944  0.6923 -0.0388  0.1180
 5743TIP3    H117235   1.969   5.348   0.903 -0.4908  1.0205 -0.4290
 5743TIP3    H217236   1.939   5.203   0.937  3.3810  0.7061  2.4760
 5744TIP3   OH217237   0.961   1.272   1.187 -0.0600  0.2279 -0.6576
 5744TIP3    H117238   1.044   1.300   1.225 -0.1548  1.7042 -1.4622
 5744TIP3    H217239   0.896   1.326   1.230 -0.7331 -1.3904  0.4677
 5745TIP3   OH217240   6.180   0.412   4.303  0.0905  0.1610  0.1401
 5745TIP3    H117241   6.247   0.465   4.259 -1.1642  0.5369 -1.4049
 5745TIP3    H217242   6.109   0.473   4.320 -1.8077 -1.0936 -2.5554
 5746TIP3   OH217243   5.183   5.540   3.600  0.0718  0.0887 -0.2831
 5746TIP3    H117244   5.218   5.627   3.616 -0.0104 -0.1701  1.5309
 5746TIP3    H217245   5.259   5.483   3.597  0.0042 -0.2915  2.4326
 5747TIP3   OH217246   3.645   1.722   4.569  0.0766  0.1517 -0.1278
 5747TIP3    H117247   3.676   1.674   4.492 -1.1789  1.5883 -1.6085
 5747TIP3    H217248   3.603   1.656   4.624  0.1420 -0.7625 -1.1497
 5748TIP3   OH217249   3.119   3.415   0.930 -0.5444  0.1439 -0.4095
 5748TIP3    H117250   3.030   3.390   0.905 -0.4377  1.2090 -2.0172
 5748TIP3    H217251   3.172   3.339   0.907 -0.8494  0.0273 -0.7459
 5749TIP3   OH217252   1.634   4.045   4.947  0.4660 -0.5149 -0.2138
 5749TIP3    H117253   1.643   4.139   4.961  1.0581 -0.4206 -1.1324
 5749TIP3    H217254   1.712   4.020   4.898 -0.0097 -1.3612 -0.5675
 5750TIP3   OH217255   1.721   4.199   3.888  0.1438 -0.1915 -0.0807
 5750TIP3    H117256   1.635   4.207   3.847 -1.5689  0.9158  3.2943
 5750TIP3    H217257   1.779   4.253   3.835 -1.5622  0.1171 -1.7065
 5751TIP3   OH217258   3.668   5.348   3.070  0.0977 -0.4662 -0.0641
 5751TIP3    H117259   3.751   5.299   3.077  0.8764  0.9214  0.8887
 5751TIP3    H217260   3.623   5.328   3.152 -1.3773 -2.6109 -1.2922
 5752TIP3   OH217261   5.831   1.666   3.646  0.0347 -0.1193 -0.0329
 5752TIP3    H117262   5.893   1.614   3.595  0.7697  1.5625 -0.9419
 5752TIP3    H217263   5.771   1.602   3.683  0.7145 -1.5779 -1.3213
 5753TIP3   OH217264   5.493   4.599   4.262 -0.0495  0.1079 -0.9589
 5753TIP3    H117265   5.556   4.541   4.221 -0.5548 -0.5440 -0.8296
 5753TIP3    H217266   5.527   4.613   4.351  0.9326  1.3530 -1.5028
 5754TIP3   OH217267   2.092   3.800   4.360  0.0987  0.2650  0.1334
 5754TIP3    H117268   2.169   3.851   4.387  1.4589 -0.5989 -1.8246
 5754TIP3    H217269   2.127   3.735   4.299 -2.0837 -0.7923 -0.0890
 5755TIP3   OH217270   0.282   2.016   2.932 -0.8962  0.2274  0.1613
 5755TIP3    H117271   0.291   2.035   2.839 -0.0905  2.3861  0.6286
 5755TIP3    H217272   0.339   2.080   2.976 -1.6676 -0.3738  2.1690
 5756TIP3   OH217273   3.640   3.116   4.738 -0.0380 -0.3009  1.1564
 5756TIP3    H117274   3.680   3.167   4.808  0.5171  2.7433 -1.1548
 5756TIP3    H217275   3.549   3.147   4.734 -0.0761 -0.4750  0.5774
 5757TIP3   OH217276   3.459   1.667   0.588 -0.0397  0.3480 -0.4808
 5757TIP3    H117277   3.546   1.628   0.579 -1.2426 -3.1026  1.0816
 5757TIP3    H217278   3.414   1.646   0.506  0.0679  0.7092 -0.6364
 5758TIP3   OH217279   0.652   5.513   1.988 -0.1774  0.2983  0.0553
 5758TIP3    H117280   0.593   5.588   1.982 -0.7989 -0.1617  0.2295
 5758TIP3    H217281   0.608   5.453   2.048 -0.4604 -0.8873 -1.2720
 5759TIP3   OH217282   2.568   4.783   2.920  0.5997 -0.1235  0.3165
 5759TIP3    H117283   2.601   4.871   2.938  2.5046 -0.2690 -1.8945
 5759TIP3    H217284   2.619   4.726   2.978  0.8778  0.0792  0.2742
 5760TIP3   OH217285   3.921   3.865   4.950 -0.1763  0.2049 -0.2427
 5760TIP3    H117286   3.927   3.903   5.038 -0.7057  1.2928 -0.6572
 5760TIP3    H217287   4.006   3.885   4.910 -0.6175  1.4399 -0.6233
 5761TIP3   OH217288   2.882   1.730   3.973 -0.5523  0.0983  0.3381
 5761TIP3    H117289   2.931   1.765   4.047 -0.0110  0.8380 -0.3381
 5761TIP3    H217290   2.932   1.653   3.946 -0.3067  0.2762  0.2711
 5762TIP3   OH217291   4.880   1.341   1.790 -0.3306  0.1303 -0.1403
 5762TIP3    H117292   4.900   1.426   1.750 -1.4755 -0.0208 -1.0670
 5762TIP3    H217293   4.798   1.314   1.750  1.4088 -2.8074 -2.0600
 5763TIP3   OH217294   3.971   0.411   1.775  0.2260 -0.2098 -0.3219
 5763TIP3    H117295   3.911   0.337   1.767 -2.1318  1.6201 -0.9145
 5763TIP3    H217296   4.000   0.428   1.685  0.0245  0.1365 -0.3233
 5764TIP3   OH217297   2.170   5.784   2.980 -0.1099 -0.0388 -1.0640
 5764TIP3    H117298   2.102   5.740   2.929 -1.1709  2.0179 -1.5325
 5764TIP3    H217299   2.221   5.712   3.019 -1.7333 -1.6508 -1.7512
 5765TIP3   OH217300   1.248   0.776   2.731  0.2009 -0.0311 -0.3952
 5765TIP3    H117301   1.268   0.690   2.768 -4.1196 -0.8780  0.4317
 5765TIP3    H217302   1.242   0.834   2.807 -2.4349 -0.3661 -0.2637
 5766TIP3   OH217303   5.483   5.049   4.658  0.0964  0.2056  0.4566
 5766TIP3    H117304   5.526   5.098   4.728  1.7328  0.0798 -0.4017
 5766TIP3    H217305   5.479   5.110   4.584 -2.4665  0.6472  0.8831
 5767TIP3   OH217306   4.845   2.021   0.428  0.1189  0.0684 -0.0385
 5767TIP3    H117307   4.869   2.094   0.485  0.3078  1.1678 -1.4618
 5767TIP3    H217308   4.762   2.049   0.388 -0.2841 -0.9196  0.0692
 5768TIP3   OH217309   1.755   2.870   0.494 -0.4310 -0.0180 -0.4517
 5768TIP3    H117310   1.731   2.794   0.546 -0.2259 -0.3694 -0.8726
 5768TIP3    H217311   1.684   2.933   0.510 -0.5514 -0.2532 -0.0315
 5769TIP3   OH217312   2.140   0.268   0.148  0.8141 -0.4582 -0.1300
 5769TIP3    H117313   2.131   0.268   0.243  0.3396  0.3768 -0.1681
 5769TIP3    H217314   2.220   0.318   0.131  1.6198 -1.7132 -0.1214
 5770TIP3   OH217315   3.916   5.557   2.655  0.1327 -0.1558  0.3967
 5770TIP3    H117316   3.928   5.610   2.576  0.5002 -0.5018  0.2132
 5770TIP3    H217317   3.823   5.562   2.675  0.0898  0.1731  0.1071
 5771TIP3   OH217318   4.130   4.060   1.092  0.2260 -0.0809 -0.2603
 5771TIP3    H117319   4.144   4.108   1.174  1.5114  2.3686 -1.7752
 5771TIP3    H217320   4.036   4.065   1.077 -0.1254 -1.1150  1.3047
 5772TIP3   OH217321   5.122   0.663   3.531 -0.1999 -0.5062 -0.1841
 5772TIP3    H117322   5.089   0.715   3.458  1.3445  0.9385  0.1020
 5772TIP3    H217323   5.062   0.681   3.603 -1.3156 -1.3805 -0.8678
 5773TIP3   OH217324   3.007   3.743   4.954  0.4046 -0.5465 -0.0216
 5773TIP3    H117325   2.961   3.686   5.016 -1.1101 -1.5521 -1.9667
 5773TIP3    H217326   3.095   3.704   4.948  0.5672 -0.4541  1.4199
 5774TIP3   OH217327   5.510   0.346   3.083 -0.1102 -0.7609  0.1951
 5774TIP3    H117328   5.601   0.377   3.079 -0.0478 -1.0722 -1.2854
 5774TIP3    H217329   5.458   0.421   3.053 -0.2260 -0.9884 -0.1828
 5775TIP3   OH217330   0.860   1.019   1.112 -0.1293 -0.3261 -0.0500
 5775TIP3    H117331   0.817   1.069   1.043 -2.5352 -0.6626  1.0941
 5775TIP3    H217332   0.894   1.086   1.172 -0.7546 -0.0350 -0.0120
 5776TIP3   OH217333   0.322   1.695   3.319 -0.2401  0.2353 -0.0751
 5776TIP3    H117334   0.227   1.703   3.326 -0.2381  0.6690 -0.4612
 5776TIP3    H217335   0.352   1.783   3.294  0.0344 -0.3960 -2.1650
 5777TIP3   OH217336   3.419   4.986   0.254  0.0794 -0.2574  0.2450
 5777TIP3    H117337   3.329   5.001   0.283 -0.2412 -1.5770  0.0019
 5777TIP3    H217338   3.422   5.022   0.165 -0.3337 -0.5486  0.1071
 5778TIP3   OH217339   4.545   4.779   3.137  0.5605  0.1165  1.0694
 5778TIP3    H117340   4.485   4.708   3.159  0.1742  0.6533  1.7888
 5778TIP3    H217341   4.627   4.735   3.116  0.4980 -0.5148  2.0729
 5779TIP3   OH217342   2.980   3.205   2.241  0.1089 -0.5519 -0.0981
 5779TIP3    H117343   3.011   3.140   2.178 -0.6621  0.0638 -1.1435
 5779TIP3    H217344   2.904   3.164   2.282  0.9388 -1.1740  0.8571
 5780TIP3   OH217345   2.418   2.106   2.611 -0.0359 -0.2435  0.6754
 5780TIP3    H117346   2.465   2.081   2.531  1.5302  1.8125  0.8543
 5780TIP3    H217347   2.327   2.116   2.584  0.5472  0.8916 -1.0215
 5781TIP3   OH217348   4.035   2.208   0.140  0.4226 -0.1149  0.2145
 5781TIP3    H117349   3.967   2.146   0.167  0.7918 -0.3670  0.5828
 5781TIP3    H217350   3.998   2.253   0.064 -0.3081  0.0268  0.6437
 5782TIP3   OH217351   3.453   2.081   2.850  0.4287 -0.1251  0.7414
 5782TIP3    H117352   3.489   2.030   2.923  2.2527 -0.3131 -0.2424
 5782TIP3    H217353   3.503   2.162   2.851  0.1608  0.0542 -0.0500
 5783TIP3   OH217354   0.491   2.707   3.197 -0.3790  0.1360  0.2141
 5783TIP3    H117355   0.396   2.707   3.187 -0.3253  0.8798 -0.3390
 5783TIP3    H217356   0.523   2.765   3.128  0.3285  1.6928  1.7773
 5784TIP3   OH217357   1.049   0.720   3.725  0.2289  0.5215 -0.2769
 5784TIP3    H117358   1.037   0.646   3.666 -2.9948  0.5394  0.1361
 5784TIP3    H217359   1.095   0.684   3.800 -0.0310 -0.7405 -0.6973
 5785TIP3   OH217360   5.902   5.220   4.094 -0.4293 -0.3852 -0.2232
 5785TIP3    H117361   5.932   5.298   4.140 -0.6764 -0.6263  0.3529
 5785TIP3    H217362   5.952   5.148   4.132 -0.0444 -0.4860 -0.9028
 5786TIP3   OH217363   2.739   0.421   3.048 -0.2141  0.2481  0.5310
 5786TIP3    H117364   2.800   0.486   3.083 -0.3477  0.1437  0.9591
 5786TIP3    H217365   2.793   0.345   3.028 -0.1650  0.2409  0.6891
 5787TIP3   OH217366   4.334   1.085   0.898  0.0180 -0.0932  0.4077
 5787TIP3    H117367   4.416   1.036   0.888  0.7001  0.9906  0.5213
 5787TIP3    H217368   4.362   1.172   0.926 -1.2310  0.0230  1.3733
 5788TIP3   OH217369   3.546   3.116   1.528 -0.5729 -0.6453  0.7873
 5788TIP3    H117370   3.466   3.135   1.479 -0.5662 -0.7982  0.7161
 5788TIP3    H217371   3.539   3.171   1.606 -0.5452 -0.3381  0.5774
 5789TIP3   OH217372   6.198   5.048   1.351  0.1566 -0.8143  0.6038
 5789TIP3    H117373   6.125   4.991   1.327  0.2240 -0.8095  0.3866
 5789TIP3    H217374   6.273   4.989   1.360  0.0884 -0.8450  1.0090
 5790TIP3   OH217375   0.537   4.786   1.520  0.0932  0.5411  0.3451
 5790TIP3    H117376   0.628   4.763   1.538  0.0074 -0.0063  0.0997
 5790TIP3    H217377   0.521   4.862   1.575  0.4254  0.0922  1.0927
 5791TIP3   OH217378   5.660   0.565   1.591 -0.5033  0.0174  0.5900
 5791TIP3    H117379   5.586   0.547   1.648 -1.3441 -1.3237 -0.8482
 5791TIP3    H217380   5.667   0.487   1.535  2.0885  0.0292  0.7556
 5792TIP3   OH217381   1.814   1.547   1.663  0.3569  0.2656 -0.4340
 5792TIP3    H117382   1.761   1.501   1.728 -0.4420  2.6742  0.7102
 5792TIP3    H217383   1.895   1.495   1.657 -0.4735 -1.2415  0.7862
 5793TIP3   OH217384   4.452   1.991   2.202  0.3283 -0.7593  0.1049
 5793TIP3    H117385   4.397   1.944   2.140  0.2060  0.1199 -0.4764
 5793TIP3    H217386   4.518   2.035   2.148 -1.1395  1.8869  0.2931
 5794TIP3   OH217387   1.458   0.627   1.748  0.3442  0.1910 -0.1450
 5794TIP3    H117388   1.502   0.698   1.795  1.7995 -0.9672  0.3003
 5794TIP3    H217389   1.518   0.604   1.678 -1.3387  1.1864 -2.0253
 5795TIP3   OH217390   4.686   0.660   2.749  0.0044 -0.1742  0.4296
 5795TIP3    H117391   4.662   0.752   2.764 -4.5399 -0.7605 -1.4939
 5795TIP3    H217392   4.645   0.613   2.822 -0.4059 -0.8753 -0.2344
 5796TIP3   OH217393   6.285   2.687   3.836 -0.2448 -0.0767 -0.5249
 5796TIP3    H117394   6.288   2.697   3.931  0.8909 -0.0267 -0.5476
 5796TIP3    H217395   6.229   2.759   3.806 -0.8992 -0.3005  0.1210
 5797TIP3   OH217396   2.196   0.106   3.451 -0.7355  0.2351 -0.5924
 5797TIP3    H117397   2.240   0.096   3.367  0.9558  0.2542  0.2664
 5797TIP3    H217398   2.150   0.023   3.464 -1.0392  0.2412 -1.5185
 5798TIP3   OH217399   0.587   3.364   0.244  0.7812  0.6417  0.1259
 5798TIP3    H117400   0.581   3.288   0.302  0.4298 -0.3389 -1.1533
 5798TIP3    H217401   0.544   3.434   0.293 -1.5765 -0.7329  0.1545
 5799TIP3   OH217402   5.827   1.723   1.228  0.1462 -0.5895  0.3516
 5799TIP3    H117403   5.823   1.816   1.205  1.6578 -0.7781 -0.8611
 5799TIP3    H217404   5.879   1.684   1.158 -0.3458 -2.3379  0.9223
 5800TIP3   OH217405   2.753   2.762   2.832 -0.4075  0.0556 -0.0275
 5800TIP3    H117406   2.839   2.739   2.797 -0.3598  2.2258 -1.5421
 5800TIP3    H217407   2.769   2.778   2.925  0.1468 -2.5917  0.4066
 5801TIP3   OH217408   5.383   5.758   1.878  0.5446  0.1203  0.0350
 5801TIP3    H117409   5.343   5.781   1.962  1.5975  0.0226  0.5880
 5801TIP3    H217410   5.345   5.673   1.855 -0.7216  0.7365 -0.2590
 5802TIP3   OH217411   5.291   3.022   4.060 -0.3441 -0.0582 -0.4022
 5802TIP3    H117412   5.259   3.045   3.973 -1.1397  1.9874  0.3599
 5802TIP3    H217413   5.364   2.963   4.044 -0.2393  0.5495 -2.4648
 5803TIP3   OH217414   1.810   2.620   1.527 -0.0146 -0.2026 -0.1702
 5803TIP3    H117415   1.844   2.588   1.444 -3.6139 -1.3602 -1.3880
 5803TIP3    H217416   1.793   2.713   1.511 -1.3981 -0.5782 -1.0807
 5804TIP3   OH217417   3.732   0.065   3.965  0.1839 -0.0498  0.2331
 5804TIP3    H117418   3.686  -0.016   3.942 -1.8036  1.4683 -1.6083
 5804TIP3    H217419   3.699   0.129   3.902  1.5587  2.2417  1.7193
 5805TIP3   OH217420   5.858   1.665   4.392  0.2105  0.5840 -0.6869
 5805TIP3    H117421   5.946   1.630   4.404  0.1173  0.8531  1.1173
 5805TIP3    H217422   5.800   1.591   4.407  0.0706  1.0383  1.2441
 5806TIP3   OH217423   4.456   5.271   1.092 -0.4822  0.0571 -0.4624
 5806TIP3    H117424   4.424   5.257   1.181 -1.4684 -0.1482 -0.8304
 5806TIP3    H217425   4.388   5.324   1.050  0.9007  1.8465 -0.5363
 5807TIP3   OH217426   1.016   2.318   2.700  0.7195 -0.6355 -0.4627
 5807TIP3    H117427   1.002   2.321   2.794  1.8059 -1.6261 -0.2563
 5807TIP3    H217428   0.932   2.345   2.663  0.3263 -0.0829  0.7772
 5808TIP3   OH217429   4.408   1.153   3.165  0.0297  0.4930 -0.4957
 5808TIP3    H117430   4.348   1.214   3.122 -1.6360 -0.2685  0.6624
 5808TIP3    H217431   4.352   1.097   3.218  1.6643 -1.1081 -0.3692
 5809TIP3   OH217432   4.672   0.346   1.421 -0.3517  0.5800 -0.2166
 5809TIP3    H117433   4.628   0.265   1.395  2.2594 -0.2026 -2.7247
 5809TIP3    H217434   4.669   0.402   1.344 -1.6026  2.7545  1.2912
 5810TIP3   OH217435   2.167   2.437   4.199 -0.5738 -0.4460 -0.0213
 5810TIP3    H117436   2.106   2.509   4.214  0.1344  0.0125  0.6981
 5810TIP3    H217437   2.113   2.368   4.160 -1.2965  0.3916 -0.5392
 5811TIP3   OH217438   2.340   2.390   1.229 -0.1476  0.1187 -0.7802
 5811TIP3    H117439   2.407   2.357   1.169  1.4350 -1.1970  1.5364
 5811TIP3    H217440   2.305   2.311   1.270 -0.0566  1.0145  1.0981
 5812TIP3   OH217441   5.980   5.212   0.918 -0.2985 -0.7815 -0.1398
 5812TIP3    H117442   6.059   5.189   0.966 -0.3125  0.3139  0.4259
 5812TIP3    H217443   5.918   5.142   0.939  0.3554 -1.3893 -0.2050
 5813TIP3   OH217444   2.381   3.929   4.282  0.4224  0.2858  0.2271
 5813TIP3    H117445   2.449   3.985   4.317  0.2498  0.6159  0.0413
 5813TIP3    H217446   2.330   3.986   4.224  2.1010 -0.7579 -2.4792
 5814TIP3   OH217447   2.198   0.727   4.389  0.2449  0.3505  0.4949
 5814TIP3    H117448   2.204   0.686   4.303  0.2616 -0.2682  0.7867
 5814TIP3    H217449   2.203   0.654   4.451  0.0005  0.7677  1.0132
 5815TIP3   OH217450   2.795   4.617   1.980  0.2985  0.2984 -0.2769
 5815TIP3    H117451   2.812   4.652   2.067  2.9522 -0.1253 -0.5503
 5815TIP3    H217452   2.769   4.526   1.996  0.9086  0.1812  0.0751
 5816TIP3   OH217453   5.268   2.686   2.750 -0.2185 -0.2434  0.6409
 5816TIP3    H117454   5.234   2.597   2.748  1.9820 -1.2094  1.7933
 5816TIP3    H217455   5.290   2.705   2.659 -1.1545 -0.6939  0.3136
 5817TIP3   OH217456   0.492   2.863   2.719  0.0154  0.6714  0.2574
 5817TIP3    H117457   0.491   2.875   2.814 -0.8348 -0.4434  0.4145
 5817TIP3    H217458   0.506   2.951   2.684  2.5944  0.8056  1.4298
 5818TIP3   OH217459   6.238   5.190   4.475 -0.1830 -0.0658 -0.2844
 5818TIP3    H117460   6.278   5.132   4.540 -1.8105 -1.1070 -0.1648
 5818TIP3    H217461   6.167   5.233   4.522  0.3524  1.2664 -0.6591
 5819TIP3   OH217462   2.593   1.221   0.370 -0.1948  0.0090  0.2383
 5819TIP3    H117463   2.522   1.168   0.404  0.8353 -0.4552  1.7805
 5819TIP3    H217464   2.626   1.269   0.447  1.1155  0.2411 -0.4382
 5820TIP3   OH217465   6.341   4.881   4.286 -1.1155  0.3215 -0.3521
 5820TIP3    H117466   6.331   4.967   4.245 -1.6180  0.1995 -0.4956
 5820TIP3    H217467   6.260   4.869   4.337 -0.0671  0.9304  1.5662
 5821TIP3   OH217468   2.587   1.686   0.067 -0.6061  0.0264 -0.3488
 5821TIP3    H117469   2.502   1.670   0.026 -1.6287  3.3154  0.1635
 5821TIP3    H217470   2.583   1.639   0.150 -1.4215 -0.8138 -0.8372
 5822TIP3   OH217471   4.920   4.788   1.807 -0.3478  0.0729  0.5047
 5822TIP3    H117472   4.844   4.844   1.826 -1.9508 -1.0459 -2.0367
 5822TIP3    H217473   4.954   4.822   1.724 -0.0055 -1.3555  0.0439
 5823TIP3   OH217474   0.431   5.098   5.021  0.4868  0.2144 -0.6029
 5823TIP3    H117475   0.361   5.033   5.018 -1.6329  2.3721 -1.0212
 5823TIP3    H217476   0.454   5.112   4.929  1.0119  0.0134 -0.5078
 5824TIP3   OH217477   3.673   3.074   2.672  0.0569 -0.1464 -0.1113
 5824TIP3    H117478   3.641   3.045   2.587  2.5931 -0.6596 -0.9833
 5824TIP3    H217479   3.659   2.999   2.730 -0.7348 -0.1699 -0.3288
 5825TIP3   OH217480   1.567   0.101   1.776  0.2639  0.3216 -0.0242
 5825TIP3    H117481   1.545   0.040   1.847  3.5276 -1.4767 -0.3964
 5825TIP3    H217482   1.579   0.185   1.819  1.3822 -0.5635  1.4530
 5826TIP3   OH217483   3.026   0.356   4.010 -0.0832 -0.3145 -0.1677
 5826TIP3    H117484   3.021   0.284   4.073  0.8792  1.1096  1.6531
 5826TIP3    H217485   3.047   0.314   3.927  1.4077 -2.0626  1.0080
 5827TIP3   OH217486   4.900   1.281   3.109 -0.2987  0.6825  0.0368
 5827TIP3    H117487   4.992   1.298   3.128 -0.5363  0.6157  1.3314
 5827TIP3    H217488   4.872   1.355   3.055  0.2945  1.1340  0.3488
 5828TIP3   OH217489   3.550   2.466   4.672 -0.0321  0.2428  0.2666
 5828TIP3    H117490   3.630   2.494   4.717 -0.6129 -1.2905  2.4155
 5828TIP3    H217491   3.574   2.384   4.629 -0.4873 -0.3040  1.0532
 5829TIP3   OH217492   5.170   3.616   3.137  0.8225 -0.2674  0.3727
 5829TIP3    H117493   5.165   3.710   3.151 -0.7516  0.1180 -2.2102
 5829TIP3    H217494   5.093   3.581   3.183 -0.7203  0.2298 -1.6796
 5830TIP3   OH217495   4.079   1.533   2.745  0.3849  0.0561 -0.1839
 5830TIP3    H117496   4.109   1.624   2.757 -0.1943  0.3278 -0.7484
 5830TIP3    H217497   4.124   1.484   2.814  1.6012  0.5715 -0.5762
 5831TIP3   OH217498   1.561   5.062   3.109  0.2096  0.4402 -0.5907
 5831TIP3    H117499   1.605   5.143   3.087 -1.2722  1.1942 -0.9401
 5831TIP3    H217500   1.483   5.060   3.053 -0.5228 -0.5205  0.3899
 5832TIP3   OH217501   5.049   4.040   1.392 -0.0471  0.0397  0.6376
 5832TIP3    H117502   5.144   4.031   1.386  0.0700 -0.7715  2.7223
 5832TIP3    H217503   5.034   4.134   1.402  0.6321  0.0966  1.1933
 5833TIP3   OH217504   5.488   4.964   3.591  0.2225 -0.2208 -0.3579
 5833TIP3    H117505   5.501   5.050   3.631  0.7083 -0.7784  0.7313
 5833TIP3    H217506   5.398   4.941   3.611  0.6188 -0.7256  0.9140
 5834TIP3   OH217507   5.308   2.938   1.970 -0.2267 -0.0749 -0.3407
 5834TIP3    H117508   5.394   2.935   1.928  0.5607 -1.5714  1.2662
 5834TIP3    H217509   5.327   2.944   2.063 -1.7887 -1.9400  0.1679
 5835TIP3   OH217510   5.037   4.839   0.134  0.2510  0.3453  0.0046
 5835TIP3    H117511   4.992   4.868   0.054 -1.3760  2.2034  1.4850
 5835TIP3    H217512   5.129   4.831   0.108 -0.3505  0.0174 -2.2545
 5836TIP3   OH217513   2.183   4.274   3.438 -0.2232  0.4448  0.5232
 5836TIP3    H117514   2.277   4.287   3.452 -0.6269  2.3770  1.8370
 5836TIP3    H217515   2.161   4.199   3.493  0.6234 -0.4070 -0.2545
 5837TIP3   OH217516   1.453   5.075   3.971 -0.3373  0.2351  0.2230
 5837TIP3    H117517   1.382   5.053   4.031 -1.7919 -2.1688 -2.1423
 5837TIP3    H217518   1.425   5.158   3.931 -0.1041  1.0439  1.6640
 5838TIP3   OH217519   0.570   4.565   0.655 -1.3269 -0.0458  0.0061
 5838TIP3    H117520   0.488   4.574   0.606 -1.0603 -0.5933 -0.5517
 5838TIP3    H217521   0.582   4.650   0.697 -2.1516  0.0576  0.0501
 5839TIP3   OH217522   3.308   3.456   3.332 -0.2405  0.0359 -0.3967
 5839TIP3    H117523   3.390   3.449   3.283 -0.2300  2.9830 -1.0081
 5839TIP3    H217524   3.335   3.455   3.424  0.4123  0.3097 -0.5781
 5840TIP3   OH217525   4.957   4.423   1.622  0.1650  0.8634 -0.3003
 5840TIP3    H117526   5.029   4.385   1.672 -1.1349 -1.5673 -0.1236
 5840TIP3    H217527   4.917   4.487   1.680  0.1286 -0.2238  0.9036
 5841TIP3   OH217528   1.965   5.683   2.416  0.3174  0.3658  0.0987
 5841TIP3    H117529   1.944   5.746   2.347 -1.3408  1.0778  1.1912
 5841TIP3    H217530   1.885   5.631   2.426  0.4504  0.4095  1.5935
 5842TIP3   OH217531   1.031   5.443   3.914  0.4288 -0.3541  0.0099
 5842TIP3    H117532   0.961   5.508   3.910  0.6998 -0.0968 -0.7866
 5842TIP3    H217533   1.092   5.469   3.845  0.5243 -1.4609 -0.3560
 5843TIP3   OH217534   6.009   5.569   0.272  0.3153  0.1667 -0.0490
 5843TIP3    H117535   5.968   5.579   0.186 -0.9037 -2.4256  0.1340
 5843TIP3    H217536   6.098   5.599   0.260 -0.1149  0.7899 -1.9639
 5844TIP3   OH217537   0.882   5.836   2.777 -0.9528  0.8683  0.1109
 5844TIP3    H117538   0.936   5.761   2.802 -1.9410 -0.1048 -0.5634
 5844TIP3    H217539   0.898   5.846   2.683 -1.0974  1.2800  0.1304
 5845TIP3   OH217540   2.241   4.333   1.089 -0.4450 -0.2233 -0.2412
 5845TIP3    H117541   2.274   4.363   1.174 -0.3955 -2.8625  0.7495
 5845TIP3    H217542   2.294   4.381   1.025  1.7150 -0.4704  1.2565
 5846TIP3   OH217543   4.288   2.419   4.248 -0.0100 -0.2110 -0.8178
 5846TIP3    H117544   4.299   2.341   4.194  0.1691 -0.6519 -0.1534
 5846TIP3    H217545   4.273   2.385   4.337  0.8518  0.5190 -0.3845
 5847TIP3   OH217546   1.311   0.241   4.881  0.5883 -0.4578 -0.4939
 5847TIP3    H117547   1.354   0.327   4.885 -1.1071  0.5077 -1.9223
 5847TIP3    H217548   1.320   0.214   4.789  0.2505 -1.3599 -0.2740
 5848TIP3   OH217549   3.495   4.161   3.641  0.3302 -0.2433 -0.2793
 5848TIP3    H117550   3.418   4.103   3.646  0.4250 -0.3888 -0.5111
 5848TIP3    H217551   3.477   4.218   3.567  1.6297 -2.0088 -2.0515
 5849TIP3   OH217552   3.292   5.915   1.484 -0.0794  0.6818 -0.5673
 5849TIP3    H117553   3.324   6.004   1.502  0.9291  0.5708 -1.7159
 5849TIP3    H217554   3.342   5.887   1.408  0.1921 -1.1751  0.2476
 5850TIP3   OH217555   2.721   5.920   5.090 -0.1160  0.4014  0.2199
 5850TIP3    H117556   2.701   6.003   5.133 -2.2790 -0.7601  1.6320
 5850TIP3    H217557   2.782   5.876   5.149  0.1569  0.5244  0.0296
 5851TIP3   OH217558   5.641   4.717   1.166 -0.2456 -0.5701 -0.4305
 5851TIP3    H117559   5.635   4.665   1.086  0.8363  1.9064 -2.2243
 5851TIP3    H217560   5.713   4.676   1.215  1.0705 -0.4117 -2.1372
 5852TIP3   OH217561   6.158   2.299   3.780  0.1691 -0.1210  0.1918
 5852TIP3    H117562   6.097   2.300   3.706 -1.9798  1.1653  1.8754
 5852TIP3    H217563   6.157   2.209   3.811 -1.0693 -0.0678  0.3279
 5853TIP3   OH217564   2.535   1.239   1.702  0.0361  0.1707 -0.2110
 5853TIP3    H117565   2.472   1.303   1.668  0.0477  0.2032 -0.1719
 5853TIP3    H217566   2.533   1.167   1.639  2.4925  1.6216 -2.1242
 5854TIP3   OH217567   4.275   3.769   3.094 -0.2778 -0.1705 -0.4341
 5854TIP3    H117568   4.282   3.720   3.176 -0.6067  0.3502 -0.0901
 5854TIP3    H217569   4.348   3.832   3.097 -1.6299  1.4287  0.5515
 5855TIP3   OH217570   3.898   2.511   5.187  0.2112  0.5266 -0.0439
 5855TIP3    H117571   3.889   2.527   5.093  1.3979 -1.7492 -0.6182
 5855TIP3    H217572   3.992   2.524   5.204  0.5259 -1.7505  0.2019
 5856TIP3   OH217573   2.014   4.390   3.163  0.2568 -0.2241  0.4785
 5856TIP3    H117574   2.092   4.336   3.168 -0.0744 -0.6810  0.8269
 5856TIP3    H217575   1.941   4.329   3.174 -0.0891  0.4393  2.2254
 5857TIP3   OH217576   2.115   2.898   1.164 -0.4463  0.0768 -0.2029
 5857TIP3    H117577   2.042   2.835   1.160 -2.1953  1.9515  0.7457
 5857TIP3    H217578   2.100   2.948   1.243  2.6538 -0.2598  0.7446
 5858TIP3   OH217579   1.936   2.067   3.089 -0.1924  0.1450 -0.4581
 5858TIP3    H117580   1.869   2.073   3.157 -1.2615  0.6264 -1.5064
 5858TIP3    H217581   1.887   2.073   3.007  0.9964 -1.0450 -1.2915
 5859TIP3   OH217582   2.102   0.025   4.733  0.1490 -0.2822  0.2866
 5859TIP3    H117583   2.164  -0.018   4.791 -0.2887 -0.1666  0.8541
 5859TIP3    H217584   2.058   0.090   4.789  2.0033  2.1924 -0.9162
 5860TIP3   OH217585   5.577   5.314   2.688  0.4630 -0.5335  0.0029
 5860TIP3    H117586   5.559   5.408   2.681  0.8474 -0.4483  0.1366
 5860TIP3    H217587   5.499   5.272   2.650 -0.1567 -0.1850  0.8698
 5861TIP3   OH217588   2.204   1.343   0.973  0.1803 -0.3272  0.3653
 5861TIP3    H117589   2.115   1.325   1.005  0.3024 -0.4275  0.6526
 5861TIP3    H217590   2.196   1.341   0.877 -0.3676  0.8631  0.3726
 5862TIP3   OH217591   5.232   0.961   0.261 -0.2117 -0.0060  0.1806
 5862TIP3    H117592   5.230   1.022   0.334  0.8911  0.3787 -0.0909
 5862TIP3    H217593   5.324   0.934   0.254 -0.4914 -0.8836 -0.3734
 5863TIP3   OH217594   0.839   0.849   3.867 -0.2626 -0.4333  0.3366
 5863TIP3    H117595   0.915   0.806   3.827 -0.7898 -0.7947 -0.3003
 5863TIP3    H217596   0.763   0.807   3.826 -0.8192  1.8451 -1.1817
 5864TIP3   OH217597   5.043   2.812   4.724  0.0715  0.0810 -0.4389
 5864TIP3    H117598   5.094   2.869   4.666 -1.3967  0.3793 -1.4871
 5864TIP3    H217599   4.962   2.796   4.676  0.0625 -2.1626  0.2296
 5865TIP3   OH217600   0.754   1.978   5.071 -0.2142  0.0737  0.2391
 5865TIP3    H117601   0.674   2.025   5.053 -0.0848  0.1875 -0.0429
 5865TIP3    H217602   0.818   2.046   5.094 -0.8883 -0.1801  3.1763
 5866TIP3   OH217603   3.168   5.618   1.070 -0.0595 -0.2411 -0.4254
 5866TIP3    H117604   3.098   5.563   1.036 -0.6742 -0.0690  0.5097
 5866TIP3    H217605   3.160   5.610   1.165  1.2497 -0.2817 -0.3060
 5867TIP3   OH217606   1.970   2.485   1.332 -0.4282 -0.2588  0.2366
 5867TIP3    H117607   2.011   2.414   1.381  1.7924  1.9503  1.8168
 5867TIP3    H217608   1.993   2.468   1.241  2.0884 -0.3802  0.8351
 5868TIP3   OH217609   0.990   4.324   3.441 -0.1320 -0.5537  0.0930
 5868TIP3    H117610   0.974   4.337   3.347 -1.3325  0.6812  0.4257
 5868TIP3    H217611   0.971   4.410   3.480  0.2664 -1.0713  1.4744
 5869TIP3   OH217612   1.198   0.240   2.393  0.5343  0.2811 -0.2981
 5869TIP3    H117613   1.185   0.185   2.471  0.0640  1.1354  0.2429
 5869TIP3    H217614   1.226   0.324   2.428 -1.4509  1.2663 -0.8898
 5870TIP3   OH217615   4.319   0.050   0.890 -0.0068 -0.2541 -0.1286
 5870TIP3    H117616   4.256  -0.022   0.879 -2.8211  1.4276  3.3085
 5870TIP3    H217617   4.290   0.116   0.827  0.0452 -0.5332 -0.4516
 5871TIP3   OH217618   4.443   0.888   2.601  0.4323 -0.1488 -0.2252
 5871TIP3    H117619   4.519   0.895   2.659 -0.2316  1.2789  0.5018
 5871TIP3    H217620   4.479   0.904   2.513  0.8911  1.0769  0.1714
 5872TIP3   OH217621   0.917   2.455   4.199  0.6691  0.1488  0.3353
 5872TIP3    H117622   0.849   2.418   4.256  2.3631  1.5606  3.4977
 5872TIP3    H217623   0.992   2.397   4.209  1.6502  1.5102  1.2249
 5873TIP3   OH217624   4.220   5.030   5.011  0.0228  0.0359  0.1066
 5873TIP3    H117625   4.255   5.066   4.929  1.8712 -0.2060  0.7454
 5873TIP3    H217626   4.278   5.064   5.079 -1.4433  0.1665  1.3293
 5874TIP3   OH217627   2.493   5.487   2.472  0.1433 -0.0386  0.0762
 5874TIP3    H117628   2.492   5.429   2.396 -0.1433 -0.7328  0.6051
 5874TIP3    H217629   2.488   5.575   2.434 -1.4997 -0.4196 -0.6641
 5875TIP3   OH217630   3.070   2.496   2.965 -0.0297 -0.3990 -0.4595
 5875TIP3    H117631   3.133   2.426   2.948  0.6685  0.4179 -1.3616
 5875TIP3    H217632   2.985   2.452   2.960  0.2344 -0.8341 -3.4159
 5876TIP3   OH217633   3.958   0.139   4.092 -0.0775  0.3929  0.4275
 5876TIP3    H117634   3.875   0.137   4.045 -0.8301  1.0676  1.6859
 5876TIP3    H217635   4.024   0.145   4.023 -0.9060 -1.9932 -0.7066
 5877TIP3   OH217636   1.992   0.455   4.592  0.4182 -0.4364  0.4915
 5877TIP3    H117637   1.945   0.531   4.626 -0.3054 -0.9702  0.7247
 5877TIP3    H217638   2.082   0.465   4.624  0.3159  0.2850  0.5591
 5878TIP3   OH217639   1.980   3.922   1.220 -0.2283 -0.5804 -0.7730
 5878TIP3    H117640   1.965   3.943   1.312 -0.7843  1.2527 -1.2335
 5878TIP3    H217641   2.067   3.957   1.200 -0.0103 -1.1767 -0.8964
 5879TIP3   OH217642   6.098   2.015   2.081  0.2556  0.3458  0.7903
 5879TIP3    H117643   6.043   2.092   2.064  0.2768  0.1199 -0.3547
 5879TIP3    H217644   6.174   2.027   2.024  0.1975 -0.5886  0.5024
 5880TIP3   OH217645   4.933   0.663   0.913  0.8803  1.2605  0.1076
 5880TIP3    H117646   4.909   0.749   0.946 -0.1579  0.3843  1.7382
 5880TIP3    H217647   4.977   0.620   0.986  2.4806  0.8107 -1.0663
 5881TIP3   OH217648   1.643   5.618   1.153  0.1067 -0.2575 -0.5822
 5881TIP3    H117649   1.594   5.664   1.085  0.3912  2.2858  0.7955
 5881TIP3    H217650   1.710   5.680   1.180 -0.2413 -0.9814  2.2534
 5882TIP3   OH217651   2.329   0.349   4.848  0.4472 -0.0242  0.3085
 5882TIP3    H117652   2.364   0.408   4.916  2.7400 -1.2425  0.3029
 5882TIP3    H217653   2.280   0.283   4.897 -0.8718  1.0036  0.4354
 5883TIP3   OH217654   2.107   3.022   1.442  0.6536 -0.1458 -0.0177
 5883TIP3    H117655   2.060   3.052   1.520 -0.4327 -0.2604 -0.5956
 5883TIP3    H217656   2.092   3.092   1.377  2.5107  0.5009  0.2024
 5884TIP3   OH217657   1.533   4.423   2.765 -0.1104  0.0288  0.3496
 5884TIP3    H117658   1.597   4.490   2.740  0.5671 -1.1297 -1.2139
 5884TIP3    H217659   1.492   4.398   2.682 -0.1036 -1.7339  0.8392
 5885TIP3   OH217660   5.606   4.223   0.297  0.1484 -0.0963 -0.0294
 5885TIP3    H117661   5.538   4.262   0.242 -0.7332 -3.0521 -1.2703
 5885TIP3    H217662   5.558   4.163   0.354  1.4297  0.3627  1.5805
 5886TIP3   OH217663   4.479   5.237   1.939 -0.0136 -0.4426 -0.4342
 5886TIP3    H117664   4.446   5.310   1.887 -1.3740 -1.1801 -0.6739
 5886TIP3    H217665   4.415   5.227   2.009  0.5383 -0.9435  0.0069
 5887TIP3   OH217666   0.217   1.463  -0.004 -0.6812  0.1708 -0.0007
 5887TIP3    H117667   0.136   1.509   0.019 -0.8002 -0.4171  0.8262
 5887TIP3    H217668   0.284   1.504   0.051 -1.0233 -1.4544  1.7295
 5888TIP3   OH217669   5.696   1.401   0.769  0.9058  0.3132  0.5247
 5888TIP3    H117670   5.734   1.467   0.711  0.6681 -0.3129 -0.3728
 5888TIP3    H217671   5.737   1.319   0.741  0.4827 -0.0613  0.9831
 5889TIP3   OH217672   2.162   1.093   3.210 -0.1118 -1.0185 -0.1496
 5889TIP3    H117673   2.209   1.022   3.167 -2.7606 -2.5865 -0.6926
 5889TIP3    H217674   2.073   1.088   3.174 -1.5216 -0.0863  2.8529
 5890TIP3   OH217675   3.116   3.593   0.657 -0.5633 -0.0555  0.4407
 5890TIP3    H117676   3.115   3.555   0.745  1.1977  1.7475  1.3296
 5890TIP3    H217677   3.038   3.649   0.654 -0.4008  0.2255  1.0653
 5891TIP3   OH217678   5.921   1.739   3.113 -0.2779 -0.1720 -0.8842
 5891TIP3    H117679   5.928   1.673   3.182  0.4781  0.1697 -0.6216
 5891TIP3    H217680   5.968   1.701   3.038 -0.2108 -0.1099 -0.8737
 5892TIP3   OH217681   4.923   1.481   4.123 -0.5850 -0.2808 -0.3935
 5892TIP3    H117682   4.959   1.430   4.051 -1.0029  0.8699 -1.4626
 5892TIP3    H217683   4.911   1.569   4.086  0.6909  0.7735  1.5376
 5893TIP3   OH217684   4.867   3.613   2.953  0.6541  0.1387 -0.4552
 5893TIP3    H117685   4.851   3.570   2.869  0.6912  1.2646 -1.0653
 5893TIP3    H217686   4.941   3.671   2.936  1.2313 -0.2542  0.6033
 5894TIP3   OH217687   3.814   3.310   0.085 -0.2897  0.1987 -0.4330
 5894TIP3    H117688   3.854   3.264   0.011 -1.3284 -1.2936 -0.1302
 5894TIP3    H217689   3.763   3.380   0.046  3.0620  2.6599 -0.7910
 5895TIP3   OH217690   1.317   5.390   3.974  0.1975 -0.1047 -0.2119
 5895TIP3    H117691   1.295   5.404   4.066 -0.2258  0.9202 -0.4578
 5895TIP3    H217692   1.234   5.368   3.932  0.3063 -0.0922 -0.4348
 5896TIP3   OH217693   6.052   1.181   4.443 -0.1096  0.2137 -0.1326
 5896TIP3    H117694   5.985   1.183   4.512 -0.7456  0.5780 -0.7353
 5896TIP3    H217695   6.059   1.273   4.415  0.4247  0.1279 -0.2853
 5897TIP3   OH217696   1.057   2.336   1.735  0.6015  0.1319 -0.1517
 5897TIP3    H117697   1.115   2.268   1.769 -1.1976 -1.6417 -0.4546
 5897TIP3    H217698   1.113   2.387   1.675  1.9972 -1.0766  0.0678
 5898TIP3   OH217699   0.150   4.269   3.681  0.1596  0.1875  0.2301
 5898TIP3    H117700   0.095   4.192   3.668 -3.1130  2.3011  0.4010
 5898TIP3    H217701   0.161   4.305   3.593  3.2348 -1.2999 -0.1147
 5899TIP3   OH217702   5.092   5.822   2.517  0.3768 -0.7914  0.1855
 5899TIP3    H117703   5.040   5.840   2.439  0.7125 -1.4168 -0.1878
 5899TIP3    H217704   5.162   5.764   2.487  0.9921 -0.3848  0.7830
 5900TIP3   OH217705   5.436   3.658   2.193  0.0973 -0.0218 -0.5913
 5900TIP3    H117706   5.363   3.597   2.204  1.3015 -1.2358  1.0465
 5900TIP3    H217707   5.396   3.745   2.202 -1.3348 -0.5915 -1.0461
 5901TIP3   OH217708   1.954   3.003   2.730 -0.6813  0.1955 -0.4355
 5901TIP3    H117709   1.868   2.980   2.697 -0.4955  0.1585 -0.9049
 5901TIP3    H217710   2.013   2.940   2.689 -0.0048  2.1524 -2.6608
 5902TIP3   OH217711   3.957   3.026   3.850 -0.0364 -0.0006 -0.2179
 5902TIP3    H117712   4.005   3.104   3.819  1.5491 -0.3049  1.2967
 5902TIP3    H217713   3.958   2.967   3.775  1.0359  0.4425 -0.5906
 5903TIP3   OH217714   5.134   1.112   2.953 -0.7101  0.0587 -1.0130
 5903TIP3    H117715   5.102   1.168   2.882 -1.1785 -0.3614 -1.1400
 5903TIP3    H217716   5.151   1.173   3.025 -0.0045  0.5222 -1.5478
 5904TIP3   OH217717   1.474   1.983   0.601 -0.1353  0.1186  0.3665
 5904TIP3    H117718   1.514   2.052   0.653 -0.8531  2.1274 -1.6133
 5904TIP3    H217719   1.523   1.982   0.519 -0.1423 -1.7515  0.3439
 5905TIP3   OH217720   4.975   0.365   2.948  0.4789 -0.1157 -0.2281
 5905TIP3    H117721   5.043   0.299   2.962  0.9486  0.6042  1.0813
 5905TIP3    H217722   4.893   0.318   2.959  0.7994 -0.5705  0.3020
 5906TIP3   OH217723   2.841   2.870   3.513  0.0837  0.7386  0.5232
 5906TIP3    H117724   2.800   2.956   3.517 -0.3431  0.6048 -0.5765
 5906TIP3    H217725   2.918   2.877   3.570  0.7811  2.2438 -0.5386
 5907TIP3   OH217726   2.826   0.151   3.140  0.1558 -0.1125  0.1635
 5907TIP3    H117727   2.793   0.077   3.089 -0.2136  0.7439 -0.8844
 5907TIP3    H217728   2.911   0.121   3.172 -0.0400 -1.0359 -0.1459
 5908TIP3   OH217729   0.135   1.923   1.503  0.3300 -0.2323  0.2877
 5908TIP3    H117730   0.146   1.979   1.426  0.7071  1.8553  1.7801
 5908TIP3    H217731   0.201   1.854   1.492 -0.5925 -0.8398 -1.9150
 5909TIP3   OH217732   0.640   1.375   2.333  0.1888 -0.0838 -0.3167
 5909TIP3    H117733   0.717   1.338   2.377  0.2252  0.9531  0.5118
 5909TIP3    H217734   0.621   1.456   2.381 -1.1931 -0.1300 -0.7472
 5910TIP3   OH217735   2.430   2.937   3.908 -0.4237  0.6759 -0.4604
 5910TIP3    H117736   2.498   2.956   3.844 -0.1620  2.5624  0.3189
 5910TIP3    H217737   2.418   3.019   3.955 -0.4794 -0.6702  2.0395
 5911TIP3   OH217738   2.541   3.729   4.974  0.0902  0.0877 -0.0003
 5911TIP3    H117739   2.585   3.646   4.995  0.3181  0.4524  0.9866
 5911TIP3    H217740   2.495   3.752   5.054  0.8541  1.4363  0.0729
 5912TIP3   OH217741   1.614   0.427   2.376 -0.2143 -0.7104  0.1020
 5912TIP3    H117742   1.646   0.490   2.440 -0.9376 -0.8054  0.5735
 5912TIP3    H217743   1.687   0.414   2.315  0.5872 -0.8620  1.0845
 5913TIP3   OH217744   5.001   2.401   3.497 -0.2407  0.4138 -0.9575
 5913TIP3    H117745   5.034   2.459   3.566  0.5625 -2.2721  1.1017
 5913TIP3    H217746   4.909   2.389   3.518 -0.6650  1.6356 -1.9821
 5914TIP3   OH217747   1.402   5.518   3.592  0.5578  0.3236  0.3992
 5914TIP3    H117748   1.393   5.463   3.514 -0.5996 -1.3496  1.6294
 5914TIP3    H217749   1.493   5.507   3.618  0.8033  0.4315 -0.3774
 5915TIP3   OH217750   4.405   0.469   4.888  0.2718  0.3563  0.1358
 5915TIP3    H117751   4.314   0.496   4.902 -0.4347 -2.1740  0.9128
 5915TIP3    H217752   4.422   0.405   4.957  2.1173 -0.4312 -0.9734
 5916TIP3   OH217753   4.259   3.165   3.584  0.2621  0.5166  0.2018
 5916TIP3    H117754   4.346   3.129   3.602 -0.7662 -1.9348  0.7195
 5916TIP3    H217755   4.231   3.203   3.667  0.8206  1.2838  0.0424
 5917TIP3   OH217756   2.501   3.241   4.229 -0.3222  0.3607 -0.8840
 5917TIP3    H117757   2.472   3.222   4.140 -0.6531 -0.0348 -0.6931
 5917TIP3    H217758   2.481   3.162   4.279 -0.0568  0.5442 -0.4756
 5918TIP3   OH217759   5.218   0.267   4.491 -0.2084 -0.1364  0.1724
 5918TIP3    H117760   5.182   0.201   4.551 -0.2251 -0.8242 -0.5690
 5918TIP3    H217761   5.208   0.227   4.404  1.8008 -0.1209 -0.1124
 5919TIP3   OH217762   3.385   5.329   0.399 -0.5523  0.2953  0.4943
 5919TIP3    H117763   3.407   5.400   0.459  1.4372  0.5044 -0.4219
 5919TIP3    H217764   3.442   5.257   0.424 -0.5086  0.0042 -0.4085
 5920TIP3   OH217765   5.822   4.275   4.923  0.0148 -0.3327  0.3391
 5920TIP3    H117766   5.807   4.368   4.910  0.6786  0.0603  2.1159
 5920TIP3    H217767   5.804   4.235   4.838 -1.0169  1.3115 -0.2543
 5921TIP3   OH217768   3.620   4.575   0.046  0.2294 -0.3889  0.4020
 5921TIP3    H117769   3.622   4.606  -0.044  2.0291  1.6522  1.0660
 5921TIP3    H217770   3.548   4.623   0.087 -0.1375 -0.7972  0.2467
 5922TIP3   OH217771   6.225   2.481   0.003 -0.0213 -0.4381 -0.1713
 5922TIP3    H117772   6.234   2.437   0.087  0.0040 -0.8101 -0.3656
 5922TIP3    H217773   6.294   2.443  -0.051  0.0585 -0.0916 -0.3114
 5923TIP3   OH217774   0.302   3.928   4.104  0.2941 -0.4205 -0.4132
 5923TIP3    H117775   0.333   4.019   4.103  1.2147 -0.7248 -0.9001
 5923TIP3    H217776   0.359   3.884   4.166 -1.2486 -0.3255  1.1257
 5924TIP3   OH217777   0.920   5.440   4.332  0.0826 -0.2556  0.6800
 5924TIP3    H117778   0.964   5.386   4.397 -0.8241 -1.0712  0.6413
 5924TIP3    H217779   0.882   5.377   4.270  0.0341  0.4688 -0.0540
 5925TIP3   OH217780   0.724   2.717   4.847  0.4925  0.0949 -0.0880
 5925TIP3    H117781   0.692   2.700   4.936  0.0226  0.7753 -0.1155
 5925TIP3    H217782   0.724   2.813   4.839  0.0306  0.0331 -0.9970
 5926TIP3   OH217783   4.851   4.264   1.403 -0.2363 -0.6725 -0.5825
 5926TIP3    H117784   4.890   4.307   1.479 -2.6189  0.4386  0.0990
 5926TIP3    H217785   4.803   4.333   1.358  1.7073 -1.1193 -3.6395
 5927TIP3   OH217786   0.754   3.426   1.162 -0.3857  0.2458 -0.1663
 5927TIP3    H117787   0.828   3.395   1.214 -0.4633  0.5909  0.1486
 5927TIP3    H217788   0.712   3.345   1.131 -0.2536  0.0413  0.1806
 5928TIP3   OH217789   5.984   1.902   2.447  0.5193 -1.0805  0.3061
 5928TIP3    H117790   5.927   1.910   2.370  0.7780 -0.6060  0.1610
 5928TIP3    H217791   6.060   1.853   2.415  0.0672 -1.9633  0.5709
 5929TIP3   OH217792   0.600   5.860   2.863  0.4626  0.0620  0.1894
 5929TIP3    H117793   0.689   5.852   2.830  0.2683 -0.2824 -0.2513
 5929TIP3    H217794   0.600   5.811   2.946  0.3259 -1.1218 -0.4973
 5930TIP3   OH217795   0.423   3.339   2.655 -0.2108 -0.2045 -0.2364
 5930TIP3    H117796   0.433   3.420   2.705  0.0610 -1.3232  1.6262
 5930TIP3    H217797   0.473   3.354   2.575  0.0022  1.3911  0.1632
 5931TIP3   OH217798   0.834   3.528   4.510  1.4103 -0.2701  0.2729
 5931TIP3    H117799   0.817   3.491   4.597 -0.0504 -1.3301 -0.4122
 5931TIP3    H217800   0.902   3.594   4.524 -0.2392  1.0820  2.5934
 5932TIP3   OH217801   4.560   5.803   5.056  0.0636  0.6985 -0.2371
 5932TIP3    H117802   4.653   5.827   5.058  0.7120 -1.6058 -0.2354
 5932TIP3    H217803   4.543   5.765   5.142 -0.7352  0.5915 -0.4353
 5933TIP3   OH217804   4.971   3.634   1.748  0.2095 -0.1538  0.3151
 5933TIP3    H117805   4.911   3.708   1.748 -1.9045 -1.7546  1.4726
 5933TIP3    H217806   4.958   3.593   1.833  0.1899 -2.6625 -0.8087
 5934TIP3   OH217807   4.600   2.129   3.346 -0.2484  0.1655 -0.1040
 5934TIP3    H117808   4.533   2.197   3.357 -1.8470 -1.5107  1.1034
 5934TIP3    H217809   4.624   2.105   3.436  2.3955  1.0403 -0.4810
 5935TIP3   OH217810   4.969   1.674   3.771  0.2102 -0.1417 -0.2977
 5935TIP3    H117811   5.040   1.617   3.741  0.5113 -1.3476  2.4516
 5935TIP3    H217812   5.001   1.713   3.852 -0.9979  2.0091 -0.7750
 5936TIP3   OH217813   3.646   3.518   0.514 -0.2968 -0.4736  0.0725
 5936TIP3    H117814   3.739   3.543   0.512 -0.6865  1.2434  1.1953
 5936TIP3    H217815   3.620   3.535   0.605 -1.4328 -2.0915  0.0829
 5937TIP3   OH217816   2.552   1.538   2.309 -0.1938  0.4859  0.8668
 5937TIP3    H117817   2.531   1.619   2.264  1.2855  0.2833 -0.2800
 5937TIP3    H217818   2.582   1.565   2.396 -1.2785  1.0192  1.0939
 5938TIP3   OH217819   3.946   0.521   4.820  0.3612  0.4329 -0.8417
 5938TIP3    H117820   3.930   0.467   4.742  1.1209  0.0564 -0.7478
 5938TIP3    H217821   3.986   0.600   4.786 -0.1513  0.6667 -0.9150
 5939TIP3   OH217822   3.565   4.316   3.154  0.1601  0.5726 -0.5082
 5939TIP3    H117823   3.503   4.245   3.165 -1.3498  2.0838  1.6676
 5939TIP3    H217824   3.605   4.301   3.069 -1.6147 -1.6811 -1.0259
 5940TIP3   OH217825   5.607   1.677   2.481 -0.1826 -0.0336  0.0005
 5940TIP3    H117826   5.602   1.747   2.415 -3.5755 -0.1957 -0.1024
 5940TIP3    H217827   5.555   1.710   2.554 -0.4129 -1.7513  0.6448
 5941TIP3   OH217828   5.859   3.567   1.188  0.6074 -0.3162  0.9197
 5941TIP3    H117829   5.797   3.634   1.158  0.2752 -0.8252  0.4339
 5941TIP3    H217830   5.805   3.506   1.238  0.5183 -1.2408 -0.2463
 5942TIP3   OH217831   5.593   0.833   0.976  0.3133  0.1410  0.2753
 5942TIP3    H117832   5.603   0.746   1.014  2.1555  0.2937  0.2365
 5942TIP3    H217833   5.541   0.881   1.040 -0.6487 -0.9275  0.3407
 5943TIP3   OH217834   3.388   5.687   0.939 -0.3182 -0.0114 -0.3193
 5943TIP3    H117835   3.318   5.653   0.994 -0.0340 -1.1429 -0.6167
 5943TIP3    H217836   3.371   5.781   0.932 -0.9199 -0.0230  0.8631
 5944TIP3   OH217837   5.393   0.583   3.725  0.1856  0.2709  0.4087
 5944TIP3    H117838   5.464   0.522   3.705 -1.0104 -0.3397 -2.2860
 5944TIP3    H217839   5.345   0.540   3.796  1.8934  0.2504  1.6204
 5945TIP3   OH217840   0.114   4.721   0.343  0.0234  0.4654 -0.5483
 5945TIP3    H117841   0.131   4.775   0.420  0.2776  0.0509 -0.3056
 5945TIP3    H217842   0.081   4.638   0.379  1.0110 -0.0682 -0.8265
 5946TIP3   OH217843   0.186   5.089   4.825  0.0124  0.3698  0.2629
 5946TIP3    H117844   0.198   5.170   4.875 -1.3960  0.0163  1.2427
 5946TIP3    H217845   0.177   5.021   4.891  0.9069 -0.5655 -0.5521
 5947TIP3   OH217846   1.898   2.329   0.848  0.2003 -0.1523  0.5743
 5947TIP3    H117847   1.951   2.336   0.769 -0.3244  0.2544  0.2463
 5947TIP3    H217848   1.814   2.295   0.817  0.1730 -0.5217  1.0441
 5948TIP3   OH217849   4.123   1.690   0.193  0.0050  0.6876 -0.4042
 5948TIP3    H117850   4.136   1.680   0.287 -0.3849 -0.7531 -0.4780
 5948TIP3    H217851   4.144   1.782   0.176  1.3316  0.6771  0.8740
 5949TIP3   OH217852   2.801   0.602   0.332  0.7567 -0.0847  0.9771
 5949TIP3    H117853   2.792   0.557   0.416 -4.4494  1.8117  1.8216
 5949TIP3    H217854   2.779   0.536   0.267 -1.4364 -0.2211  1.7670
 5950TIP3   OH217855   4.926   2.312   5.113 -0.1092 -0.1142  0.2776
 5950TIP3    H117856   4.853   2.371   5.137  0.5930  0.9289 -0.0752
 5950TIP3    H217857   4.895   2.225   5.137 -1.2999  0.3634  0.5582
 5951TIP3   OH217858   0.975   1.029   0.780  0.6161 -0.0682 -0.0912
 5951TIP3    H117859   0.919   1.078   0.840  1.7891  2.4581 -0.9480
 5951TIP3    H217860   1.056   1.015   0.830  0.5409 -0.5424 -0.0961
 5952TIP3   OH217861   0.376   0.447   4.478  0.5128 -0.1574  0.3076
 5952TIP3    H117862   0.368   0.358   4.513 -2.6486 -0.2553 -0.4285
 5952TIP3    H217863   0.430   0.437   4.399 -0.9981 -1.7255 -0.5875
 5953TIP3   OH217864   6.144   0.272   2.565 -0.1581 -0.7550  0.2489
 5953TIP3    H117865   6.224   0.238   2.604  0.2676 -2.3104 -1.7835
 5953TIP3    H217866   6.173   0.341   2.505 -0.6092  0.2646  1.1586
 5954TIP3   OH217867   3.989   1.983   3.396  0.3817 -0.4384 -0.8350
 5954TIP3    H117868   4.014   1.906   3.448  1.0630  0.1154 -0.3186
 5954TIP3    H217869   3.920   2.025   3.447 -0.5696 -1.1371 -1.5170
 5955TIP3   OH217870   1.960   5.108   2.285  0.6594  0.1780 -0.2312
 5955TIP3    H117871   1.947   5.030   2.231  0.0520  0.3862 -0.3948
 5955TIP3    H217872   1.977   5.074   2.373  1.3884 -0.1601 -0.4915
 5956TIP3   OH217873   6.121   2.069   0.481 -0.4878  0.1895  0.1102
 5956TIP3    H117874   6.071   2.126   0.540 -0.0541  0.8517 -0.1552
 5956TIP3    H217875   6.054   2.017   0.436 -0.8143 -0.7587  1.5778
 5957TIP3   OH217876   1.559   5.116   1.440 -0.2440 -0.0834 -0.0883
 5957TIP3    H117877   1.539   5.060   1.515 -0.0565 -0.5811 -0.4005
 5957TIP3    H217878   1.583   5.054   1.371 -1.9758  0.2616 -1.0536
 5958TIP3   OH217879   5.523   0.992   1.866 -0.1793 -0.4948  0.6707
 5958TIP3    H117880   5.575   0.916   1.838  0.3156 -0.3548  1.2049
 5958TIP3    H217881   5.584   1.048   1.913 -0.5933  0.1436  0.4635
 5959TIP3   OH217882   4.026   5.057   0.705 -0.0108 -0.1027 -0.1551
 5959TIP3    H117883   4.091   5.005   0.751  0.0248  0.4586  0.4403
 5959TIP3    H217884   4.074   5.134   0.673 -0.3192  0.1847  0.0631
 5960TIP3   OH217885   2.765   5.685   2.800  0.5499 -0.0696  0.3285
 5960TIP3    H117886   2.859   5.702   2.800  0.4019  0.8468  1.1403
 5960TIP3    H217887   2.743   5.665   2.709  1.8089 -1.9844  0.3849
 5961TIP3   OH217888   5.766   0.380   5.091 -0.2323  0.5469 -0.2300
 5961TIP3    H117889   5.722   0.331   5.160 -0.2700  2.5781  1.2676
 5961TIP3    H217890   5.859   0.365   5.107 -0.0815 -3.1763 -2.9818
 5962TIP3   OH217891   2.711   3.105   3.507  0.3318 -0.2736  0.0165
 5962TIP3    H117892   2.653   3.144   3.442  0.0772 -0.3748  0.1804
 5962TIP3    H217893   2.729   3.176   3.569 -0.7238 -0.6023  0.7208
 5963TIP3   OH217894   3.744   3.946   4.735 -0.1817 -0.0411  0.0904
 5963TIP3    H117895   3.719   3.942   4.643  0.5421 -1.1981 -0.0752
 5963TIP3    H217896   3.769   4.038   4.749 -1.7386  0.4858 -0.4531
 5964TIP3   OH217897   1.473   1.003   4.826  0.1916  0.2205  0.0489
 5964TIP3    H117898   1.418   1.034   4.754  1.1241 -1.2291 -1.3935
 5964TIP3    H217899   1.496   1.081   4.875 -0.4112  1.2911 -1.3128
 5965TIP3   OH217900   0.434   5.385   2.911 -0.2168 -0.2249  0.1579
 5965TIP3    H117901   0.367   5.347   2.855  1.2049 -0.7186 -1.2695
 5965TIP3    H217902   0.484   5.310   2.944  3.4618  0.1434 -3.7515
 5966TIP3   OH217903   2.162   2.462   0.142 -0.4375 -0.5388  0.4500
 5966TIP3    H117904   2.193   2.510   0.065 -1.0820  0.6376  0.8877
 5966TIP3    H217905   2.078   2.425   0.114  0.3143 -1.9200 -0.0621
 5967TIP3   OH217906   2.082   2.126   2.238 -0.3122  0.0682 -0.6362
 5967TIP3    H117907   2.008   2.167   2.192 -0.7133 -0.2043 -0.2347
 5967TIP3    H217908   2.050   2.041   2.266 -0.1635  0.3304  0.3845
 5968TIP3   OH217909   0.399   1.960   3.213  0.0766 -0.2717 -0.3137
 5968TIP3    H117910   0.310   1.979   3.183  0.2891 -2.2935 -2.5354
 5968TIP3    H217911   0.456   2.005   3.150  0.6160 -0.0800  0.2985
 5969TIP3   OH217912   0.142   4.065   3.179  0.2196 -0.2213 -0.0814
 5969TIP3    H117913   0.179   4.115   3.251 -1.0799  0.9806 -0.2250
 5969TIP3    H217914   0.084   4.001   3.220  0.9158 -0.7970  0.0265
 5970TIP3   OH217915   5.285   1.305   1.725 -0.0892  0.5035  0.1334
 5970TIP3    H117916   5.258   1.384   1.678 -0.6826 -0.0869 -0.5567
 5970TIP3    H217917   5.217   1.241   1.705 -0.1398  0.0970  1.4874
 5971TIP3   OH217918   1.473   0.925   3.978  0.0024 -0.2478 -0.2119
 5971TIP3    H117919   1.473   1.013   3.940  1.1687 -0.1651 -0.0606
 5971TIP3    H217920   1.414   0.931   4.053 -0.1362  0.3277 -0.3607
 5972TIP3   OH217921   2.213   5.314   0.792 -0.4018  0.2672 -0.2225
 5972TIP3    H117922   2.229   5.319   0.886 -0.9083 -0.5013 -0.0914
 5972TIP3    H217923   2.299   5.299   0.754 -0.3868 -0.8328  0.2352
 5973TIP3   OH217924   5.178   3.756   4.707 -0.1100 -0.6382  0.2794
 5973TIP3    H117925   5.250   3.811   4.736 -1.0259  0.2639  0.9230
 5973TIP3    H217926   5.136   3.807   4.638  0.4781 -1.6195 -0.8311
 5974TIP3   OH217927   4.925   5.147   0.369  0.4586 -0.0991 -0.2103
 5974TIP3    H117928   5.010   5.142   0.325  0.0793 -0.0262 -0.9608
 5974TIP3    H217929   4.946   5.141   0.462  1.3570  0.6754 -0.3447
 5975TIP3   OH217930   4.677   3.291   5.186  0.3788 -0.0280  0.2476
 5975TIP3    H117931   4.689   3.357   5.117 -0.7644 -0.8469 -0.7858
 5975TIP3    H217932   4.659   3.210   5.138  0.5230 -0.8295  1.5137
 5976TIP3   OH217933   2.002   2.755   1.732 -0.4191 -0.0370 -0.1365
 5976TIP3    H117934   1.940   2.746   1.660  1.6478 -0.5687 -1.9442
 5976TIP3    H217935   2.028   2.666   1.753 -0.4532  0.1651  0.8033
 5977TIP3   OH217936   2.516   3.257   2.322 -0.7489  0.2761  0.0034
 5977TIP3    H117937   2.466   3.334   2.348  0.9725  0.6627  2.5346
 5977TIP3    H217938   2.534   3.211   2.405  0.2888 -1.5542 -1.1652
 5978TIP3   OH217939   6.080   1.654   2.054 -0.3016  0.1943 -0.0065
 5978TIP3    H117940   6.086   1.710   1.977  0.6591 -0.0878 -0.1546
 5978TIP3    H217941   6.122   1.572   2.027 -0.3564 -0.0662  0.6689
 5979TIP3   OH217942   2.957   4.378   4.935 -0.1915 -0.3262 -0.1912
 5979TIP3    H117943   2.973   4.353   5.026  0.3642 -1.0016 -0.4604
 5979TIP3    H217944   3.043   4.371   4.894 -0.3133  0.6342 -0.6156
 5980TIP3   OH217945   4.289   0.379   1.335  0.1081 -0.2034 -0.0642
 5980TIP3    H117946   4.368   0.433   1.328  0.1620 -0.3381 -0.5239
 5980TIP3    H217947   4.285   0.332   1.252 -0.7131  0.1418 -0.2276
 5981TIP3   OH217948   1.823   0.412   4.934 -0.1065 -0.4612  0.5599
 5981TIP3    H117949   1.910   0.446   4.954  0.8672 -1.1447 -2.1823
 5981TIP3    H217950   1.763   0.481   4.964  1.3298  0.0401  2.4496
 5982TIP3   OH217951   4.251   5.165   2.507 -0.3252 -0.2702 -0.3424
 5982TIP3    H117952   4.258   5.112   2.428  0.0872  0.2943 -0.6826
 5982TIP3    H217953   4.202   5.242   2.481  0.0516  0.0511 -0.1142
 5983TIP3   OH217954   1.399   3.293   4.833  0.1423  0.5502  0.3419
 5983TIP3    H117955   1.391   3.346   4.754  0.5476  2.5714  1.5723
 5983TIP3    H217956   1.325   3.233   4.829 -0.2604  1.0988 -1.2096
 5984TIP3   OH217957   2.195   1.165   1.730 -0.3815 -0.2981  0.4692
 5984TIP3    H117958   2.115   1.129   1.692 -0.5175 -2.2173  2.4064
 5984TIP3    H217959   2.263   1.101   1.710 -0.3400 -1.0678  2.8113
 5985TIP3   OH217960   3.311   1.192   4.287  0.2389  0.4569  0.0413
 5985TIP3    H117961   3.295   1.111   4.238 -0.1358  0.2994  0.4182
 5985TIP3    H217962   3.224   1.230   4.300  0.3724  0.6936  0.2507
 5986TIP3   OH217963   2.439   2.992   4.332 -0.2324 -0.4351 -0.3638
 5986TIP3    H117964   2.351   2.960   4.310 -0.7597  0.2567  0.6742
 5986TIP3    H217965   2.439   3.001   4.427  1.7257 -2.5683 -0.0665
 5987TIP3   OH217966   2.266   2.442   2.581  0.1332  0.4835 -0.4376
 5987TIP3    H117967   2.246   2.373   2.644 -0.6937  0.0919 -1.1089
 5987TIP3    H217968   2.269   2.397   2.496  1.8863  0.8844 -0.6203
 5988TIP3   OH217969   1.357   5.888   4.398  0.4238 -0.0718 -0.3301
 5988TIP3    H117970   1.339   5.977   4.366  0.4740  0.1729  0.3031
 5988TIP3    H217971   1.435   5.898   4.452 -0.0381 -0.3461  0.4063
 5989TIP3   OH217972   4.750   2.927   3.292 -0.3796  0.3023 -0.1648
 5989TIP3    H117973   4.680   2.904   3.353  0.0169 -0.1234  0.1401
 5989TIP3    H217974   4.728   3.015   3.262 -0.1601  0.8526  1.2021
 5990TIP3   OH217975   5.190   0.866   2.850 -0.4200  0.6732 -0.1159
 5990TIP3    H117976   5.118   0.803   2.849 -0.5678  0.8386 -1.5657
 5990TIP3    H217977   5.149   0.949   2.875 -0.4362  0.4555  0.6085
 5991TIP3   OH217978   4.177   1.426   0.454  0.0130  0.1588  0.3391
 5991TIP3    H117979   4.157   1.520   0.462 -1.1853 -0.1529  1.2751
 5991TIP3    H217980   4.115   1.383   0.513 -0.2485 -1.3286 -0.9638
 5992TIP3   OH217981   5.026   0.786   5.090  0.2914 -0.1428  0.3956
 5992TIP3    H117982   5.118   0.769   5.068  0.4718  1.4041 -0.2167
 5992TIP3    H217983   4.997   0.847   5.022 -0.8416  0.3158  1.2689
 5993TIP3   OH217984   4.612   5.555   1.884 -0.2959  0.3257 -0.3179
 5993TIP3    H117985   4.597   5.543   1.978 -0.0785 -1.1821 -0.4478
 5993TIP3    H217986   4.546   5.501   1.842  0.8108 -0.5478 -0.9836
 5994TIP3   OH217987   6.284   2.781   4.098  0.2507 -0.0164 -0.2037
 5994TIP3    H117988   6.346   2.726   4.146  1.4053  1.3123 -0.1005
 5994TIP3    H217989   6.202   2.773   4.147  0.3389 -1.7391 -0.2932
 5995TIP3   OH217990   3.979   0.888   2.214 -0.2117  0.5019  0.0054
 5995TIP3    H117991   3.984   0.866   2.121  0.3684  1.8716 -0.3172
 5995TIP3    H217992   3.967   0.983   2.215  1.3050  0.7224  1.3500
 5996TIP3   OH217993   4.141   2.598   1.853  0.1726  0.4982  0.0578
 5996TIP3    H117994   4.180   2.672   1.806  1.1316 -0.8353 -1.3238
 5996TIP3    H217995   4.208   2.571   1.915 -1.1635  2.3755  2.4948
 5997TIP3   OH217996   0.533   2.119   5.052 -0.0870 -0.0516 -0.2030
 5997TIP3    H117997   0.460   2.180   5.059 -1.8678 -2.2017  1.5036
 5997TIP3    H217998   0.493   2.038   5.020  1.6920 -1.0557  0.0005
 5998TIP3   OH217999   2.547   0.359   4.292 -0.0832 -0.6672 -1.1873
 5998TIP3    H118000   2.549   0.264   4.300 -1.3934 -0.5733  2.8159
 5998TIP3    H218001   2.454   0.381   4.297  0.2687  0.8431 -0.7422
 5999TIP3   OH218002   0.745   3.931   1.776 -0.1894 -0.1256  0.2219
 5999TIP3    H118003   0.656   3.941   1.742 -0.1010  0.2506  0.0856
 5999TIP3    H218004   0.789   3.874   1.713 -0.5946 -1.0862  0.7913
 6000TIP3   OH218005   0.615   3.200   1.042 -0.0347 -0.0681 -0.3394
 6000TIP3    H118006   0.539   3.228   1.092 -1.3986 -1.3499 -1.6061
 6000TIP3    H218007   0.627   3.108   1.064 -0.4369 -0.5593 -2.0248
 6001TIP3   OH218008   0.167   5.927   4.959 -0.1614 -0.0262 -0.0430
 6001TIP3    H118009   0.219   5.917   4.879 -0.4041  0.2248 -0.2351
 6001TIP3    H218010   0.220   5.888   5.028  0.7155  1.1029 -0.0563
 6002TIP3   OH218011   0.033   0.395   0.745  0.2476  0.0268  0.0718
 6002TIP3    H118012   0.088   0.451   0.799  1.6647 -1.2372  0.0190
 6002TIP3    H218013   0.019   0.316   0.798 -0.6671 -0.0826 -0.3175
 6003TIP3   OH218014   4.768   4.315   4.329 -0.1973  0.0581  0.2409
 6003TIP3    H118015   4.851   4.362   4.328 -0.3310  0.3188 -1.1216
 6003TIP3    H218016   4.757   4.286   4.419  0.0303  2.3924  1.0810
 6004TIP3   OH218017   1.693   3.380   0.749 -0.0398 -0.0337  0.1953
 6004TIP3    H118018   1.608   3.375   0.794 -0.5348 -2.5643 -0.8374
 6004TIP3    H218019   1.733   3.295   0.767  1.5365  0.4780 -0.7737
 6005TIP3   OH218020   6.249   1.919   3.767  0.5895 -0.2163 -0.5892
 6005TIP3    H118021   6.312   1.906   3.838  0.3311  1.5093  0.0031
 6005TIP3    H218022   6.171   1.954   3.810 -0.1926 -0.7865 -1.5181
 6006TIP3   OH218023   1.422   5.307   2.931  0.1071 -0.1325 -0.3618
 6006TIP3    H118024   1.470   5.331   3.010  0.0239 -1.6773  0.1910
 6006TIP3    H218025   1.433   5.382   2.873 -0.0274  1.1461  1.1859
 6007TIP3   OH218026   1.479   1.409   4.758  0.7382  0.4522 -0.6612
 6007TIP3    H118027   1.424   1.480   4.791  0.3419  0.5138 -1.4307
 6007TIP3    H218028   1.492   1.351   4.834 -1.5457 -0.2952 -0.7823
 6008TIP3   OH218029   0.085   3.137   0.890  0.3176 -0.0416  0.1753
 6008TIP3    H118030   0.098   3.231   0.879  1.8175 -0.1300  0.9568
 6008TIP3    H218031   0.015   3.115   0.828 -0.3845  1.6549  0.3095
 6009TIP3   OH218032   6.084   1.609   4.619 -0.4053 -0.1502 -0.1120
 6009TIP3    H118033   6.030   1.531   4.608 -0.6578 -0.0380  0.2991
 6009TIP3    H218034   6.029   1.670   4.669  0.4109 -0.3692  1.1032
 6010TIP3   OH218035   5.334   5.039   2.462 -0.1611  0.3230 -0.0814
 6010TIP3    H118036   5.399   5.054   2.394 -0.5536  1.6323 -0.2056
 6010TIP3    H218037   5.302   4.950   2.447 -0.3708  0.6565 -1.7181
 6011TIP3   OH218038   5.457   1.497   0.583 -0.1126  0.5442 -0.4830
 6011TIP3    H118039   5.369   1.464   0.600  0.0089  0.0278 -0.8550
 6011TIP3    H218040   5.507   1.474   0.661 -0.8272  2.8169  0.7600
 6012TIP3   OH218041   0.374   0.811   2.275  0.0361 -1.1097 -0.0119
 6012TIP3    H118042   0.342   0.901   2.277 -2.3464 -1.8887 -0.2304
 6012TIP3    H218043   0.427   0.806   2.195  0.8155  0.2446  0.3862
 6013TIP3   OH218044   2.215   2.562   2.987  0.2400 -0.3165 -0.0379
 6013TIP3    H118045   2.127   2.522   2.989 -0.1567  0.5692  1.3757
 6013TIP3    H218046   2.201   2.647   2.946  0.5031 -0.3064 -0.1054
 6014TIP3   OH218047   1.252   0.248   3.742 -0.1078 -0.5101 -0.3677
 6014TIP3    H118048   1.325   0.309   3.735  0.5296 -1.3962 -2.0712
 6014TIP3    H218049   1.191   0.275   3.674 -0.5222 -0.8774 -0.1496
 6015TIP3   OH218050   6.223   0.899   2.241  0.1806 -0.8268  0.2531
 6015TIP3    H118051   6.261   0.985   2.256  0.4825 -0.8885 -0.1559
 6015TIP3    H218052   6.218   0.860   2.329  0.4878 -0.5812  0.3824
 6016TIP3   OH218053   5.237   3.669   4.100 -0.1199  0.3362  0.3330
 6016TIP3    H118054   5.156   3.645   4.056  0.6414 -0.8996 -0.4443
 6016TIP3    H218055   5.212   3.740   4.159 -1.3250  1.5165 -1.5006
 6017TIP3   OH218056   2.480   2.547   0.527  0.1208 -0.3175  0.0050
 6017TIP3    H118057   2.424   2.514   0.598  0.2732 -1.6394 -0.4671
 6017TIP3    H218058   2.442   2.510   0.448  1.2140 -0.6160 -0.3924
 6018TIP3   OH218059   5.679   4.398   0.763 -0.0811  0.4562  0.0009
 6018TIP3    H118060   5.773   4.413   0.764  0.2615 -1.4626  0.0948
 6018TIP3    H218061   5.643   4.470   0.711  1.1703  2.3955  1.6818
 6019TIP3   OH218062   4.965   4.422   3.094  0.8572 -0.2884 -0.6808
 6019TIP3    H118063   4.935   4.341   3.137 -0.4579 -0.6683 -2.2122
 6019TIP3    H218064   4.973   4.398   3.002  2.8009  0.7257 -0.8282
 6020TIP3   OH218065   3.978   5.060   3.295 -0.4968  0.2271  0.2134
 6020TIP3    H118066   4.072   5.059   3.281 -0.6626  0.0073 -0.9445
 6020TIP3    H218067   3.952   5.151   3.286 -0.2876  0.4193  1.3915
 6021TIP3   OH218068   4.586   1.559   1.851 -0.2798  0.1477  0.0310
 6021TIP3    H118069   4.626   1.484   1.809  1.3234  0.3755  1.0728
 6021TIP3    H218070   4.539   1.604   1.781  1.0022 -0.3458 -1.1820
 6022TIP3   OH218071   4.978   0.193   2.599  0.0735  0.3232  0.0288
 6022TIP3    H118072   4.912   0.247   2.643 -0.3783  0.3546 -0.6799
 6022TIP3    H218073   4.945   0.104   2.606 -0.4353  0.4177 -0.9825
 6023TIP3   OH218074   3.024   2.895   1.149 -0.3336  0.1531 -0.0678
 6023TIP3    H118075   2.955   2.929   1.092  0.7681  1.1134 -0.8989
 6023TIP3    H218076   2.991   2.810   1.179 -1.7432  0.4647 -0.6416
 6024TIP3   OH218077   0.595   3.146   0.715 -0.3261  0.3451 -0.2936
 6024TIP3    H118078   0.612   3.240   0.729 -0.5613  0.1568  1.4406
 6024TIP3    H218079   0.537   3.121   0.787  0.0330 -1.2234 -0.5145
 6025TIP3   OH218080   4.619   1.576   4.533  0.2345  0.1480  0.1702
 6025TIP3    H118081   4.616   1.671   4.519 -0.0912  0.1347  0.1292
 6025TIP3    H218082   4.603   1.539   4.447 -0.8147  0.0628  0.3876
 6026TIP3   OH218083   0.078   1.065   1.866  0.0265 -0.3706 -0.2581
 6026TIP3    H118084   0.050   1.110   1.786 -2.2006  0.8526  1.0849
 6026TIP3    H218085   0.127   1.131   1.915  2.2678 -1.4181 -0.9833
 6027TIP3   OH218086   5.830   1.886   3.826 -0.6424 -0.4492 -0.4743
 6027TIP3    H118087   5.816   1.819   3.760 -0.2844 -0.1353 -0.8711
 6027TIP3    H218088   5.866   1.839   3.901 -0.0506 -0.6465 -0.8762
 6028TIP3   OH218089   4.737   5.008   1.835  0.2452 -0.2057  0.4516
 6028TIP3    H118090   4.700   5.093   1.811 -0.9592 -1.2618 -1.7050
 6028TIP3    H218091   4.662   4.949   1.841  1.1694 -1.4210  0.5481
 6029TIP3   OH218092   5.404   4.298   3.319  0.4738 -0.3253 -0.1227
 6029TIP3    H118093   5.333   4.235   3.329 -2.0881  2.3242 -0.2726
 6029TIP3    H218094   5.413   4.338   3.406  0.9517  0.2097 -0.4049
 6030TIP3   OH218095   5.388   0.558   2.922 -0.3993  0.7687 -0.2728
 6030TIP3    H118096   5.319   0.517   2.871 -1.0174  0.0202  1.1128
 6030TIP3    H218097   5.386   0.650   2.895  0.0238  0.2188 -2.3426
 6031TIP3   OH218098   3.276   1.458   4.896  0.4244 -0.2443  0.3391
 6031TIP3    H118099   3.296   1.537   4.845  0.8409  0.1181  1.0509
 6031TIP3    H218100   3.189   1.432   4.866 -0.4921  1.5117  1.3287
 6032TIP3   OH218101   1.429   5.723   3.401 -0.3922 -0.0615  0.1522
 6032TIP3    H118102   1.463   5.662   3.466  1.4116 -0.5715 -1.1841
 6032TIP3    H218103   1.444   5.810   3.440 -0.7682 -0.3864  1.0481
 6033TIP3   OH218104   6.162   3.051   4.816  0.4764  0.4384 -0.5054
 6033TIP3    H118105   6.159   3.132   4.867  1.9861 -0.0759  0.4631
 6033TIP3    H218106   6.246   3.011   4.839  0.1394 -0.9899 -1.6089
 6034TIP3   OH218107   5.180   2.317   2.315 -0.7530 -0.1090  0.4896
 6034TIP3    H118108   5.265   2.296   2.353 -0.7407 -1.4995 -0.2282
 6034TIP3    H218109   5.127   2.238   2.330 -1.3646  0.0774 -0.5800
 6035TIP3   OH218110   4.528   2.273   1.911 -0.4061  0.4357  0.6377
 6035TIP3    H118111   4.595   2.253   1.845  1.0402  1.5413  1.6977
 6035TIP3    H218112   4.508   2.188   1.951  1.8410  0.2794  1.6038
 6036TIP3   OH218113   4.646   0.188   4.078  0.1530 -0.4284  0.2092
 6036TIP3    H118114   4.724   0.214   4.028  0.0329  0.8261  0.6489
 6036TIP3    H218115   4.577   0.183   4.012  0.6329 -1.8175 -0.2316
 6037TIP3   OH218116   3.230   1.940   1.496 -0.6897  0.4460 -0.0943
 6037TIP3    H118117   3.285   1.865   1.520 -0.7549  1.1441  2.5973
 6037TIP3    H218118   3.292   2.006   1.466 -0.3577  0.2248  0.0924
 6038TIP3   OH218119   1.686   2.539   2.362 -0.2338 -0.0474  0.3645
 6038TIP3    H118120   1.697   2.624   2.320 -0.0741 -0.4665 -0.4546
 6038TIP3    H218121   1.601   2.508   2.332  1.2718 -1.8557 -2.4516
 6039TIP3   OH218122   3.428   2.413   1.423  0.7215 -0.1256 -0.2009
 6039TIP3    H118123   3.393   2.494   1.386 -1.8329 -1.3816 -0.8037
 6039TIP3    H218124   3.521   2.416   1.404  0.7489  2.7296 -0.0283
 6040TIP3   OH218125   4.315   2.158   4.124 -0.6647  0.6406  0.5566
 6040TIP3    H118126   4.316   2.144   4.029  0.1215  1.4861  0.4278
 6040TIP3    H218127   4.407   2.151   4.150 -0.7399  1.5355  1.0854
 6041TIP3   OH218128   4.060   2.187   3.209  0.6999 -0.2439 -0.7763
 6041TIP3    H118129   4.037   2.131   3.283  1.7290 -0.5737 -0.6903
 6041TIP3    H218130   3.978   2.195   3.159  0.1361 -0.4768  0.0855
 6042TIP3   OH218131   3.147   4.207   1.017 -0.4634  0.0084  0.3536
 6042TIP3    H118132   3.222   4.148   1.018  0.5352  1.0865 -2.3548
 6042TIP3    H218133   3.094   4.178   0.943 -1.0411  1.2118  0.2672
 6043TIP3   OH218134   3.195   3.371   4.078 -0.1857  0.1149 -0.5394
 6043TIP3    H118135   3.111   3.328   4.089 -1.9823  2.8524 -2.2582
 6043TIP3    H218136   3.224   3.345   3.991 -0.1216  0.5111 -0.6389
 6044TIP3   OH218137   3.070   4.088   4.698 -0.3673 -0.5350  0.4025
 6044TIP3    H118138   3.128   4.156   4.732  2.9152 -1.5650 -2.4815
 6044TIP3    H218139   3.081   4.014   4.758 -1.7745  0.4964  1.9899
 6045TIP3   OH218140   3.926   1.490   1.223  0.1889  0.0360 -0.5287
 6045TIP3    H118141   3.924   1.395   1.223 -0.2042  0.0241  0.6292
 6045TIP3    H218142   3.929   1.514   1.316 -1.0042  1.1652 -0.7431
 6046TIP3   OH218143   4.239   4.606   2.277  0.0357  0.0565  0.1168
 6046TIP3    H118144   4.203   4.612   2.366  1.1065  1.1955  0.5117
 6046TIP3    H218145   4.223   4.516   2.250 -1.6703  0.1066  0.8701
 6047TIP3   OH218146   3.814   1.115   2.545 -0.5874 -0.3219  0.3395
 6047TIP3    H118147   3.796   1.057   2.471 -0.7752 -0.7058  0.6857
 6047TIP3    H218148   3.882   1.071   2.595  0.3393  0.4626 -0.1965
 6048TIP3   OH218149   5.402   5.296   4.891  0.0534  0.2117 -0.3760
 6048TIP3    H118150   5.335   5.242   4.933 -0.4331 -0.4062 -1.8630
 6048TIP3    H218151   5.479   5.240   4.887  0.6527  0.8767  1.2136
 6049TIP3   OH218152   0.421   0.193   4.589 -0.3092  0.1697 -0.3884
 6049TIP3    H118153   0.438   0.220   4.679 -0.3745 -1.2352  0.0704
 6049TIP3    H218154   0.332   0.158   4.591 -0.6732  1.0006 -1.2273
 6050TIP3   OH218155   2.859   3.780   2.371  0.2503  0.4976 -0.4376
 6050TIP3    H118156   2.793   3.807   2.308  1.3443  1.3740 -1.2527
 6050TIP3    H218157   2.881   3.690   2.346  0.7767  0.8815 -1.4346
 6051TIP3   OH218158   3.879   4.984   1.531 -0.3113  0.7728 -0.1877
 6051TIP3    H118159   3.886   4.889   1.535  1.1514  0.9092  2.1311
 6051TIP3    H218160   3.805   5.005   1.588  2.4612  1.1706  3.6400
 6052TIP3   OH218161   4.108   3.217   0.751  0.1874 -0.5824 -0.0653
 6052TIP3    H118162   4.169   3.284   0.722 -0.4642 -0.3934 -1.0710
 6052TIP3    H218163   4.129   3.140   0.697  0.0423 -0.7479  0.1143
 6053TIP3   OH218164   3.564   4.080   4.343  0.2349  0.4314  0.1113
 6053TIP3    H118165   3.626   4.153   4.345  1.0858 -0.2862  0.5323
 6053TIP3    H218166   3.508   4.094   4.420 -0.2723  1.1889 -0.3795
 6054TIP3   OH218167   1.261   2.872   4.214  0.2015  0.5709  0.1053
 6054TIP3    H118168   1.246   2.919   4.296 -0.8496  0.1509  0.1648
 6054TIP3    H218169   1.209   2.792   4.222 -0.3823  0.7905 -1.1878
 6055TIP3   OH218170   2.990   3.177   1.272 -0.2976  0.3146  0.4897
 6055TIP3    H118171   3.032   3.100   1.235 -0.6429 -1.1190  2.9348
 6055TIP3    H218172   3.053   3.213   1.334 -0.2015  1.9959 -0.4868
 6056TIP3   OH218173   4.314   5.970   0.548 -0.6646 -0.1149  0.1089
 6056TIP3    H118174   4.237   5.936   0.503 -0.0256 -1.3013 -0.1497
 6056TIP3    H218175   4.382   5.971   0.481  0.3052 -1.9046  0.9996
 6057TIP3   OH218176   3.779   1.962   2.699  0.1314 -0.0749 -0.4283
 6057TIP3    H118177   3.748   1.965   2.790  0.9776  0.4660 -0.1525
 6057TIP3    H218178   3.728   2.029   2.655 -0.1753 -0.2357 -0.3281
 6058TIP3   OH218179   4.873   4.033   4.714  0.0278 -0.1163 -0.6299
 6058TIP3    H118180   4.840   3.977   4.785  3.4402 -1.1192  0.3719
 6058TIP3    H218181   4.878   3.975   4.638  0.2217 -0.1841 -0.5656
 6059TIP3   OH218182   5.676   1.390   1.529 -0.5804 -0.4797 -0.9010
 6059TIP3    H118183   5.702   1.298   1.532  1.2437 -0.0085 -0.5825
 6059TIP3    H218184   5.686   1.421   1.619  0.0773  0.3158 -1.2300
 6060TIP3   OH218185   2.908   2.286   2.968  0.3544 -0.2056 -0.1661
 6060TIP3    H118186   2.833   2.345   2.961  2.0357  1.9630 -1.3905
 6060TIP3    H218187   2.887   2.212   2.911  0.1081  1.5634 -2.5014
 6061TIP3   OH218188   3.428   3.762   3.634  0.0164  0.2981  0.3183
 6061TIP3    H118189   3.412   3.791   3.544 -0.4760 -1.0685 -0.0695
 6061TIP3    H218190   3.342   3.739   3.668  0.3008 -0.0514  0.8284
 6062TIP3   OH218191   1.696   3.728   1.168 -0.4468  0.6565  0.4807
 6062TIP3    H118192   1.676   3.728   1.261  1.3817  1.2535  0.9183
 6062TIP3    H218193   1.787   3.699   1.163 -1.4849 -2.8486 -1.4117
 6063TIP3   OH218194   0.324   4.013   2.183  0.2597  0.4655 -0.0085
 6063TIP3    H118195   0.352   3.954   2.113 -0.2251 -1.1374  1.0836
 6063TIP3    H218196   0.234   3.985   2.203  0.9362 -0.2703  2.3336
 6064TIP3   OH218197   6.049   4.135   1.574  0.2777  0.0727 -0.5174
 6064TIP3    H118198   6.108   4.153   1.648 -0.3651 -2.4887  0.7584
 6064TIP3    H218199   5.971   4.187   1.593  0.8383  0.8999 -0.4231
 6065TIP3   OH218200   4.177   3.020   0.075 -0.2548 -0.3343  0.1003
 6065TIP3    H118201   4.095   3.009   0.027 -0.0479 -0.0897 -0.3219
 6065TIP3    H218202   4.203   2.931   0.099 -1.5614 -0.2954  1.8481
 6066TIP3   OH218203   5.675   0.792   4.399  0.1153 -0.1468  0.0928
 6066TIP3    H118204   5.705   0.883   4.404  1.9830 -0.7775  2.4623
 6066TIP3    H218205   5.713   0.759   4.318  1.3486  0.6031  0.3346
 6067TIP3   OH218206   1.805   2.544   4.041 -0.0288  0.5199  0.0706
 6067TIP3    H118207   1.786   2.565   4.133 -2.9687  2.1893 -0.7702
 6067TIP3    H218208   1.789   2.449   4.035  1.0275  0.2200  1.3984
 6068TIP3   OH218209   0.954   5.289   3.564 -0.6621 -0.1014  0.0462
 6068TIP3    H118210   0.979   5.380   3.549  0.0644 -0.0203  1.5781
 6068TIP3    H218211   0.875   5.277   3.512 -1.3706  1.7132  0.6217
 6069TIP3   OH218212   3.612   4.721   3.247  0.2766  0.9085 -0.1070
 6069TIP3    H118213   3.624   4.810   3.214 -0.6063  0.7314 -0.9361
 6069TIP3    H218214   3.526   4.694   3.215 -0.6983  0.7313  2.3971
 6070TIP3   OH218215   4.352   5.266   1.615  0.3620  0.1913  0.0952
 6070TIP3    H118216   4.262   5.235   1.612  1.0080 -1.7444 -2.1297
 6070TIP3    H218217   4.370   5.296   1.526  2.7615 -2.1980 -0.3289
 6071TIP3   OH218218   3.853   0.194   3.081  0.3233  0.2065 -0.2208
 6071TIP3    H118219   3.896   0.207   3.166  0.3851 -2.6121  0.2955
 6071TIP3    H218220   3.880   0.269   3.028  3.3156  0.2043  1.0884
 6072TIP3   OH218221   4.083   5.377   0.183 -0.2149 -0.0401  0.4243
 6072TIP3    H118222   4.079   5.460   0.231 -1.3425 -0.6236  1.3700
 6072TIP3    H218223   4.035   5.395   0.102 -0.9250  0.0782  0.8682
 6073TIP3   OH218224   1.460   1.804   4.120  0.1917  0.0122  0.0282
 6073TIP3    H118225   1.470   1.899   4.125 -0.4663  0.2991 -2.4910
 6073TIP3    H218226   1.535   1.774   4.069 -0.8119 -0.4884 -1.2020
 6074TIP3   OH218227   0.563   1.093   3.785  0.4407  0.0282  0.0360
 6074TIP3    H118228   0.474   1.130   3.787  0.0086 -1.0070  0.9815
 6074TIP3    H218229   0.554   1.014   3.731  0.8030 -0.0548  0.1001
 6075TIP3   OH218230   5.556   0.591   1.112 -0.2874 -0.4171 -0.0788
 6075TIP3    H118231   5.590   0.628   1.193 -2.0565  0.1518  0.4347
 6075TIP3    H218232   5.519   0.506   1.137 -0.3530 -0.4850 -0.3964
 6076TIP3   OH218233   3.560   4.314   5.150 -0.1132 -0.2262  0.1842
 6076TIP3    H118234   3.534   4.256   5.079  0.2635 -0.8146  0.5144
 6076TIP3    H218235   3.647   4.345   5.126 -0.2832  0.1503  0.0448
 6077TIP3   OH218236   2.523   5.070   4.701  0.5812 -0.5168 -0.1679
 6077TIP3    H118237   2.492   5.099   4.615 -1.9626  0.0037  0.8154
 6077TIP3    H218238   2.522   4.974   4.696 -0.6825 -0.5099 -0.4036
 6078TIP3   OH218239   6.275   2.591   2.625 -0.3059  1.2076  0.6280
 6078TIP3    H118240   6.297   2.501   2.602  0.1612  0.1936  4.4567
 6078TIP3    H218241   6.179   2.591   2.633 -0.3912  1.3450 -0.2430
 6079TIP3   OH218242   5.746   1.877   4.580  0.5322  0.2080  0.1527
 6079TIP3    H118243   5.785   1.823   4.648 -0.5137 -1.0419 -0.1938
 6079TIP3    H218244   5.792   1.851   4.499 -1.4097 -1.8149 -0.3846
 6080TIP3   OH218245   0.187   3.239   1.482 -0.0272 -0.6745 -0.5876
 6080TIP3    H118246   0.177   3.328   1.448 -0.0207  0.0330  1.1631
 6080TIP3    H218247   0.099   3.202   1.479 -0.4910  0.2143  0.7354
 6081TIP3   OH218248   1.591   2.939   4.855  0.1568  0.3583 -0.3715
 6081TIP3    H118249   1.500   2.947   4.828  0.2373  2.3849 -0.1929
 6081TIP3    H218250   1.589   2.881   4.931 -1.1164  1.1092  0.1970
 6082TIP3   OH218251   4.612   1.893   2.968  0.2589 -0.0433 -0.1568
 6082TIP3    H118252   4.635   1.911   2.877 -2.4643 -0.4872 -1.0452
 6082TIP3    H218253   4.620   1.798   2.976  0.6128  0.0090  0.1034
 6083TIP3   OH218254   2.018   3.946   2.485  0.1581 -0.2130  0.1201
 6083TIP3    H118255   2.113   3.937   2.478  0.0061 -3.5951  0.7013
 6083TIP3    H218256   1.988   3.956   2.395  0.9786 -0.3450 -0.1758
 6084TIP3   OH218257   4.533   0.234   2.919  0.5348 -0.2228  0.1704
 6084TIP3    H118258   4.539   0.139   2.927  1.1989 -0.1220  1.0219
 6084TIP3    H218259   4.442   0.251   2.894  0.7777 -1.1628 -1.5236
 6085TIP3   OH218260   3.000   3.030   2.903  0.3725 -0.0225 -0.2772
 6085TIP3    H118261   2.935   3.019   2.973  1.4830  1.0919  0.9877
 6085TIP3    H218262   3.034   2.943   2.887  0.0795 -0.2978  0.5633
 6086TIP3   OH218263   3.434   0.785   3.521  0.1775 -0.5109  0.0925
 6086TIP3    H118264   3.469   0.874   3.516 -0.8454 -0.0572  0.5685
 6086TIP3    H218265   3.400   0.767   3.433  0.2022 -0.3528  0.0510
 6087TIP3   OH218266   5.236   1.499   3.305  0.0737 -0.3318  0.0184
 6087TIP3    H118267   5.315   1.548   3.283 -0.3176 -0.0769 -0.8837
 6087TIP3    H218268   5.255   1.459   3.390  0.7925  0.5302  0.2796
 6088TIP3   OH218269   2.022   2.681   3.938  0.5373  0.3244 -0.2748
 6088TIP3    H118270   1.931   2.667   3.965  0.9145 -1.4431  0.1784
 6088TIP3    H218271   2.021   2.664   3.844  0.2116  1.4315 -0.4920
 6089TIP3   OH218272   2.001   0.166   1.688 -0.3047 -0.1588 -0.4906
 6089TIP3    H118273   2.035   0.155   1.776  0.4262  0.5162 -0.6781
 6089TIP3    H218274   2.072   0.209   1.640 -1.0438  0.3521 -1.1512
 6090TIP3   OH218275   1.069   5.255   0.078  0.4969  0.2568  0.0684
 6090TIP3    H118276   1.028   5.170   0.094 -0.1225  0.0081 -2.4145
 6090TIP3    H218277   1.155   5.235   0.042 -0.2703  0.5736 -2.0788
 6091TIP3   OH218278   6.266   1.849   0.938 -0.1956 -0.5833 -0.2657
 6091TIP3    H118279   6.184   1.879   0.900 -0.9767 -0.8729  1.1182
 6091TIP3    H218280   6.296   1.780   0.879 -0.6602 -0.1075 -1.0728
 6092TIP3   OH218281   5.409   4.369   0.133  0.2172 -0.0699  0.2519
 6092TIP3    H118282   5.319   4.402   0.135  0.5435  0.8365  1.4169
 6092TIP3    H218283   5.451   4.419   0.063  0.3417  1.0427  1.0910
 6093TIP3   OH218284   5.568   3.474   1.527  0.2583 -0.2090  0.1922
 6093TIP3    H118285   5.537   3.550   1.479  0.1445 -1.4526 -1.7978
 6093TIP3    H218286   5.491   3.418   1.538  0.6078 -0.6603  0.4109
 6094TIP3   OH218287   0.334   3.536   0.059  0.4761 -0.0107 -0.3632
 6094TIP3    H118288   0.427   3.521   0.081  0.6532 -0.2312 -1.2442
 6094TIP3    H218289   0.336   3.607  -0.005  0.0583 -0.2314 -0.6208
 6095TIP3   OH218290   5.482   1.172   1.537  0.1496  0.4400 -0.1874
 6095TIP3    H118291   5.489   1.238   1.606  1.7332 -1.1231  1.2763
 6095TIP3    H218292   5.439   1.217   1.465  1.1867  3.0804  0.6961
 6096TIP3   OH218293   3.828   1.774   3.578  0.5465 -0.4770  0.0856
 6096TIP3    H118294   3.734   1.793   3.581  0.4196 -0.9910 -0.4350
 6096TIP3    H218295   3.867   1.834   3.641 -0.0422  0.3389 -0.3059
 6097TIP3   OH218296   5.792   5.472   2.912  0.2310 -0.2352 -0.1339
 6097TIP3    H118297   5.737   5.395   2.899 -0.0795  0.0681 -0.6038
 6097TIP3    H218298   5.731   5.545   2.919  0.3203 -0.3134  2.9709
 6098TIP3   OH218299   3.847   4.296   4.041 -0.0806 -0.0377  0.5977
 6098TIP3    H118300   3.894   4.378   4.048 -1.7317  0.9447  0.6803
 6098TIP3    H218301   3.798   4.302   3.959 -0.7904 -0.6063  0.9613
 6099TIP3   OH218302   1.324   2.020   2.818  0.6205  0.3812  0.4189
 6099TIP3    H118303   1.375   2.003   2.739  0.9835 -0.8868  0.9098
 6099TIP3    H218304   1.390   2.025   2.888  0.2272  0.6070  0.7759
 6100TIP3   OH218305   1.981   1.043   2.630  0.3331 -0.2341  0.0834
 6100TIP3    H118306   2.025   1.083   2.704  2.0393 -1.4663 -0.1785
 6100TIP3    H218307   2.036   1.065   2.555 -1.5353  1.2740 -0.9185
 6101TIP3   OH218308   2.217   3.782   3.593 -0.3989 -0.7747 -0.0936
 6101TIP3    H118309   2.215   3.716   3.663  1.5964 -0.8506 -0.0486
 6101TIP3    H218310   2.254   3.735   3.518  0.9916  0.2391 -0.0777
 6102TIP3   OH218311   2.901   0.973   4.508 -0.1922 -0.0986  0.7037
 6102TIP3    H118312   2.922   0.935   4.423  2.6933  0.6209  0.9835
 6102TIP3    H218313   2.918   0.903   4.571 -0.2061  0.0067  0.8260
 6103TIP3   OH218314   2.009   1.013   1.033  0.2452 -0.2097  0.0312
 6103TIP3    H118315   2.005   1.081   0.965 -2.4779 -0.5065 -0.2123
 6103TIP3    H218316   2.077   0.953   1.002  1.1273  1.2011 -0.8929
 6104TIP3   OH218317   1.240   4.273   3.633 -0.0435  0.2458  0.1007
 6104TIP3    H118318   1.215   4.193   3.679 -0.7084  0.5063  0.2053
 6104TIP3    H218319   1.168   4.288   3.571  1.0453 -0.3577 -1.3647
 6105TIP3   OH218320   2.059   3.850   0.957  0.5674  0.0004  0.1221
 6105TIP3    H118321   2.011   3.873   1.037 -1.4985 -0.6999 -0.8383
 6105TIP3    H218322   2.117   3.925   0.941  0.2795  0.5961  1.7107
 6106TIP3   OH218323   6.244   4.625   2.403  0.4432 -0.1419  0.5836
 6106TIP3    H118324   6.213   4.699   2.351  0.7542 -1.2964 -1.3374
 6106TIP3    H218325   6.220   4.647   2.493 -1.6681  1.1512 -0.2256
 6107TIP3   OH218326   5.042   0.272   1.155  0.2673  0.6346  0.0558
 6107TIP3    H118327   5.007   0.299   1.240  0.6760  1.1140  0.0761
 6107TIP3    H218328   5.124   0.227   1.176  0.3613  0.7393 -0.0875
 6108TIP3   OH218329   3.273   3.964   1.562  0.6347 -0.1844 -0.0588
 6108TIP3    H118330   3.202   3.957   1.626 -0.3556 -0.4253 -1.1660
 6108TIP3    H218331   3.301   4.056   1.567 -0.0209  0.0096  0.1111
 6109TIP3   OH218332   1.167   0.886   4.573 -0.1243 -0.0975 -0.4717
 6109TIP3    H118333   1.189   0.793   4.563  1.2068 -0.2684  2.7866
 6109TIP3    H218334   1.072   0.887   4.584 -0.3357 -0.8609 -1.9404
 6110TIP3   OH218335   4.824   1.216   3.795 -0.0776  0.7710  0.3461
 6110TIP3    H118336   4.879   1.264   3.857 -1.2834 -0.5865  2.6368
 6110TIP3    H218337   4.833   1.124   3.822 -3.1761  0.4676  0.7060
 6111TIP3   OH218338   5.477   2.005   3.381 -0.2454 -0.0344  0.4821
 6111TIP3    H118339   5.407   2.061   3.348 -0.1047 -2.0567 -3.9764
 6111TIP3    H218340   5.552   2.064   3.389 -0.5629  0.8897 -2.2428
 6112TIP3   OH218341   3.748   5.156   1.069 -0.6903 -0.0837  0.0384
 6112TIP3    H118342   3.777   5.194   1.152 -1.3245 -0.3091  0.3752
 6112TIP3    H218343   3.807   5.082   1.055 -0.3673  0.1584  0.1229
 6113TIP3   OH218344   1.581   3.389   0.317  0.2997 -0.3258 -0.5637
 6113TIP3    H118345   1.632   3.311   0.292  0.9348 -0.3018  0.5814
 6113TIP3    H218346   1.634   3.463   0.287  0.9159 -0.3042  0.5075
 6114TIP3   OH218347   3.642   4.897   2.888  0.4677  0.3555  0.1369
 6114TIP3    H118348   3.650   4.915   2.981 -0.9090 -1.8863  0.7586
 6114TIP3    H218349   3.686   4.813   2.875 -2.5753 -1.3037 -0.4044
 6115TIP3   OH218350   2.985   3.540   3.441  0.5679 -0.7071  0.1805
 6115TIP3    H118351   2.899   3.578   3.459  1.1058  0.2115  0.8865
 6115TIP3    H218352   2.967   3.470   3.378 -0.4234  0.8494 -1.3444
 6116TIP3   OH218353   2.642   0.565   0.599 -0.2561  0.1951 -0.2098
 6116TIP3    H118354   2.605   0.611   0.523  0.2750  0.2098 -0.4679
 6116TIP3    H218355   2.713   0.621   0.629  0.2825 -0.3552 -0.4152
 6117TIP3   OH218356   2.247   0.538   4.640  0.4388 -0.1776  0.3552
 6117TIP3    H118357   2.326   0.592   4.649  0.3355  0.3128 -1.2814
 6117TIP3    H218358   2.273   0.452   4.673  1.0582  0.4587  1.6098
 6118TIP3   OH218359   4.176   2.801   4.050  0.1748 -0.2605 -0.0483
 6118TIP3    H118360   4.203   2.775   4.139  0.4711 -0.0808 -0.0832
 6118TIP3    H218361   4.154   2.718   4.007 -0.7234 -0.2852  0.4315
 6119TIP3   OH218362   3.425   5.572   0.479  0.2667 -0.5371 -0.2513
 6119TIP3    H118363   3.341   5.602   0.513 -0.7506 -0.5902 -2.5601
 6119TIP3    H218364   3.466   5.651   0.443  0.3535 -0.8403 -0.8266
 6120TIP3   OH218365   4.141   2.724   2.208 -0.1846  0.0503  0.1390
 6120TIP3    H118366   4.060   2.769   2.182 -0.6295  0.4185  1.9786
 6120TIP3    H218367   4.117   2.631   2.210 -0.1191  0.0069 -0.7791
 6121TIP3   OH218368   6.005   0.526   2.711 -0.3165 -0.1909 -0.3516
 6121TIP3    H118369   5.928   0.492   2.756 -1.2947  1.4334 -0.6983
 6121TIP3    H218370   6.016   0.470   2.634 -0.7850 -0.7875  0.0095
 6122TIP3   OH218371   5.319   3.617   4.363 -0.2388  0.0776  0.1225
 6122TIP3    H118372   5.386   3.570   4.413 -0.2418  0.7295  0.7436
 6122TIP3    H218373   5.312   3.568   4.280  2.8562  1.4688 -1.0826
 6123TIP3   OH218374   0.214   5.776   4.008  0.4647  0.5237 -0.4921
 6123TIP3    H118375   0.135   5.728   3.983  1.2635 -0.2633 -1.6528
 6123TIP3    H218376   0.196   5.809   4.096 -0.9931  0.0328 -0.5790
 6124TIP3   OH218377   6.226   1.864   2.259 -0.1786 -0.3649 -0.1909
 6124TIP3    H118378   6.280   1.935   2.294 -3.4062  1.3580  1.8181
 6124TIP3    H218379   6.165   1.907   2.200 -2.3222 -1.3253  1.1949
 6125TIP3   OH218380   3.606   2.715   4.505  0.1811 -0.4681 -0.2264
 6125TIP3    H118381   3.614   2.770   4.583  0.5571  1.1675 -1.3572
 6125TIP3    H218382   3.513   2.691   4.502 -0.1965  0.9127 -0.2031
 6126TIP3   OH218383   0.598   3.889   2.569 -0.0270  0.1231 -0.3497
 6126TIP3    H118384   0.597   3.974   2.525  3.8431  0.3722 -0.3115
 6126TIP3    H218385   0.623   3.827   2.501  0.6974 -0.3759  0.3525
 6127TIP3   OH218386   0.477   2.455   0.847  0.3046  0.0800  0.0943
 6127TIP3    H118387   0.384   2.454   0.825  0.0002  2.1599  1.0143
 6127TIP3    H218388   0.483   2.402   0.926 -0.5068  1.5835  1.2247
 6128TIP3   OH218389   2.123   1.500   4.842 -0.2526  0.1418 -0.1035
 6128TIP3    H118390   2.082   1.565   4.785  2.2696  1.8847 -0.0568
 6128TIP3    H218391   2.146   1.427   4.783  0.4797  1.0294 -0.9397
 6129TIP3   OH218392   5.557  -0.010   2.151 -0.3766 -0.2377 -0.2143
 6129TIP3    H118393   5.558   0.086   2.148  0.9949 -0.2486 -3.2108
 6129TIP3    H218394   5.490  -0.035   2.087  0.3119 -1.2723 -0.5443
 6130TIP3   OH218395   3.337   4.083   3.195 -0.2241 -0.4942  0.4038
 6130TIP3    H118396   3.384   4.037   3.126  0.8719 -0.9342  1.4064
 6130TIP3    H218397   3.258   4.117   3.152  0.3764 -0.8323 -1.0219
 6131TIP3   OH218398   5.369   4.858   1.809 -0.3842 -0.2503 -0.3228
 6131TIP3    H118399   5.321   4.913   1.747  0.4365  0.6463 -0.1771
 6131TIP3    H218400   5.380   4.912   1.887 -1.9589 -1.5831  0.9070
 6132TIP3   OH218401   5.749   1.104   4.386  0.0373  0.2739 -0.6151
 6132TIP3    H118402   5.831   1.106   4.435  0.3325  2.2245 -1.1009
 6132TIP3    H218403   5.774   1.121   4.296 -0.7896 -0.3758 -0.9793
 6133TIP3   OH218404   5.854   1.164   3.353  0.0985  0.2051 -0.3962
 6133TIP3    H118405   5.845   1.124   3.440 -1.4791  0.3138 -0.4881
 6133TIP3    H218406   5.800   1.243   3.357  0.1051  0.2775 -1.4398
 6134TIP3   OH218407   2.422   4.113   1.672 -0.3726 -0.5207  0.4759
 6134TIP3    H118408   2.516   4.100   1.672 -0.5512 -2.0264 -0.3135
 6134TIP3    H218409   2.390   4.059   1.744 -0.8217 -1.8563 -0.6833
 6135TIP3   OH218410   3.805   5.734   1.395 -0.0351  0.1122 -0.4552
 6135TIP3    H118411   3.846   5.778   1.470 -1.3789  0.4562  0.0986
 6135TIP3    H218412   3.851   5.770   1.319  0.6549  0.5227  0.1327
 6136TIP3   OH218413   2.908   3.023   2.646 -0.4676  0.0814  0.2495
 6136TIP3    H118414   2.934   3.025   2.738  0.9690 -3.3936  0.0803
 6136TIP3    H218415   2.989   3.037   2.597 -1.2712  2.2377 -0.5872
 6137TIP3   OH218416   0.510   2.354   2.857 -0.1911  0.1073 -0.0776
 6137TIP3    H118417   0.420   2.323   2.868  0.5822 -2.4692 -0.4401
 6137TIP3    H218418   0.552   2.288   2.802  2.1257  0.8334  0.6993
 6138TIP3   OH218419   1.928   3.271   4.845 -0.2095 -0.0229 -0.1753
 6138TIP3    H118420   1.848   3.276   4.793  1.1381  0.1541 -2.3660
 6138TIP3    H218421   1.951   3.363   4.862  0.7367  0.0409 -1.6136
 6139TIP3   OH218422   2.367   2.283   4.731 -0.2202  0.1787  0.5008
 6139TIP3    H118423   2.449   2.282   4.779  0.7262  0.1871 -1.0521
 6139TIP3    H218424   2.301   2.255   4.795  0.7661  1.3802  2.1062
 6140TIP3   OH218425   1.531   4.319   3.672  0.3802  0.1439  0.3269
 6140TIP3    H118426   1.456   4.377   3.659  1.3573  1.4135  0.1040
 6140TIP3    H218427   1.537   4.269   3.591  0.4529  0.8535 -0.1118
 6141TIP3   OH218428   3.758   2.272   4.285  0.7994  0.0782 -0.8102
 6141TIP3    H118429   3.699   2.295   4.213  0.4075  0.0254 -0.5121
 6141TIP3    H218430   3.839   2.245   4.242  0.4899 -0.1797 -1.2407
 6142TIP3   OH218431   0.258   3.226   0.465 -0.1556  0.4010  0.2199
 6142TIP3    H118432   0.351   3.201   0.464 -1.1512 -4.2761  0.2115
 6142TIP3    H218433   0.232   3.227   0.373  0.1749  3.8779  0.0375
 6143TIP3   OH218434   4.150   0.206   4.553  0.1162 -0.9062  0.0695
 6143TIP3    H118435   4.167   0.297   4.577  1.1862 -1.1994  0.4681
 6143TIP3    H218436   4.204   0.155   4.614 -1.2839 -1.8523  0.5685
 6144TIP3   OH218437   2.037   2.345   3.153  0.4528  0.3381 -0.0351
 6144TIP3    H118438   2.110   2.337   3.215  2.6450  0.7088 -2.4076
 6144TIP3    H218439   2.022   2.256   3.123 -1.5682 -0.0642  1.9312
 6145TIP3   OH218440   3.250   3.075   4.046 -0.5098  0.3118 -0.0158
 6145TIP3    H118441   3.161   3.064   4.079 -0.9498  0.4026 -1.1105
 6145TIP3    H218442   3.267   3.169   4.051 -2.0526  0.9437 -3.4889
 6146TIP3   OH218443   0.090   4.946   0.519  0.3454 -0.2146  0.2729
 6146TIP3    H118444   0.043   4.913   0.595 -2.0865 -0.2595 -1.1355
 6146TIP3    H218445   0.021   4.977   0.460  2.0440 -1.2420 -2.4235
 6147TIP3   OH218446   0.975   3.618   4.812  0.4695  0.3571  0.2458
 6147TIP3    H118447   0.941   3.579   4.892  2.6890  0.3481  1.2594
 6147TIP3    H218448   1.036   3.685   4.842  1.0437  0.6456 -1.4437
 6148TIP3   OH218449   2.440   4.154   3.740 -0.0027  0.1980  0.4621
 6148TIP3    H118450   2.513   4.214   3.751 -0.1607  0.3871  0.4765
 6148TIP3    H218451   2.467   4.097   3.668  0.4857 -0.2227  0.9612
 6149TIP3   OH218452   5.104   1.812   4.774 -0.3230  0.3374  0.3049
 6149TIP3    H118453   5.013   1.804   4.747 -0.0185 -2.5736 -0.1838
 6149TIP3    H218454   5.143   1.871   4.710 -1.5618  0.4790 -0.3535
 6150TIP3   OH218455   4.154   2.992   0.604  0.3843  0.3340  0.5475
 6150TIP3    H118456   4.213   2.921   0.578  1.1357  0.9388  0.5843
 6150TIP3    H218457   4.148   3.049   0.528 -1.3823 -0.5038  0.0017
 6151TIP3   OH218458   4.157   2.705   0.486  0.5899  0.2928  0.1273
 6151TIP3    H118459   4.088   2.725   0.422 -0.3503  0.5836  1.2011
 6151TIP3    H218460   4.238   2.705   0.435 -0.1158  0.7276 -1.0252
 6152TIP3   OH218461   5.811   0.812   2.788 -0.0500 -0.0123  0.0954
 6152TIP3    H118462   5.770   0.898   2.797  2.2450  1.3400 -1.5105
 6152TIP3    H218463   5.763   0.770   2.716  0.6276  1.1071 -1.0359
 6153TIP3   OH218464   1.535   2.373   4.988  0.8085  0.2300 -0.1561
 6153TIP3    H118465   1.577   2.401   4.907 -0.3586  0.5640 -0.6540
 6153TIP3    H218466   1.608   2.349   5.045  1.7396  1.7908 -0.6331
 6154TIP3   OH218467   1.631   4.461   1.159 -0.2313  0.2026  0.4310
 6154TIP3    H118468   1.715   4.430   1.192  0.3761  1.3333  0.0271
 6154TIP3    H218469   1.604   4.395   1.095  0.2972 -0.2338  0.6546
 6155TIP3   OH218470   3.853   2.533   2.812 -0.0779  0.0666  0.5100
 6155TIP3    H118471   3.890   2.610   2.768  2.6188 -0.9141  0.8395
 6155TIP3    H218472   3.803   2.488   2.743 -0.5446  1.3750 -0.0400
 6156TIP3   OH218473   0.292   4.851   1.875  0.8055 -0.4262 -0.1027
 6156TIP3    H118474   0.330   4.789   1.813  0.2799  0.1848 -1.0385
 6156TIP3    H218475   0.270   4.928   1.823  0.0032 -0.0491  0.7698
 6157TIP3   OH218476   6.275   4.348   0.740  0.0642 -0.7171  0.0601
 6157TIP3    H118477   6.289   4.308   0.654 -1.6492 -2.6788  0.6078
 6157TIP3    H218478   6.263   4.441   0.721  2.8669 -0.5500 -1.4237
 6158TIP3   OH218479   5.931   4.443   2.366 -0.1152 -0.2664  0.5515
 6158TIP3    H118480   5.861   4.506   2.386 -0.0390  0.2094 -0.5780
 6158TIP3    H218481   5.905   4.405   2.282  0.2583 -1.1599  0.8306
 6159TIP3   OH218482   5.706   3.736   3.982 -0.3908  0.2016 -0.1393
 6159TIP3    H118483   5.795   3.709   3.957 -0.5365  1.4468 -2.2753
 6159TIP3    H218484   5.719   3.796   4.055  0.7988  1.9416 -1.6662
 6160TIP3   OH218485   0.168   1.839   4.441 -0.6987  0.3823  0.8212
 6160TIP3    H118486   0.187   1.910   4.503 -0.1114  0.0669  1.0037
 6160TIP3    H218487   0.079   1.812   4.463 -1.1682  1.4638  0.3515
 6161TIP3   OH218488   1.165   4.200   2.292 -0.2247 -0.6230  0.2067
 6161TIP3    H118489   1.109   4.263   2.247  1.6973  2.8415  2.2048
 6161TIP3    H218490   1.107   4.127   2.312 -2.8822  0.8202 -1.5366
 6162TIP3   OH218491   3.725   2.839   2.285 -0.2373 -0.4373  0.2292
 6162TIP3    H118492   3.794   2.897   2.318 -1.6536  1.7428 -0.4829
 6162TIP3    H218493   3.771   2.782   2.223  1.4445 -1.0832  1.9434
 6163TIP3   OH218494   1.377   4.960   4.611 -0.3074  0.2732 -0.2848
 6163TIP3    H118495   1.289   4.998   4.616  0.3719  1.8141  0.4952
 6163TIP3    H218496   1.362   4.866   4.603 -2.0218  0.4984 -0.0330
 6164TIP3   OH218497   2.143   3.628   0.790 -0.4311 -0.5735 -0.0531
 6164TIP3    H118498   2.218   3.610   0.847  0.6967 -0.0604 -1.3185
 6164TIP3    H218499   2.096   3.699   0.834 -1.6373 -2.5264  2.0177
 6165TIP3   OH218500   0.834   3.810   3.812 -0.1995 -0.4612  0.0443
 6165TIP3    H118501   0.885   3.888   3.834 -0.8382  0.1138 -0.4725
 6165TIP3    H218502   0.783   3.791   3.891  1.0341 -1.2357  0.6809
 6166TIP3   OH218503   2.583   4.774   1.048 -0.8170 -0.6747 -0.8827
 6166TIP3    H118504   2.580   4.799   0.956 -0.1580 -0.9136 -0.9729
 6166TIP3    H218505   2.614   4.852   1.093 -1.0761 -0.5787 -0.8669
 6167TIP3   OH218506   2.807   0.690   2.159  0.2682 -0.1075 -0.0887
 6167TIP3    H118507   2.788   0.728   2.245 -0.7641 -1.5543  0.3612
 6167TIP3    H218508   2.801   0.596   2.172  2.1005 -0.4425 -1.3192
 6168TIP3   OH218509   5.442   1.272   0.908 -0.1685  0.1081 -0.3020
 6168TIP3    H118510   5.366   1.298   0.856 -0.0457 -0.9017 -1.0181
 6168TIP3    H218511   5.509   1.338   0.887 -0.5341  0.4478 -0.4131
 6169TIP3   OH218512   3.272   3.081   1.420 -0.2421 -0.3369  0.3052
 6169TIP3    H118513   3.208   3.062   1.489 -0.6669 -0.9949 -0.2481
 6169TIP3    H218514   3.310   2.996   1.399  0.4033 -0.0329  0.2209
 6170TIP3   OH218515   5.142   2.699   1.808 -0.4273  0.1689  0.2070
 6170TIP3    H118516   5.066   2.685   1.751  0.1327  1.0411 -0.7817
 6170TIP3    H218517   5.132   2.633   1.877 -2.8701  1.1762  0.9602
 6171TIP3   OH218518   2.528   4.018   1.352 -0.3069  0.1758 -0.1197
 6171TIP3    H118519   2.554   3.935   1.391  1.3578  1.0991  0.8406
 6171TIP3    H218520   2.433   4.023   1.365 -0.2472 -1.0238  0.8863
 6172TIP3   OH218521   0.620   3.366   1.998  0.1328 -0.1399  0.3191
 6172TIP3    H118522   0.586   3.407   1.919 -0.1760 -4.0038 -1.8066
 6172TIP3    H218523   0.545   3.362   2.057 -0.2330  0.8368 -0.0610
 6173TIP3   OH218524   2.768   2.330   0.650 -0.9942  0.3828 -0.3537
 6173TIP3    H118525   2.680   2.314   0.617 -1.9257  1.8196  1.2238
 6173TIP3    H218526   2.773   2.280   0.731 -0.6778  0.9220 -0.0292
 6174TIP3   OH218527   5.107   2.089   3.485  0.4180 -0.2116 -0.0357
 6174TIP3    H118528   5.026   2.126   3.451  1.8674  1.2801 -2.1105
 6174TIP3    H218529   5.114   2.003   3.442  0.2915 -0.0287 -0.4248
 6175TIP3   OH218530   0.777   1.002   0.586  0.1012 -0.1131  0.1510
 6175TIP3    H118531   0.838   1.004   0.661  1.0052  1.6527 -0.5564
 6175TIP3    H218532   0.822   0.950   0.520 -0.1878 -0.7233  0.4335
 6176TIP3   OH218533   2.672   0.732   1.680  0.0185  0.2373  0.2319
 6176TIP3    H118534   2.705   0.799   1.741  2.0225  1.2150 -1.7869
 6176TIP3    H218535   2.715   0.651   1.709 -0.2295  0.3754  1.0154
 6177TIP3   OH218536   3.526   5.098   2.609 -0.3198  0.7479  0.4172
 6177TIP3    H118537   3.596   5.113   2.672  0.7453  1.7976 -0.9561
 6177TIP3    H218538   3.546   5.156   2.536 -1.6178 -0.2656 -0.8118
 6178TIP3   OH218539   2.662   2.715   2.298 -0.0723  0.3511 -0.2457
 6178TIP3    H118540   2.600   2.720   2.371  0.1861 -3.8026  0.4965
 6178TIP3    H218541   2.748   2.711   2.340  0.2069 -0.3391 -0.8669
 6179TIP3   OH218542   3.218   2.273   4.907 -0.0152 -0.1001 -0.2706
 6179TIP3    H118543   3.291   2.287   4.968 -0.9276  1.1313  0.5906
 6179TIP3    H218544   3.257   2.278   4.820  1.2456 -1.4599  0.1810
 6180TIP3   OH218545   5.870   0.717   4.622  0.6299 -0.1584 -0.0722
 6180TIP3    H118546   5.831   0.704   4.536  2.0299 -0.6422 -0.6612
 6180TIP3    H218547   5.830   0.649   4.677  0.9911 -0.9721 -0.7918
 6181TIP3   OH218548   5.241   1.444   1.105 -0.3671 -0.0392 -0.2730
 6181TIP3    H118549   5.178   1.479   1.041 -1.0300  2.5975  1.6160
 6181TIP3    H218550   5.313   1.410   1.052 -0.8872  1.9569 -2.4623
 6182TIP3   OH218551   0.824   2.887   0.100 -0.0207  0.2031  0.1663
 6182TIP3    H118552   0.853   2.795   0.101 -0.3859  0.0848  0.0468
 6182TIP3    H218553   0.888   2.931   0.044 -0.9085 -0.3472 -1.3383
 6183TIP3   OH218554   5.577   4.162   1.146  0.3028  0.9046 -0.2297
 6183TIP3    H118555   5.645   4.190   1.207  1.5837  0.9248 -1.6280
 6183TIP3    H218556   5.621   4.106   1.083 -1.3889 -0.8043 -0.0132
 6184TIP3   OH218557   2.901   0.051   0.566  0.1948  0.1518 -0.0296
 6184TIP3    H118558   2.924   0.091   0.482 -1.1355  0.0549 -0.4569
 6184TIP3    H218559   2.866  -0.035   0.542  1.0486 -0.4228  0.7317
 6185TIP3   OH218560   3.129  -0.004   5.041  0.0524 -0.1741  0.2296
 6185TIP3    H118561   3.065   0.057   5.005  1.2915  2.4656  2.2035
 6185TIP3    H218562   3.178  -0.035   4.964 -0.3946  1.6040 -0.8292
 6186TIP3   OH218563   0.630   2.648   3.899  0.1940  0.5478  0.0312
 6186TIP3    H118564   0.607   2.714   3.834 -0.3386 -0.2217 -0.5679
 6186TIP3    H218565   0.616   2.692   3.983 -0.9411  0.9438 -0.3478
 6187TIP3   OH218566   4.326   0.750   2.244 -0.1105 -0.0850  1.0851
 6187TIP3    H118567   4.310   0.658   2.224  0.1655  0.1955 -0.6082
 6187TIP3    H218568   4.402   0.749   2.302 -0.7078 -0.9504  1.8928
 6188TIP3   OH218569   1.245   0.809   2.135 -0.1595  0.2809  0.4766
 6188TIP3    H118570   1.267   0.872   2.066  1.4062 -1.9597 -1.2132
 6188TIP3    H218571   1.186   0.746   2.093  0.5919 -0.9706  1.2216
 6189TIP3   OH218572   1.487   3.728   1.852  0.2856  0.0539  0.1183
 6189TIP3    H118573   1.559   3.692   1.904  0.3686  0.2129  0.1119
 6189TIP3    H218574   1.513   3.712   1.761 -0.8055 -2.1338  0.1231
 6190TIP3   OH218575   1.547   2.881   4.248 -0.2926  0.1373 -0.8531
 6190TIP3    H118576   1.613   2.901   4.315  1.2409 -1.1241 -1.8966
 6190TIP3    H218577   1.468   2.859   4.296  0.1503  1.2784  0.4621
 6191TIP3   OH218578   4.564   1.932   0.274  0.1619 -0.5463  0.2696
 6191TIP3    H118579   4.533   2.013   0.315  0.9177  0.3033 -0.7939
 6191TIP3    H218580   4.512   1.863   0.316 -0.3441  0.4566  1.3532
 6192TIP3   OH218581   0.694   5.398   4.606  0.0793  0.3399 -0.1171
 6192TIP3    H118582   0.727   5.405   4.696  0.4793 -0.6285 -0.1712
 6192TIP3    H218583   0.751   5.456   4.555  0.5458  0.0803  0.0919
 6193TIP3   OH218584   3.675   2.242   0.851 -0.3179 -0.6814 -0.4993
 6193TIP3    H118585   3.741   2.309   0.869 -0.3797 -0.8351  0.3193
 6193TIP3    H218586   3.595   2.291   0.833 -0.1248 -0.5120 -0.9221
 6194TIP3   OH218587   1.136   4.670   3.830  0.1007  0.2177  0.6801
 6194TIP3    H118588   1.203   4.738   3.819 -0.9955  1.2720  0.2147
 6194TIP3    H218589   1.069   4.712   3.884 -0.9872 -0.1918 -0.2998
 6195TIP3   OH218590   5.368   1.941   1.814 -0.3022 -0.0682 -0.3439
 6195TIP3    H118591   5.313   1.990   1.752 -0.2554  0.3812 -0.0407
 6195TIP3    H218592   5.383   2.003   1.886 -0.7875 -0.7540  0.3607
 6196TIP3   OH218593   3.674   4.303   4.240  0.4192  0.1926 -0.2983
 6196TIP3    H118594   3.686   4.398   4.248  1.9647 -0.0865  1.4497
 6196TIP3    H218595   3.748   4.274   4.187  0.1529 -0.0811 -0.5215
 6197TIP3   OH218596   0.818   2.179   3.265  0.1906 -0.0164  0.0529
 6197TIP3    H118597   0.907   2.146   3.256  0.0319  0.1346 -2.7388
 6197TIP3    H218598   0.822   2.269   3.235 -0.9280 -0.0509 -0.2537
 6198TIP3   OH218599   2.459   2.514   4.143 -0.3163  0.3429  0.3663
 6198TIP3    H118600   2.518   2.538   4.214  0.4591  1.5031 -0.6236
 6198TIP3    H218601   2.375   2.500   4.186  0.5429 -0.8956  1.7462
 6199TIP3   OH218602   3.894   0.263   2.056 -0.1156 -0.5552  0.0290
 6199TIP3    H118603   3.853   0.278   2.141  1.7093 -0.2641  0.9124
 6199TIP3    H218604   3.947   0.341   2.041 -0.4646 -0.5670 -1.4349
 6200TIP3   OH218605   1.133   0.500   0.375  0.4572  0.3470 -0.4403
 6200TIP3    H118606   1.128   0.595   0.366  0.7151  0.2475 -1.8869
 6200TIP3    H218607   1.043   0.472   0.393  0.3825  0.8523 -0.0062
 6201TIP3   OH218608   0.486   3.733   2.101 -0.0107  0.4109 -0.1400
 6201TIP3    H118609   0.454   3.663   2.158 -0.4132  1.3435  0.8136
 6201TIP3    H218610   0.409   3.763   2.054 -0.1598  1.2778  0.6392
 6202TIP3   OH218611   0.580   2.929   1.021 -0.3913  0.1603  0.4776
 6202TIP3    H118612   0.499   2.971   0.990 -0.4539  1.0820  1.7904
 6202TIP3    H218613   0.566   2.836   1.004 -1.5832  0.3424  0.3260
 6203TIP3   OH218614   2.439   3.374   3.138 -0.1637 -0.6266 -0.1549
 6203TIP3    H118615   2.392   3.457   3.152 -1.7919 -1.5051 -0.1172
 6203TIP3    H218616   2.496   3.391   3.063 -2.0623 -0.0561 -1.5525
 6204TIP3   OH218617   5.561   5.119   0.682 -0.4052 -0.2066  0.0403
 6204TIP3    H118618   5.578   5.144   0.773  0.2586 -1.8617  0.4052
 6204TIP3    H218619   5.641   5.145   0.635 -0.6344  0.3939 -0.0175
 6205TIP3   OH218620   4.179   1.638   2.042  0.2696  0.3692  0.0982
 6205TIP3    H118621   4.167   1.694   1.965 -0.4042 -0.3319 -0.3107
 6205TIP3    H218622   4.131   1.558   2.022 -1.5363  0.8986  2.0495
 6206TIP3   OH218623   1.528   3.992   4.643  0.0093  0.1714 -0.4134
 6206TIP3    H118624   1.608   3.984   4.695  0.3295 -0.0447 -0.9336
 6206TIP3    H218625   1.525   3.912   4.590 -0.1401  0.5300 -0.9570
 6207TIP3   OH218626   4.710   2.729   0.337 -0.4458 -0.0975 -0.6497
 6207TIP3    H118627   4.693   2.635   0.332 -0.9482 -0.0587  0.1821
 6207TIP3    H218628   4.791   2.742   0.287 -0.9221 -0.8153 -1.6314
 6208TIP3   OH218629   4.820   5.414   5.065  0.4198  0.5067 -0.0634
 6208TIP3    H118630   4.833   5.350   5.134  1.9112  1.3538  0.4961
 6208TIP3    H218631   4.871   5.380   4.991 -0.5289  0.0032 -0.5083
 6209TIP3   OH218632   1.826   2.522   0.307 -0.0928  0.1220 -0.4163
 6209TIP3    H118633   1.852   2.584   0.239 -0.5430 -0.1898 -0.8725
 6209TIP3    H218634   1.739   2.551   0.334 -0.9717 -1.1895 -1.7036
 6210TIP3   OH218635   2.825   3.981   4.588 -0.1960  0.0337  0.4292
 6210TIP3    H118636   2.868   4.057   4.627  0.4026 -0.5940  1.0308
 6210TIP3    H218637   2.814   3.920   4.661  1.1060 -1.2373 -0.3928
 6211TIP3   OH218638   5.441   1.032   3.143 -0.0871 -0.1053 -0.5386
 6211TIP3    H118639   5.365   0.994   3.187 -0.7000  0.0633 -1.4448
 6211TIP3    H218640   5.513   1.018   3.205 -1.2814  2.0071  1.5022
 6212TIP3   OH218641   0.845   1.727   4.427  0.1075  0.0775 -0.0392
 6212TIP3    H118642   0.886   1.657   4.478 -0.2772  0.0469  0.2371
 6212TIP3    H218643   0.760   1.691   4.401 -1.0432  1.1848  1.9387
 6213TIP3   OH218644   1.358   0.136   4.594  0.0761 -0.1233 -0.2893
 6213TIP3    H118645   1.266   0.161   4.579  0.5520  0.7984 -2.0564
 6213TIP3    H218646   1.366   0.050   4.552 -0.2845 -0.8512  1.0882
 6214TIP3   OH218647   5.917   2.562   1.519 -0.5830  0.3029  0.4856
 6214TIP3    H118648   5.881   2.553   1.607 -0.8908 -2.1871  0.1764
 6214TIP3    H218649   6.011   2.575   1.534 -0.6596  0.1282  1.1924
 6215TIP3   OH218650   1.175   2.431   0.912  0.3937  0.1806 -0.3609
 6215TIP3    H118651   1.167   2.516   0.869  0.6334  0.9975  1.1362
 6215TIP3    H218652   1.268   2.408   0.901  0.6041  0.6986  0.2398
 6216TIP3   OH218653   4.745   0.838   4.412  0.1242  0.3665 -0.6962
 6216TIP3    H118654   4.838   0.820   4.401  0.4131  0.4368  1.3069
 6216TIP3    H218655   4.705   0.752   4.424  0.8634  0.4040  4.2806
 6217TIP3   OH218656   6.193   1.177   3.283 -0.0142  0.4359 -0.2643
 6217TIP3    H118657   6.215   1.100   3.232 -1.4078  0.0617 -0.3486
 6217TIP3    H218658   6.252   1.245   3.251  0.7422 -0.3965 -0.6872
 6218TIP3   OH218659   5.276   4.954   3.037 -0.3380 -0.2752 -0.5024
 6218TIP3    H118660   5.330   4.945   2.958 -0.4421 -2.0030 -0.4197
 6218TIP3    H218661   5.297   4.876   3.089 -2.7909 -0.9725 -0.4232
 6219TIP3   OH218662   0.251   1.796   2.574  0.4855 -0.3773 -0.3702
 6219TIP3    H118663   0.162   1.759   2.574  0.1443  0.3228 -1.9395
 6219TIP3    H218664   0.305   1.727   2.611 -0.6384 -1.0459  0.1007
 6220TIP3   OH218665   2.742   0.625   3.458 -0.4616 -0.3556 -0.3157
 6220TIP3    H118666   2.740   0.530   3.463 -1.6322 -0.4458 -1.7924
 6220TIP3    H218667   2.833   0.647   3.441 -0.4317 -1.3364 -1.5246
 6221TIP3   OH218668   0.859   1.366   2.123  0.6476  0.6204  0.6315
 6221TIP3    H118669   0.812   1.367   2.207 -0.6980 -0.3649 -0.0648
 6221TIP3    H218670   0.875   1.458   2.103 -1.8792  1.0813  0.4609
 6222TIP3   OH218671   4.175   4.722   0.888  0.3867 -0.0968 -0.0446
 6222TIP3    H118672   4.197   4.708   0.980  0.6011 -0.7995 -0.1905
 6222TIP3    H218673   4.197   4.813   0.871 -1.2339  0.5595  1.0351
 6223TIP3   OH218674   2.008   4.658   1.929 -0.1539  0.0287 -0.0631
 6223TIP3    H118675   1.995   4.563   1.936 -0.2610  0.1169  1.3654
 6223TIP3    H218676   2.101   4.668   1.912 -0.4320 -0.3624 -2.0718
 6224TIP3   OH218677   5.733   4.213   4.663 -0.4928  0.6098  0.5196
 6224TIP3    H118678   5.641   4.219   4.638  0.3494  0.5828 -3.0713
 6224TIP3    H218679   5.777   4.278   4.609  1.9175 -1.2803  0.0310
 6225TIP3   OH218680   1.750   3.411   1.806 -0.0342  0.4188 -0.0661
 6225TIP3    H118681   1.830   3.367   1.837  2.0752  1.8678 -2.9222
 6225TIP3    H218682   1.713   3.350   1.742 -0.0787  0.5810 -0.1946
 6226TIP3   OH218683   1.811   3.980   5.169  0.0356 -0.1704 -0.5585
 6226TIP3    H118684   1.738   3.982   5.106  0.0617 -1.1369 -0.6325
 6226TIP3    H218685   1.849   3.893   5.159 -0.7357 -0.8518  1.6569
 6227TIP3   OH218686   0.161   2.762   3.720 -0.0006 -0.0246  0.0561
 6227TIP3    H118687   0.081   2.725   3.757 -1.0131  0.6279 -1.3547
 6227TIP3    H218688   0.223   2.763   3.792 -0.5978 -2.4370  0.6922
 6228TIP3   OH218689   1.857   3.579   1.625 -0.4562  0.9473  0.2454
 6228TIP3    H118690   1.817   3.529   1.696 -1.5008  0.4479 -0.6551
 6228TIP3    H218691   1.942   3.536   1.610  0.0988  1.5023  1.6369
 6229TIP3   OH218692   2.394   1.856   3.622  0.6605  0.1187 -0.0811
 6229TIP3    H118693   2.325   1.876   3.685 -0.7690 -1.6158 -0.9928
 6229TIP3    H218694   2.459   1.926   3.634 -0.3025  0.7125  2.1672
 6230TIP3   OH218695   1.877   2.817   3.153 -0.0437  0.0157  0.4160
 6230TIP3    H118696   1.839   2.816   3.066 -0.6569 -2.8849  0.6016
 6230TIP3    H218697   1.914   2.729   3.164  2.4711  1.1571  2.0719
 6231TIP3   OH218698   0.500   1.871   1.637  0.3549 -0.6542  0.0296
 6231TIP3    H118699   0.441   1.849   1.709  2.4558 -1.7570  1.5519
 6231TIP3    H218700   0.483   1.963   1.619 -0.1199 -0.2850  2.1242
 6232TIP3   OH218701   4.705   5.879   0.296  0.3823  0.2130  0.0184
 6232TIP3    H118702   4.675   5.969   0.304 -1.2737 -0.2893 -0.0941
 6232TIP3    H218703   4.711   5.864   0.201 -0.1714 -0.0489  0.0243
 6233TIP3   OH218704   5.820   3.360   0.752 -0.3007 -0.3197 -0.0264
 6233TIP3    H118705   5.802   3.279   0.800 -1.6314  0.3947  0.7331
 6233TIP3    H218706   5.867   3.415   0.815  0.6535 -0.5103 -0.5601
 6234TIP3   OH218707   4.520   5.805   3.869 -0.5048 -0.0723 -0.2808
 6234TIP3    H118708   4.604   5.848   3.888  0.3229 -1.3823 -0.8199
 6234TIP3    H218709   4.461   5.837   3.938  0.0529  1.8759 -0.6445
 6235TIP3   OH218710   4.905   4.656   3.704  0.5741  0.3614 -0.9532
 6235TIP3    H118711   4.940   4.686   3.787 -0.7616 -0.2498 -0.1443
 6235TIP3    H218712   4.888   4.736   3.654 -0.3565  0.8213  0.0830
 6236TIP3   OH218713   5.124   5.866   3.980 -0.7131  0.0381  0.6337
 6236TIP3    H118714   5.199   5.809   3.997 -0.1989  0.7428  0.8158
 6236TIP3    H218715   5.079   5.872   4.064 -0.2998  0.5445  0.8249
 6237TIP3   OH218716   4.461   5.767   1.625  0.2849  0.0043 -0.0290
 6237TIP3    H118717   4.367   5.763   1.644 -0.0995  0.2660 -1.7244
 6237TIP3    H218718   4.499   5.808   1.702 -0.8766 -0.8039  1.0203
 6238TIP3   OH218719   2.576   2.287   3.111  0.3589 -0.7875 -0.7217
 6238TIP3    H118720   2.548   2.376   3.128  1.8738 -0.5378  0.7635
 6238TIP3    H218721   2.591   2.283   3.016 -0.6534  0.2086 -0.9410
 6239TIP3   OH218722   5.632   2.761   1.077  0.1782  0.1611 -0.3083
 6239TIP3    H118723   5.566   2.693   1.060 -0.5528  0.8256 -0.1617
 6239TIP3    H218724   5.619   2.784   1.169  0.4694  0.4604 -0.3416
 6240TIP3   OH218725   4.867   4.344   2.851 -0.0045  0.6367 -0.7626
 6240TIP3    H118726   4.818   4.283   2.797 -0.9194 -0.0403  0.7525
 6240TIP3    H218727   4.800   4.391   2.901  0.6933  2.6482 -1.6057
 6241TIP3   OH218728   5.025   2.816   1.189 -0.6874 -0.0968  0.1636
 6241TIP3    H118729   5.005   2.891   1.134 -1.3692 -0.1800  0.2812
 6241TIP3    H218730   5.066   2.752   1.130  0.9843  0.8009  0.3063
 6242TIP3   OH218731   2.695   2.134   5.160 -0.0369  0.5177 -0.1191
 6242TIP3    H118732   2.756   2.124   5.233 -1.6748  1.7740  1.5278
 6242TIP3    H218733   2.738   2.195   5.100  0.9007  0.2814  0.3040
 6243TIP3   OH218734   3.492   0.706   0.221 -0.1611 -0.1394  0.1464
 6243TIP3    H118735   3.501   0.646   0.295 -0.0547  3.2561  3.2109
 6243TIP3    H218736   3.565   0.767   0.231 -0.4109  0.7023 -2.5732
 6244TIP3   OH218737   6.236   5.327   0.403  0.7670 -0.1260 -0.1875
 6244TIP3    H118738   6.320   5.343   0.359  0.8647  1.5945  0.5365
 6244TIP3    H218739   6.177   5.302   0.332  1.0021  2.2543 -1.3331
 6245TIP3   OH218740   0.832   3.599   0.471  0.4407 -0.2252 -0.0899
 6245TIP3    H118741   0.813   3.680   0.424 -1.5764 -1.2714 -1.2263
 6245TIP3    H218742   0.886   3.626   0.545  0.4378  2.0388 -0.8402
 6246TIP3   OH218743   4.418   2.464   0.087 -0.3144  0.8094 -0.1677
 6246TIP3    H118744   4.488   2.530   0.093 -0.3565  0.7475  1.5866
 6246TIP3    H218745   4.338   2.516   0.077 -0.3452  1.0544  1.1818
 6247TIP3   OH218746   0.958   5.775   0.788 -0.1416  0.8099  0.1588
 6247TIP3    H118747   0.878   5.809   0.827 -2.9920 -2.3809 -2.3170
 6247TIP3    H218748   0.971   5.690   0.830  1.1844  0.6837 -0.4475
 6248TIP3   OH218749   2.631   1.980   4.511  0.3231  0.5761  0.2260
 6248TIP3    H118750   2.671   2.020   4.589 -2.2047 -0.0056  1.9504
 6248TIP3    H218751   2.539   2.008   4.514  0.2340  0.9616 -2.9179
 6249TIP3   OH218752   2.493   1.592   2.907  0.5901 -0.1700 -0.5970
 6249TIP3    H118753   2.480   1.500   2.928  2.9552 -0.5918 -0.7914
 6249TIP3    H218754   2.585   1.599   2.881  1.0105  2.5566  1.1759
 6250TIP3   OH218755   5.327   2.617   2.215 -0.9171  0.0422 -0.0917
 6250TIP3    H118756   5.400   2.577   2.168  0.1520  0.1535  1.3985
 6250TIP3    H218757   5.251   2.603   2.159  0.0810 -0.9179 -1.2440
 6251TIP3   OH218758   6.011   0.881   3.336 -0.4826  0.1524  0.2095
 6251TIP3    H118759   6.058   0.811   3.291 -0.5960 -0.1801  0.6005
 6251TIP3    H218760   5.985   0.941   3.267  1.4120  0.8931  0.0796
 6252TIP3   OH218761   3.920   4.781   3.291 -0.1945 -0.0516  0.1842
 6252TIP3    H118762   3.840   4.792   3.342  0.9255 -0.7961  2.2084
 6252TIP3    H218763   3.956   4.869   3.283 -0.5605  0.1147  0.3506
 6253TIP3   OH218764   0.558   2.253   2.393  0.0040 -0.3961  0.0484
 6253TIP3    H118765   0.469   2.221   2.407 -0.0963 -0.6777 -1.1340
 6253TIP3    H218766   0.591   2.270   2.481 -0.8434 -1.3093  0.5685
 6254TIP3   OH218767   6.190   0.509   0.096  0.3292 -0.2120 -0.3533
 6254TIP3    H118768   6.243   0.449   0.148  0.5065  0.9191  0.8068
 6254TIP3    H218769   6.100   0.480   0.110  0.2731  0.7460  1.5280
 6255TIP3   OH218770   1.513   1.075   0.249  0.3096  0.0109  0.6529
 6255TIP3    H118771   1.427   1.101   0.216 -1.0483 -3.6749  0.8131
 6255TIP3    H218772   1.501   1.067   0.343  0.8211 -0.5346  0.6766
 6256TIP3   OH218773   5.784   1.882   0.725  0.1506 -0.3601 -0.0382
 6256TIP3    H118774   5.740   1.820   0.783 -0.6379  0.3146  0.0946
 6256TIP3    H218775   5.747   1.865   0.639 -0.5757  0.3848  0.1197
 6257TIP3   OH218776   4.263   5.967   3.283  0.0685  0.2880  0.3875
 6257TIP3    H118777   4.304   6.047   3.250 -0.3681  1.1013  1.7356
 6257TIP3    H218778   4.318   5.940   3.356 -1.2275  0.8854  1.6389
 6258TIP3   OH218779   0.576   4.239   2.880 -0.3085  0.0131  0.4752
 6258TIP3    H118780   0.636   4.271   2.947  0.0468 -0.5416  0.4211
 6258TIP3    H218781   0.544   4.319   2.837  1.9304  0.2591 -0.8511
 6259TIP3   OH218782   5.422   3.764   0.510  0.4684 -0.0736 -0.0504
 6259TIP3    H118783   5.496   3.743   0.452  0.3055 -0.5611 -0.0880
 6259TIP3    H218784   5.345   3.733   0.463  0.4210 -1.4618  0.8709
 6260TIP3   OH218785   1.876   2.408   0.558 -0.0319 -0.2775  0.4199
 6260TIP3    H118786   1.810   2.340   0.576 -0.6158  0.0578 -0.4061
 6260TIP3    H218787   1.851   2.444   0.473  0.4021  0.8281  0.7450
 6261TIP3   OH218788   0.319   4.595   2.024  0.4471 -0.0691  0.2835
 6261TIP3    H118789   0.260   4.533   2.065 -0.2280 -1.0109 -1.9729
 6261TIP3    H218790   0.262   4.661   1.984  0.9378 -0.3333 -0.9039
 6262TIP3   OH218791   0.217   2.880   4.960 -0.2936  0.4064 -0.4096
 6262TIP3    H118792   0.308   2.912   4.964 -0.4405  0.7316  0.7093
 6262TIP3    H218793   0.178   2.927   4.886 -0.4535  2.7668  1.0772
 6263TIP3   OH218794   1.934   3.392   2.675 -0.9939 -0.0546  0.4547
 6263TIP3    H118795   1.872   3.402   2.747 -1.5280  0.2425 -0.0395
 6263TIP3    H218796   1.879   3.380   2.597 -0.4371  0.4329 -0.0258
 6264TIP3   OH218797   6.317   3.855   0.838  0.3893  0.3475 -0.3961
 6264TIP3    H118798   6.367   3.775   0.824  0.0974  0.3790 -1.7060
 6264TIP3    H218799   6.234   3.826   0.875  1.5827  0.3475  2.6234
 6265TIP3   OH218800   0.247   2.248   3.956  0.2097  0.1151 -0.6078
 6265TIP3    H118801   0.199   2.291   3.885  0.3370  0.3425 -0.5558
 6265TIP3    H218802   0.313   2.194   3.912  0.2461  0.2057 -0.6648
 6266TIP3   OH218803   4.150   1.747   4.628 -0.4106  0.4437 -0.9452
 6266TIP3    H118804   4.079   1.768   4.567  0.2722  1.2449 -1.4832
 6266TIP3    H218805   4.228   1.784   4.587 -0.0475  1.7472  0.8239
 6267TIP3   OH218806   5.000   1.637   5.169  0.0258  0.3980  0.2220
 6267TIP3    H118807   5.035   1.554   5.202 -2.0503 -1.7765 -2.5379
 6267TIP3    H218808   5.071   1.673   5.115  0.9083  0.4213  1.3588
 6268TIP3   OH218809   4.736   3.713   1.338  0.4058 -0.0214  0.6751
 6268TIP3    H118810   4.661   3.687   1.285  1.1198 -2.7064  0.8418
 6268TIP3    H218811   4.721   3.806   1.358 -2.3134 -0.2194 -0.1407
 6269TIP3   OH218812   5.144   1.407   0.130 -0.1951 -0.6574  0.0579
 6269TIP3    H118813   5.178   1.323   0.102  0.6106 -0.3839  0.1929
 6269TIP3    H218814   5.214   1.445   0.183 -0.7724 -0.1512  0.4780
 6270TIP3   OH218815   5.401   5.838   2.769 -0.3819 -0.5176  0.1129
 6270TIP3    H118816   5.323   5.872   2.813 -0.2507 -0.5929  0.3986
 6270TIP3    H218817   5.393   5.871   2.679  0.4095  1.4020  0.6866
 6271TIP3   OH218818   1.459   0.242   1.194  0.2185  0.2504  0.4686
 6271TIP3    H118819   1.525   0.310   1.208 -0.1534  0.4221  1.4149
 6271TIP3    H218820   1.438   0.210   1.281 -0.3980 -0.3410  0.1137
 6272TIP3   OH218821   4.683   1.629   0.750 -0.1482 -0.0022 -0.2022
 6272TIP3    H118822   4.709   1.721   0.758  1.1865 -0.3565 -0.2072
 6272TIP3    H218823   4.623   1.615   0.823 -1.5510  1.2452 -1.0701
 6273TIP3   OH218824   4.201   0.921   0.632 -0.4607  0.4690  0.0655
 6273TIP3    H118825   4.231   1.008   0.605 -1.2063  1.1365  1.3166
 6273TIP3    H218826   4.278   0.881   0.673 -0.5635  1.1976  0.9890
 6274TIP3   OH218827   2.666   0.335   0.371  0.3491  0.1453  0.4795
 6274TIP3    H118828   2.609   0.276   0.322 -0.9012  1.1826  0.6273
 6274TIP3    H218829   2.610   0.370   0.441  1.8881 -0.7585  2.2427
 6275TIP3   OH218830   2.981   3.428   5.038  1.1441 -0.3875  0.2650
 6275TIP3    H118831   2.912   3.431   4.972 -0.9246 -3.2703  2.0347
 6275TIP3    H218832   3.036   3.353   5.013  0.8177 -0.9998  1.2953
 6276TIP3   OH218833   3.316   2.249   4.642 -0.3110 -0.1930  0.4928
 6276TIP3    H118834   3.366   2.326   4.617  1.1365 -1.5098 -0.9511
 6276TIP3    H218835   3.324   2.190   4.567  0.1601 -2.4546  2.1876
 6277TIP3   OH218836   5.780   1.010   0.511 -0.5056 -0.5095 -0.1847
 6277TIP3    H118837   5.745   1.023   0.600 -0.9852  0.0691 -0.4490
 6277TIP3    H218838   5.873   0.992   0.524 -0.6996 -1.0493  0.4751
 6278TIP3   OH218839   0.168   0.184   3.735  0.2077  0.3912 -0.3143
 6278TIP3    H118840   0.092   0.145   3.777  0.2270  1.6567  1.0108
 6278TIP3    H218841   0.133   0.260   3.688  0.7362  1.7903  1.4155
 6279TIP3   OH218842   2.954   2.764   0.259  0.5641  0.6514  0.6133
 6279TIP3    H118843   2.968   2.840   0.316 -0.6250  1.3825 -0.0176
 6279TIP3    H218844   2.911   2.699   0.316 -1.0440  1.5464  0.4976
 6280TIP3   OH218845   3.832   2.789   2.688  0.0909 -0.6886 -0.1811
 6280TIP3    H118846   3.748   2.778   2.644  0.4657  0.0583 -1.1190
 6280TIP3    H218847   3.897   2.780   2.619  0.7478 -0.5446  0.4037
 6281TIP3   OH218848   0.756   5.323   3.372  0.1861 -0.7423 -0.7376
 6281TIP3    H118849   0.729   5.399   3.320 -2.7899 -0.4178  1.0594
 6281TIP3    H218850   0.717   5.249   3.326 -2.0556 -0.4976  0.6129
 6282TIP3   OH218851   0.948   0.032   2.061  0.7259  0.3813 -0.5728
 6282TIP3    H118852   0.940   0.059   1.969  1.6487  0.0215 -0.7721
 6282TIP3    H218853   0.964  -0.063   2.056  1.0103  0.4001 -0.0510
 6283TIP3   OH218854   0.983   5.554   0.931 -0.4051  0.5624 -0.4400
 6283TIP3    H118855   0.963   5.541   1.024 -0.6575  0.7597 -0.4639
 6283TIP3    H218856   0.934   5.484   0.886 -0.6654  0.7539 -0.4598
 6284TIP3   OH218857   3.803   4.460   1.314 -0.3655 -0.4775 -0.0161
 6284TIP3    H118858   3.822   4.463   1.220  0.1659  4.3401  0.0326
 6284TIP3    H218859   3.876   4.411   1.352 -0.5054 -2.3792 -2.0211
 6285TIP3   OH218860   0.462   4.696   2.410 -0.0562  0.1927  0.6445
 6285TIP3    H118861   0.468   4.698   2.314  2.6179 -0.9828  0.6989
 6285TIP3    H218862   0.423   4.612   2.430  1.9886 -0.8449  0.5589
 6286TIP3   OH218863   2.408   3.894   0.981  0.4771  0.1478  0.3422
 6286TIP3    H118864   2.371   3.951   0.914 -2.6453 -2.3246 -0.3036
 6286TIP3    H218865   2.365   3.921   1.062  2.0040  1.2081  0.8284
 6287TIP3   OH218866   4.586   1.068   4.429 -0.4540  0.0043  0.1633
 6287TIP3    H118867   4.625   1.110   4.352 -1.3811 -1.5219 -1.1988
 6287TIP3    H218868   4.625   0.981   4.431 -2.5481 -1.0034 -0.3298
 6288TIP3   OH218869   3.184   5.819   0.156 -0.6889  0.0393  0.6281
 6288TIP3    H118870   3.118   5.822   0.225  0.2631 -0.5670  1.5855
 6288TIP3    H218871   3.142   5.770   0.085 -1.6382  0.5769  0.7898
 6289TIP3   OH218872   5.682   2.734   3.501  0.3656  0.2063  0.0985
 6289TIP3    H118873   5.718   2.822   3.497  1.2384  0.1019  2.9388
 6289TIP3    H218874   5.594   2.741   3.463  0.0847  2.5217  1.0234
 6290TIP3   OH218875   3.105   1.753   2.329  0.0419  0.9471 -0.1332
 6290TIP3    H118876   3.145   1.814   2.391  1.7999 -1.9683  1.8612
 6290TIP3    H218877   3.018   1.734   2.365  0.8256 -0.2685  1.2296
 6291TIP3   OH218878   1.058   5.561   2.466 -0.1696 -0.0998 -0.6975
 6291TIP3    H118879   1.126   5.525   2.410  2.1789  0.3652  1.6278
 6291TIP3    H218880   1.007   5.485   2.494 -1.6749 -0.2911 -3.6138
 6292TIP3   OH218881   1.873   5.793   1.836 -0.0852 -0.1211  0.0022
 6292TIP3    H118882   1.779   5.796   1.855  0.2217  1.6468  1.5170
 6292TIP3    H218883   1.913   5.853   1.900  1.9912 -0.1700 -1.1490
 6293TIP3   OH218884   2.068   5.756   3.847  0.3656 -0.3830  0.1790
 6293TIP3    H118885   2.066   5.850   3.827 -1.3251 -0.5527 -0.5949
 6293TIP3    H218886   2.142   5.746   3.908 -0.0134  1.5936  1.0278
 6294TIP3   OH218887   5.007   4.997   2.958  0.5833  0.2367  0.1112
 6294TIP3    H118888   5.083   5.019   3.012 -0.4827  1.8324  1.0426
 6294TIP3    H218889   5.006   4.901   2.956  3.2073  0.1563 -0.8410
 6295TIP3   OH218890   0.109   3.475   1.990 -0.0552 -0.6065  0.2641
 6295TIP3    H118891   0.027   3.506   2.027 -0.3534 -0.1749 -0.7142
 6295TIP3    H218892   0.083   3.425   1.912  0.6234  0.0753 -0.4195
 6296TIP3   OH218893   5.838   3.184   1.724  0.4726 -0.3962 -0.5906
 6296TIP3    H118894   5.749   3.150   1.733  0.3976 -0.0268  0.1021
 6296TIP3    H218895   5.840   3.222   1.636  0.3748 -1.6332 -1.1418
 6297TIP3   OH218896   2.772   1.327   0.193  0.4444  0.1173 -0.2303
 6297TIP3    H118897   2.849   1.272   0.179  0.2351 -0.1079 -0.5093
 6297TIP3    H218898   2.720   1.278   0.257  0.9120  0.6534  0.5709
 6298TIP3   OH218899   4.300   1.151   0.483 -0.5638 -0.1065 -0.2681
 6298TIP3    H118900   4.388   1.115   0.491 -0.4914  0.0965 -0.1733
 6298TIP3    H218901   4.304   1.237   0.523 -0.5293  0.3577 -1.2373
 6299TIP3   OH218902   5.473   0.289   3.459 -0.1602 -0.1193 -0.1398
 6299TIP3    H118903   5.567   0.307   3.463 -0.1374 -0.3765  0.7205
 6299TIP3    H218904   5.436   0.367   3.417  0.4746 -0.1801 -0.8272
 6300TIP3   OH218905   0.920   1.594   0.062  0.2078  0.1768  0.0966
 6300TIP3    H118906   0.966   1.672   0.032  1.1435 -0.9032 -1.3960
 6300TIP3    H218907   0.833   1.601   0.024  0.4513  0.2637 -0.4582
 6301TIP3   OH218908   5.591   3.465   2.671 -0.0639  0.1681 -0.5486
 6301TIP3    H118909   5.544   3.542   2.700 -0.5141 -0.3622  0.1708
 6301TIP3    H218910   5.556   3.446   2.584 -0.9981 -0.0640 -0.1317
 6302TIP3   OH218911   6.014   0.720  -0.034 -0.0144  0.1128  0.6979
 6302TIP3    H118912   5.939   0.742   0.021  0.8112 -0.3549  2.0672
 6302TIP3    H218913   6.073   0.672   0.024  0.6403 -0.9270 -0.7701
 6303TIP3   OH218914   1.527   1.168   2.313 -0.1497  0.0186 -0.4953
 6303TIP3    H118915   1.454   1.107   2.327  1.2627 -2.0011 -1.4064
 6303TIP3    H218916   1.547   1.160   2.220  1.4251  0.2611 -0.2043
 6304TIP3   OH218917   3.259   5.006   5.091  0.1994 -0.3539 -0.3179
 6304TIP3    H118918   3.273   5.095   5.060 -0.0088 -0.3281 -0.3431
 6304TIP3    H218919   3.165   5.002   5.110  0.2972 -0.4092  0.1756
 6305TIP3   OH218920   4.803   3.151   2.632  0.3160  0.4058  0.1269
 6305TIP3    H118921   4.887   3.119   2.599 -0.1755 -0.0763 -0.6923
 6305TIP3    H218922   4.779   3.222   2.572 -0.3991 -0.2129 -0.3294
 6306TIP3   OH218923   0.360   4.441   2.468  0.0132 -0.2411  0.5249
 6306TIP3    H118924   0.296   4.391   2.417  1.1548  1.2799 -2.6454
 6306TIP3    H218925   0.403   4.376   2.523 -0.5631 -2.2437 -1.2619
 6307TIP3   OH218926   5.971   4.513   2.686  0.3060  0.7425 -0.5314
 6307TIP3    H118927   5.939   4.560   2.609 -2.0490  1.1852  0.6190
 6307TIP3    H218928   5.987   4.424   2.655  3.4320  1.8055 -2.4104
 6308TIP3   OH218929   0.460   1.422   2.128 -0.4595  0.8154  0.2017
 6308TIP3    H118930   0.529   1.394   2.187 -1.0752 -0.4498  0.3516
 6308TIP3    H218931   0.485   1.388   2.042 -2.1313 -2.0452  0.7086
 6309TIP3   OH218932   5.263   0.208   2.141 -0.4286  0.5094  0.1019
 6309TIP3    H118933   5.229   0.282   2.192 -0.8389  0.3090  0.1244
 6309TIP3    H218934   5.348   0.238   2.109  0.4379  0.2118  1.9436
 6310TIP3   OH218935   3.599   1.017   4.079 -0.3297 -0.4769  0.5145
 6310TIP3    H118936   3.593   1.094   4.022  0.5746  0.6248  1.8428
 6310TIP3    H218937   3.678   0.972   4.049 -0.3426 -0.3830  0.3316
 6311TIP3   OH218938   6.169   3.924   5.097 -0.0562  0.0678 -0.0591
 6311TIP3    H118939   6.188   4.015   5.120  2.3467 -0.6649  1.0851
 6311TIP3    H218940   6.251   3.890   5.062 -0.9194 -1.6831 -0.4899
 6312TIP3   OH218941   4.105   3.711   1.859 -0.1652  0.2287  0.5368
 6312TIP3    H118942   4.143   3.778   1.803 -1.1267  0.0833 -0.3345
 6312TIP3    H218943   4.031   3.754   1.902 -0.2586 -0.0322  0.6454
 6313TIP3   OH218944   0.043   5.597   4.810  0.0802  0.0824 -0.2046
 6313TIP3    H118945   0.020   5.647   4.888 -1.0703 -1.0077  0.1890
 6313TIP3    H218946   0.057   5.507   4.842  0.8682 -0.1286 -1.0751
 6314TIP3   OH218947   5.830   3.016   3.769  0.2895 -0.2443  0.2435
 6314TIP3    H118948   5.817   3.046   3.679  0.6934 -1.1997 -0.1399
 6314TIP3    H218949   5.888   3.082   3.808  2.2964 -1.1764 -1.0018
 6315TIP3   OH218950   1.514   1.592   3.438  0.1830 -0.0813  0.5025
 6315TIP3    H118951   1.574   1.517   3.440 -0.2330 -0.3943  1.5140
 6315TIP3    H218952   1.451   1.575   3.508  1.1236  2.0916  1.9650
 6316TIP3   OH218953   0.595   0.287   2.025 -0.2251 -0.0022 -0.0140
 6316TIP3    H118954   0.614   0.236   2.104  0.3989  0.6398  0.2581
 6316TIP3    H218955   0.674   0.340   2.010 -0.9084  1.0057 -0.1898
 6317TIP3   OH218956   1.052   0.359   4.547  0.0280  0.3501 -0.2124
 6317TIP3    H118957   1.040   0.370   4.452 -0.2131 -2.2813 -0.5565
 6317TIP3    H218958   1.033   0.267   4.563 -1.8785  1.1184  2.7410
 6318TIP3   OH218959   1.209   3.626   3.158 -0.2635 -0.1236 -0.0654
 6318TIP3    H118960   1.134   3.574   3.131  0.1325 -1.2354  0.9040
 6318TIP3    H218961   1.285   3.578   3.125  0.0746  0.3375  0.0299
 6319TIP3   OH218962   4.084   0.521   3.133 -0.4155 -0.3183 -0.1831
 6319TIP3    H118963   4.024   0.510   3.207  0.1511 -2.9097 -0.0036
 6319TIP3    H218964   4.043   0.472   3.062  0.3025 -0.0380 -0.8062
 6320TIP3   OH218965   2.625   1.334   2.581  0.3373 -0.4938 -0.1675
 6320TIP3    H118966   2.664   1.418   2.559  0.3101 -0.3215  0.4294
 6320TIP3    H218967   2.679   1.299   2.652  1.3467 -1.7490 -1.5015
 6321TIP3   OH218968   4.469   5.046   0.933 -0.0194 -0.1474  0.2857
 6321TIP3    H118969   4.544   5.048   0.873 -0.3519 -0.8881 -0.1692
 6321TIP3    H218970   4.471   5.131   0.975  0.1819  0.4300 -0.8352
 6322TIP3   OH218971   2.049   4.536   3.405 -0.4430  0.5832  0.3895
 6322TIP3    H118972   2.035   4.505   3.315  0.9541  0.1342  0.3070
 6322TIP3    H218973   2.018   4.464   3.460  0.9057 -0.1726  0.2168
 6323TIP3   OH218974   2.446   2.351   0.812 -0.7366 -0.4371  0.4021
 6323TIP3    H118975   2.528   2.375   0.855 -1.0720  1.8808 -0.1546
 6323TIP3    H218976   2.474   2.295   0.739  0.3284  0.0506  0.4100
 6324TIP3   OH218977   4.917   0.936   1.274  0.3878 -0.5246  0.0547
 6324TIP3    H118978   4.829   0.960   1.301  0.0260 -1.8645  0.1348
 6324TIP3    H218979   4.973   1.008   1.304 -0.7016  0.4569 -0.2222
 6325TIP3   OH218980   5.488   4.882   1.410 -0.1896  0.2807  0.2242
 6325TIP3    H118981   5.489   4.884   1.315  1.3504  0.2340  0.2176
 6325TIP3    H218982   5.522   4.967   1.437  0.5113 -0.1348  0.7023
 6326TIP3   OH218983   3.045   3.338   3.245 -0.3466 -0.5371  0.0442
 6326TIP3    H118984   3.030   3.379   3.160 -0.1284 -1.8727 -0.6704
 6326TIP3    H218985   3.130   3.373   3.273 -0.9865  0.8668  0.3329
 6327TIP3   OH218986   1.097   2.502   3.558 -0.6004 -0.0371 -0.0315
 6327TIP3    H118987   1.113   2.473   3.647 -1.7518 -0.1307  0.1548
 6327TIP3    H218988   1.135   2.433   3.503  0.2942  0.1255  0.3715
 6328TIP3   OH218989   1.324   5.963   1.298  0.1990  0.2221 -0.1238
 6328TIP3    H118990   1.400   5.997   1.251  0.9321  0.6358  1.3033
 6328TIP3    H218991   1.341   5.869   1.306  1.1719  0.4829  1.2089
 6329TIP3   OH218992   3.575   4.052   1.967  0.6665 -0.3594  0.0757
 6329TIP3    H118993   3.580   3.958   1.980  1.3241 -0.4240 -0.5787
 6329TIP3    H218994   3.643   4.088   2.025  0.0968 -0.2389  0.6864
 6330TIP3   OH218995   1.266   0.046   1.546  0.5481  1.1340  0.2224
 6330TIP3    H118996   1.185   0.082   1.510  0.5119  0.8109 -0.0232
 6330TIP3    H218997   1.336   0.097   1.505  0.5107  0.7298 -0.3562
 6331TIP3   OH218998   5.461   0.744   4.595  0.0135  0.2612 -0.3467
 6331TIP3    H118999   5.486   0.655   4.572 -2.1801 -0.2064 -1.0589
 6331TIP3    H219000   5.507   0.799   4.531 -0.1169 -0.4884 -1.0952
 6332TIP3   OH219001   3.336   5.561   2.977  0.1417  0.3866  0.8568
 6332TIP3    H119002   3.353   5.470   2.952  1.3243  0.9533 -0.5129
 6332TIP3    H219003   3.416   5.588   3.023  0.8220  1.4380 -0.8584
 6333TIP3   OH219004   1.502   1.490   4.112  0.1880 -0.3800  0.5706
 6333TIP3    H119005   1.430   1.552   4.100  0.2139 -0.2104  1.2657
 6333TIP3    H219006   1.532   1.470   4.023 -0.2669  0.0772  0.3125
 6334TIP3   OH219007   1.694   5.688   0.436 -0.4323 -0.3744 -0.7634
 6334TIP3    H119008   1.648   5.723   0.360 -0.0246  0.3414 -0.6947
 6334TIP3    H219009   1.781   5.729   0.432  0.3365 -1.9550 -1.0870
 6335TIP3   OH219010   0.159   2.126   4.176 -0.6436 -0.0072 -0.4743
 6335TIP3    H119011   0.164   2.183   4.253  0.7908 -0.9513  0.1803
 6335TIP3    H219012   0.203   2.176   4.107  1.5848 -0.6577  0.3699
 6336TIP3   OH219013   3.554   3.556   2.178 -0.6173  0.1502  0.1106
 6336TIP3    H119014   3.636   3.526   2.139 -0.7839  0.1061 -0.2074
 6336TIP3    H219015   3.582   3.621   2.243 -0.3221  0.0357  0.1037
 6337TIP3   OH219016   4.657   0.255   0.829 -0.2897 -0.2817 -0.4714
 6337TIP3    H119017   4.612   0.323   0.879  0.9052  0.4537 -0.3570
 6337TIP3    H219018   4.745   0.289   0.817  0.2229 -1.6527 -0.7490
 6338TIP3   OH219019   0.612   0.272   0.135  0.7080  0.1866 -0.2953
 6338TIP3    H119020   0.574   0.358   0.152 -0.8725 -0.7865  1.4918
 6338TIP3    H219021   0.666   0.254   0.212  0.4673 -0.6998 -0.3202
 6339TIP3   OH219022   1.911   5.853   0.465 -0.2706 -0.3044 -0.8491
 6339TIP3    H119023   1.909   5.948   0.481  1.1929 -0.2906 -0.6097
 6339TIP3    H219024   1.931   5.815   0.550  1.8347 -0.6272 -1.4365
 6340TIP3   OH219025   1.743   0.646   0.656 -0.5404  0.3393  0.3609
 6340TIP3    H119026   1.700   0.568   0.691  0.6254 -0.3498  0.3206
 6340TIP3    H219027   1.812   0.665   0.721 -0.3225  0.8645 -0.0232
 6341TIP3   OH219028   1.893   1.795   1.362  0.1574  0.6025 -0.1907
 6341TIP3    H119029   1.820   1.785   1.423  1.1739  0.4759  1.0561
 6341TIP3    H219030   1.918   1.887   1.371  1.1654  0.2753  0.6461
 6342TIP3   OH219031   5.662   0.620   1.928 -0.5078 -0.1954  0.1558
 6342TIP3    H119032   5.694   0.708   1.949 -0.7456  0.2782 -1.3121
 6342TIP3    H219033   5.569   0.633   1.908 -0.3830 -0.6520 -0.7630
 6343TIP3   OH219034   0.305   3.093   3.028 -0.0493  0.2728  0.0149
 6343TIP3    H119035   0.213   3.092   3.056  0.4696 -0.1252  1.8280
 6343TIP3    H219036   0.353   3.055   3.102  1.7216  1.5438 -0.4172
 6344TIP3   OH219037   4.597   0.961   0.883  0.0755 -0.7757  0.1862
 6344TIP3    H119038   4.630   1.043   0.845 -1.2947 -0.7372 -1.0329
 6344TIP3    H219039   4.669   0.928   0.936  0.0565  2.1298  2.2417
 6345TIP3   OH219040   0.164   3.996   1.879 -0.4180 -0.0391  0.0789
 6345TIP3    H119041   0.185   3.970   1.789 -0.8509 -0.6416  0.1443
 6345TIP3    H219042   0.142   3.914   1.923 -2.4855  0.4787  0.1194
 6346TIP3   OH219043   0.447   4.237   2.638 -0.0768  0.2470 -0.0465
 6346TIP3    H119044   0.407   4.161   2.596  2.7522 -1.3719 -0.0131
 6346TIP3    H219045   0.479   4.205   2.722  0.0194  1.8454  0.5688
 6347TIP3   OH219046   4.412   2.156   2.498 -0.1028  0.3753  0.2883
 6347TIP3    H119047   4.462   2.075   2.492 -0.4367  0.2384 -1.4168
 6347TIP3    H219048   4.438   2.195   2.581  2.7223  0.2470 -0.4265
 6348TIP3   OH219049   3.902   4.779   2.177 -0.4465  0.1484  0.0815
 6348TIP3    H119050   3.911   4.683   2.173 -2.0060 -0.0515  0.4494
 6348TIP3    H219051   3.807   4.793   2.183 -0.2113  1.7091  0.4836
 6349TIP3   OH219052   6.155   3.924   0.247 -1.3580  0.2200  0.6804
 6349TIP3    H119053   6.070   3.967   0.257 -1.5783  0.9442 -3.0221
 6349TIP3    H219054   6.206   3.983   0.191  1.0306 -0.9977  1.3999
 6350TIP3   OH219055   3.477   4.482   2.876  0.2877 -0.1034  0.0612
 6350TIP3    H119056   3.512   4.501   2.789  0.6114 -1.7995 -0.2093
 6350TIP3    H219057   3.383   4.466   2.861 -0.4685  3.0804  0.5917
 6351TIP3   OH219058   4.440   5.267   5.006  0.3071  0.0545  0.2590
 6351TIP3    H119059   4.488   5.348   5.020  0.0464 -0.1466  2.8532
 6351TIP3    H219060   4.504   5.207   4.967  1.0556  0.9029  0.1781
 6352TIP3   OH219061   0.728   1.171   3.556 -0.0909  0.9034  0.5106
 6352TIP3    H119062   0.662   1.168   3.626 -0.5057 -0.1189  0.1024
 6352TIP3    H219063   0.764   1.260   3.560 -0.2606  0.9335  1.8756
 6353TIP3   OH219064   4.174   1.052   3.255  0.1822 -0.3068  0.0990
 6353TIP3    H119065   4.125   1.122   3.299  0.7791  0.4842 -0.4530
 6353TIP3    H219066   4.138   0.971   3.291 -0.4597  0.2839  0.8313
 6354TIP3   OH219067   0.958   2.559   1.993  0.4398 -0.2309 -0.3166
 6354TIP3    H119068   0.982   2.578   2.084  1.7904 -2.6057 -0.0795
 6354TIP3    H219069   0.879   2.505   2.000 -0.1228  0.5489 -0.6259
 6355TIP3   OH219070   0.839   4.973   0.486  0.8243 -0.0971  0.3388
 6355TIP3    H119071   0.891   5.051   0.505  0.0266 -0.1747  3.4198
 6355TIP3    H219072   0.792   4.994   0.406  1.7156  1.9945  0.2912
 6356TIP3   OH219073   3.456   2.104   4.145 -0.6092  0.0694 -0.4406
 6356TIP3    H119074   3.542   2.063   4.153 -0.9851 -0.5606  0.6094
 6356TIP3    H219075   3.472   2.183   4.094  0.3792 -0.6595 -1.3174
 6357TIP3   OH219076   4.349   1.462   3.731  0.2007 -0.0568 -0.0503
 6357TIP3    H119077   4.433   1.419   3.713 -0.1586 -0.8462  0.1531
 6357TIP3    H219078   4.293   1.436   3.659  0.0233  0.1908 -0.0018
 6358TIP3   OH219079   2.447   5.348   4.558  0.3631 -0.0297  0.0596
 6358TIP3    H119080   2.424   5.441   4.561  0.0106 -0.1362  0.9438
 6358TIP3    H219081   2.421   5.319   4.470 -0.6455  0.4274  0.2011
 6359TIP3   OH219082   1.886   2.849   0.886 -0.5486  0.4375  0.3243
 6359TIP3    H119083   1.864   2.788   0.816  0.0158  1.6592 -0.9530
 6359TIP3    H219084   1.981   2.860   0.879 -0.6963  1.7521  0.2948
 6360TIP3   OH219085   3.928   5.806   0.655 -0.1333  0.5581 -0.0569
 6360TIP3    H119086   3.884   5.818   0.739  0.0548 -1.2775  0.3414
 6360TIP3    H219087   3.883   5.867   0.596 -1.2479  0.8211  1.0187
 6361TIP3   OH219088   5.979   2.973   0.841  0.2632  0.3938 -0.4981
 6361TIP3    H119089   6.049   2.936   0.893  0.7837 -0.3485 -1.6793
 6361TIP3    H219090   5.913   2.903   0.836  0.0993  0.5553 -0.6099
 6362TIP3   OH219091   3.212   4.668   4.970  0.2268 -0.0709 -0.0240
 6362TIP3    H119092   3.283   4.688   5.030 -0.5472 -1.9961  1.6831
 6362TIP3    H219093   3.212   4.572   4.964 -2.6581 -0.2145  0.7089
 6363TIP3   OH219094   2.475   2.528   3.136 -0.3340  0.0108  0.0632
 6363TIP3    H119095   2.382   2.544   3.118  0.0207  1.3665 -0.6577
 6363TIP3    H219096   2.506   2.610   3.175  0.6626 -0.2752 -0.1116
 6364TIP3   OH219097   4.442   0.810   0.710  0.1213  0.2938  0.2638
 6364TIP3    H119098   4.458   0.868   0.784  0.7948  0.4117  0.0252
 6364TIP3    H219099   4.512   0.745   0.714  0.5099  0.6430 -0.6043
 6365TIP3   OH219100   2.225   5.418   1.591 -0.3683  0.0644  0.6989
 6365TIP3    H119101   2.201   5.498   1.638  2.5398  1.1130  0.6013
 6365TIP3    H219102   2.277   5.368   1.653 -0.9510 -1.1152  0.2671
 6366TIP3   OH219103   1.470   2.377   3.599 -0.6151 -0.3365  0.0282
 6366TIP3    H119104   1.383   2.345   3.619 -0.2706 -1.3386 -0.0435
 6366TIP3    H219105   1.529   2.317   3.644  0.0527  0.1412 -0.1891
 6367TIP3   OH219106   5.761   2.371   4.727  0.3663 -0.2551 -0.7185
 6367TIP3    H119107   5.680   2.382   4.777  0.9294 -0.3897  0.2441
 6367TIP3    H219108   5.749   2.289   4.680  0.4758 -0.9916  0.4876
 6368TIP3   OH219109   5.331   2.510   3.519 -0.2674  0.0152 -0.2478
 6368TIP3    H119110   5.280   2.558   3.585 -0.9320 -2.3636  1.0687
 6368TIP3    H219111   5.307   2.552   3.436 -1.1437  1.6454  0.7584
 6369TIP3   OH219112   1.508   3.280   1.319  0.2724  0.8792 -0.6725
 6369TIP3    H119113   1.584   3.337   1.330 -0.8635  2.1478  0.9783
 6369TIP3    H219114   1.434   3.339   1.309 -0.6544 -0.3243 -1.1752
 6370TIP3   OH219115   0.135   0.279   2.864 -0.2321  0.3108  0.2275
 6370TIP3    H119116   0.064   0.339   2.843 -1.3965 -1.0498  0.1398
 6370TIP3    H219117   0.214   0.333   2.860 -0.9194  1.2502 -2.5743
 6371TIP3   OH219118   0.524   0.064   2.452  0.2931  0.1939  0.5230
 6371TIP3    H119119   0.602   0.080   2.399  0.9227  0.2238  1.4271
 6371TIP3    H219120   0.453   0.052   2.389  0.9351  0.6721 -0.3006
 6372TIP3   OH219121   1.669   0.636   4.991 -0.1169  0.4440  0.2402
 6372TIP3    H119122   1.668   0.719   5.039  2.9308  1.4561 -1.1963
 6372TIP3    H219123   1.603   0.647   4.923  0.1808  1.6689  0.1257
 6373TIP3   OH219124   0.553   0.401   4.254  0.7890 -0.1296  0.2765
 6373TIP3    H119125   0.641   0.431   4.234  0.4160 -0.3534 -1.9691
 6373TIP3    H219126   0.498   0.441   4.187 -0.8501  0.0372  1.6449
 6374TIP3   OH219127   1.880   2.635   0.714  0.1663  0.5396 -0.0177
 6374TIP3    H119128   1.900   2.562   0.656 -0.5543 -1.2888  1.9137
 6374TIP3    H219129   1.788   2.656   0.696 -0.6729 -1.3294  1.6819
 6375TIP3   OH219130   0.856   2.136   4.238 -0.1339 -0.3232  0.6494
 6375TIP3    H119131   0.875   2.042   4.242 -0.0056 -0.2589  2.7135
 6375TIP3    H219132   0.832   2.159   4.328  1.8984  2.0463  0.6910
 6376TIP3   OH219133   0.337   3.213   4.848  0.2112 -0.6957 -0.2623
 6376TIP3    H119134   0.383   3.254   4.774 -1.1506  1.1719 -0.1408
 6376TIP3    H219135   0.245   3.234   4.833  0.0134  0.8543  2.5918
 6377TIP3   OH219136   0.367   1.176   4.509  0.4100 -0.2204 -0.5090
 6377TIP3    H119137   0.274   1.186   4.530  0.9957  0.7335  1.9279
 6377TIP3    H219138   0.374   1.087   4.475 -1.7656  0.5270 -3.3606
 6378TIP3   OH219139   2.621   2.981   5.211 -1.0874 -0.4352 -0.8214
 6378TIP3    H119140   2.646   3.069   5.182  1.8113 -1.2521 -1.1581
 6378TIP3    H219141   2.607   2.933   5.129 -2.4473 -0.3932 -0.6393
 6379TIP3   OH219142   3.636   3.885   0.598  0.1483  0.6712  0.5078
 6379TIP3    H119143   3.565   3.906   0.538  0.0180  0.0415  0.4410
 6379TIP3    H219144   3.667   3.799   0.570  2.6880  2.0062 -1.1662
 6380TIP3   OH219145   4.946   0.465   4.887  0.3889  0.0857  0.5910
 6380TIP3    H119146   4.877   0.412   4.926  0.1934 -0.2926 -0.2594
 6380TIP3    H219147   5.026   0.414   4.901  0.3963  0.1862  0.9310
 6381TIP3   OH219148   2.364   3.001   2.914 -0.4747 -0.5615  0.2768
 6381TIP3    H119149   2.447   2.957   2.900 -1.4893 -1.9746 -1.8057
 6381TIP3    H219150   2.366   3.076   2.854  0.2577  0.9238  2.0572
 6382TIP3   OH219151   5.428   4.078   0.902  0.3722  0.2800 -0.7182
 6382TIP3    H119152   5.519   4.058   0.881  0.6469  1.0065 -0.2573
 6382TIP3    H219153   5.382   4.069   0.819  0.8374 -0.2406 -0.9271
 6383TIP3   OH219154   0.147   4.120   4.320  0.4294 -0.6246 -0.4353
 6383TIP3    H119155   0.175   4.199   4.367  1.8270 -0.5880 -1.2949
 6383TIP3    H219156   0.102   4.067   4.387  1.0717  0.0884  0.5806
 6384TIP3   OH219157   3.595   5.278   1.699  0.0829  0.3675  0.2658
 6384TIP3    H119158   3.536   5.318   1.762 -0.0630  1.9044 -0.7846
 6384TIP3    H219159   3.549   5.284   1.615  0.5428 -1.0324 -0.1252
 6385TIP3   OH219160   3.802   5.685   3.384  0.4468 -0.2644 -0.2839
 6385TIP3    H119161   3.798   5.655   3.293 -0.3234 -1.7076  0.1883
 6385TIP3    H219162   3.872   5.750   3.385  1.7831 -1.5933 -1.5297
 6386TIP3   OH219163   0.474   4.941   4.418  0.1848  0.0991 -0.1283
 6386TIP3    H119164   0.384   4.953   4.447  0.7330 -0.9524  2.2669
 6386TIP3    H219165   0.473   4.859   4.369  0.3155 -1.7035  2.6877
 6387TIP3   OH219166   3.366   1.679   3.420  0.7032 -0.0574 -0.1157
 6387TIP3    H119167   3.421   1.755   3.440  1.0401  0.1174 -1.5929
 6387TIP3    H219168   3.288   1.716   3.379 -0.1735 -0.3719  1.1929
 6388TIP3   OH219169   3.512   2.780   2.008  0.3804 -0.1019  0.3668
 6388TIP3    H119170   3.463   2.704   2.041 -1.2048  0.2567 -0.9845
 6388TIP3    H219171   3.568   2.744   1.939  1.0127 -0.3030  0.9747
 6389TIP3   OH219172   1.323   0.373   3.287 -0.0610 -0.1203 -0.0357
 6389TIP3    H119173   1.393   0.393   3.349 -1.3332  0.9041  1.1601
 6389TIP3    H219174   1.304   0.457   3.244 -0.3749 -0.4389 -0.5303
 6390TIP3   OH219175   2.841   3.768   2.769  0.2905 -0.4427 -0.0605
 6390TIP3    H119176   2.757   3.747   2.728  0.8699 -1.3553 -0.8137
 6390TIP3    H219177   2.817   3.798   2.857 -0.7659 -2.0643  0.2661
 6391TIP3   OH219178   1.741   2.212   4.738  0.6432 -0.3554  0.2727
 6391TIP3    H119179   1.767   2.182   4.825  0.5333 -0.5524  0.2386
 6391TIP3    H219180   1.782   2.150   4.678  1.5242  0.3429  0.1303
 6392TIP3   OH219181   0.236   1.340   0.983  1.0448  0.0164  0.3237
 6392TIP3    H119182   0.272   1.294   1.059 -1.7999 -0.9139  1.2735
 6392TIP3    H219183   0.253   1.282   0.909 -2.0726 -2.6203  1.4225
 6393TIP3   OH219184   2.208   2.186   0.163  0.1289  0.1552 -0.1689
 6393TIP3    H119185   2.218   2.260   0.104  3.1560  0.5517  0.6788
 6393TIP3    H219186   2.136   2.212   0.222 -0.0208  1.6318 -0.9632
 6394TIP3   OH219187   4.378   2.889   1.270 -0.1460  0.3183  0.4710
 6394TIP3    H119188   4.288   2.906   1.300  0.1994  1.9665  0.6817
 6394TIP3    H219189   4.420   2.848   1.345  0.1013  2.4279  1.5833
 6395TIP3   OH219190   5.056   4.442   0.441 -0.3997  0.5016 -0.1909
 6395TIP3    H119191   4.965   4.472   0.443 -0.1360  1.4229 -0.9550
 6395TIP3    H219192   5.080   4.431   0.533 -1.1866  0.5234  0.0286
 6396TIP3   OH219193   3.014   5.357   2.566 -0.8290  0.3467 -0.3473
 6396TIP3    H119194   3.078   5.424   2.589 -0.2598 -0.6521  1.1466
 6396TIP3    H219195   3.058   5.303   2.500 -0.5409  0.3033 -0.1212
 6397TIP3   OH219196   0.012   3.634   0.676  0.1002  0.1852 -0.6563
 6397TIP3    H119197   0.082   3.610   0.616  1.2545  1.5609  0.0963
 6397TIP3    H219198  -0.020   3.550   0.710  1.8586 -0.4560 -0.4824
 6398TIP3   OH219199   4.506   3.138   3.920  0.1917  0.2103 -0.1207
 6398TIP3    H119200   4.415   3.115   3.942  0.4144 -0.3416  0.2302
 6398TIP3    H219201   4.558   3.065   3.953  0.7398  0.3748 -0.6070
 6399TIP3   OH219202   3.080   4.521   4.023 -0.3732 -0.1140  0.0631
 6399TIP3    H119203   3.163   4.568   4.024 -0.4815  0.1353  2.2870
 6399TIP3    H219204   3.089   4.455   4.091 -2.2643  0.4350  0.9153
 6400TIP3   OH219205   5.786   5.069   2.048  0.6747 -0.1074 -0.7139
 6400TIP3    H119206   5.760   5.145   1.997 -1.7970 -0.0612  0.5208
 6400TIP3    H219207   5.839   5.104   2.119  0.6471  0.2933 -0.8903
 6401TIP3   OH219208   3.187   4.299   4.806 -0.3136 -0.4811 -0.0906
 6401TIP3    H119209   3.208   4.372   4.748  1.1502 -0.3127  0.6115
 6401TIP3    H219210   3.272   4.269   4.838 -0.7375 -3.4425 -1.4452
 6402TIP3   OH219211   2.735   4.011   0.170 -0.2378  0.1121 -0.4857
 6402TIP3    H119212   2.679   3.935   0.186 -0.6963  0.2534 -1.3713
 6402TIP3    H219213   2.705   4.047   0.086 -1.0770  2.2070  0.6366
 6403TIP3   OH219214   5.967   4.348   3.647 -0.1814  0.0564  0.2742
 6403TIP3    H119215   5.937   4.418   3.589 -1.2498  1.8547  2.8562
 6403TIP3    H219216   6.062   4.346   3.635 -0.3439  0.5316 -1.3009
 6404TIP3   OH219217   1.547   4.270   0.962  0.4922  0.0472  0.3737
 6404TIP3    H119218   1.617   4.258   0.898 -0.9086 -0.4459 -1.1479
 6404TIP3    H219219   1.491   4.194   0.949 -1.7479  1.7177 -0.3718
 6405TIP3   OH219220   3.094   5.365   1.332  0.3775 -0.8352 -0.6147
 6405TIP3    H119221   3.166   5.415   1.293  0.5783  0.7443  1.5598
 6405TIP3    H219222   3.133   5.280   1.353  2.2084  0.4524  1.8312
 6406TIP3   OH219223   0.741   4.184   4.029 -0.2190  0.0254  0.0565
 6406TIP3    H119224   0.835   4.192   4.044 -0.3021 -0.9818  1.2306
 6406TIP3    H219225   0.730   4.206   3.936  1.4723 -2.0099 -0.7114
 6407TIP3   OH219226   1.759   3.502   2.846 -0.0864 -0.1721 -0.0106
 6407TIP3    H119227   1.783   3.557   2.921 -2.6969 -0.9472  1.5167
 6407TIP3    H219228   1.722   3.563   2.783 -2.8789 -0.0222  1.6356
 6408TIP3   OH219229   2.633   4.759   3.263 -0.3132  0.1945 -0.0767
 6408TIP3    H119230   2.542   4.786   3.254 -0.2829  0.9177  1.4429
 6408TIP3    H219231   2.653   4.772   3.356  1.8811  1.8416 -0.6845
 6409TIP3   OH219232   4.068   3.619   3.714 -0.2540  0.2019 -0.0433
 6409TIP3    H119233   4.036   3.669   3.788 -1.8688  0.4673 -0.8828
 6409TIP3    H219234   3.991   3.605   3.658  0.9801  0.4548 -1.9231
 6410TIP3   OH219235   3.586   4.266   4.873  0.3705 -0.3224 -0.1089
 6410TIP3    H119236   3.656   4.251   4.810 -1.9793  1.5279 -3.4625
 6410TIP3    H219237   3.521   4.199   4.854 -1.1813  1.3629 -1.0569
 6411TIP3   OH219238   5.152   0.436   0.944 -0.5584 -0.7744  0.7818
 6411TIP3    H119239   5.094   0.408   1.015 -0.2555 -0.9916  0.9463
 6411TIP3    H219240   5.119   0.392   0.866  0.6930 -2.6676  1.2626
 6412TIP3   OH219241   3.377   2.910   0.319  0.7647  0.3775 -0.5509
 6412TIP3    H119242   3.465   2.900   0.285  0.3586  1.0255 -1.8594
 6412TIP3    H219243   3.344   2.821   0.331  0.5835  0.0856 -2.8246
 6413TIP3   OH219244   3.465   5.089   4.134 -0.4365 -0.1046  0.1898
 6413TIP3    H119245   3.422   5.006   4.114  0.3004 -0.2123 -1.0423
 6413TIP3    H219246   3.558   5.066   4.145 -0.5308  0.2347  2.0647
 6414TIP3   OH219247   3.940   3.717   4.696  0.2102 -0.4935 -0.1239
 6414TIP3    H119248   3.941   3.668   4.613  1.1808 -0.2541 -0.2701
 6414TIP3    H219249   4.018   3.685   4.742  2.7053  2.9821 -1.4797
 6415TIP3   OH219250   2.183   0.573   0.338 -0.7460  0.4769  0.5165
 6415TIP3    H119251   2.122   0.521   0.390 -0.8144  0.6139  0.5748
 6415TIP3    H219252   2.227   0.510   0.281 -0.3992  0.2739  1.0089
 6416TIP3   OH219253   4.319   4.354   1.577 -0.0699  0.1351 -0.2937
 6416TIP3    H119254   4.404   4.327   1.613  0.3537  0.0157 -1.3585
 6416TIP3    H219255   4.278   4.273   1.549  0.5661  0.3916 -2.1092
 6417TIP3   OH219256   1.744   2.894   4.049  0.3499 -0.0614 -0.0081
 6417TIP3    H119257   1.690   2.884   3.970  0.6275 -0.1954 -0.1834
 6417TIP3    H219258   1.687   2.867   4.121  0.0996  0.0448 -0.1649
 6418TIP3   OH219259   5.306   4.811   2.320 -0.0205  0.3968 -0.0818
 6418TIP3    H119260   5.243   4.819   2.249 -1.2392  0.8356  1.0182
 6418TIP3    H219261   5.387   4.783   2.277 -0.3824  1.7920 -1.8026
 6419TIP3   OH219262   2.399   3.020   0.105  0.3870 -0.5422 -0.0411
 6419TIP3    H119263   2.340   3.054   0.038  1.3791 -0.1307 -0.7259
 6419TIP3    H219264   2.375   2.928   0.115  0.0543 -0.5337 -0.7558
 6420TIP3   OH219265   3.901   5.272   1.674  0.7559  0.1596  0.8162
 6420TIP3    H119266   3.809   5.273   1.699  1.1450  0.4894  2.3022
 6420TIP3    H219267   3.906   5.332   1.599 -0.8456 -2.6730 -1.7890
 6421TIP3   OH219268   2.103   1.153   0.590  0.5613  0.0808  0.1722
 6421TIP3    H119269   2.115   1.213   0.663  1.7307 -1.0688  0.9527
 6421TIP3    H219270   2.187   1.109   0.580 -0.6435 -2.5122  0.6173
 6422TIP3   OH219271   5.807   5.897   5.162 -0.0973 -0.9169 -0.0952
 6422TIP3    H119272   5.826   5.980   5.118 -1.2660 -0.5446  0.0666
 6422TIP3    H219273   5.851   5.904   5.246  1.2975 -1.2076 -0.7815
 6423TIP3   OH219274   1.642   0.606   0.978 -0.3641  0.3210 -0.3886
 6423TIP3    H119275   1.684   0.690   0.963  1.0175 -0.2694 -0.0287
 6423TIP3    H219276   1.632   0.567   0.891 -0.8585  0.7755 -0.5386
 6424TIP3   OH219277   1.089   0.971   0.414 -0.5338  0.3396  0.0604
 6424TIP3    H119278   1.130   1.058   0.417  1.2154 -0.3093 -2.1005
 6424TIP3    H219279   1.122   0.925   0.491  0.4406  0.8297 -0.0523
 6425TIP3   OH219280   2.377   5.068   5.117  1.0131  0.4586  0.4953
 6425TIP3    H119281   2.409   4.981   5.092  0.7287  0.6463 -0.5679
 6425TIP3    H219282   2.457   5.121   5.126  1.1312  0.3433  0.1430
 6426TIP3   OH219283   0.955   0.585   3.491  0.2381 -0.1025  0.1826
 6426TIP3    H119284   0.961   0.664   3.438  0.8008 -1.2832 -1.5963
 6426TIP3    H219285   0.867   0.551   3.474 -0.1455  0.2892  1.2431
 6427TIP3   OH219286   3.364   0.096   0.833 -0.5511 -0.3243  0.8934
 6427TIP3    H119287   3.311   0.088   0.754  1.8089  0.6239 -0.9032
 6427TIP3    H219288   3.338   0.180   0.871 -1.7488 -0.8173  1.2220
 6428TIP3   OH219289   2.201   4.528   3.984  0.7396 -0.2293 -0.1152
 6428TIP3    H119290   2.282   4.579   3.982  2.2327 -2.4437 -0.4897
 6428TIP3    H219291   2.196   4.495   4.074 -0.0565  0.3342  0.0513
 6429TIP3   OH219292   3.427   0.165   4.035  0.5620 -0.0195  0.1100
 6429TIP3    H119293   3.386   0.250   4.019 -0.6859 -0.8031 -1.1200
 6429TIP3    H219294   3.424   0.155   4.130  1.5759  1.6750  0.3733
 6430TIP3   OH219295   4.546   4.796   3.780  0.2367 -0.6794  0.1336
 6430TIP3    H119296   4.457   4.801   3.746  0.3189 -1.8478 -0.2914
 6430TIP3    H219297   4.581   4.885   3.769  0.2949 -0.9737 -2.9597
 6431TIP3   OH219298   2.782   2.031   4.096  0.0888 -0.1156 -0.2931
 6431TIP3    H119299   2.847   2.100   4.081  1.1351 -0.4308  2.2318
 6431TIP3    H219300   2.798   1.968   4.027  0.6409  1.0945 -1.3163
 6432TIP3   OH219301   2.373   2.124   4.511 -0.7009 -0.1597  0.5387
 6432TIP3    H119302   2.367   2.202   4.566 -0.8461  0.4697 -0.3400
 6432TIP3    H219303   2.354   2.156   4.423  0.9345 -0.8731 -0.1051
 6433TIP3   OH219304   1.233   2.188   2.089 -0.2686 -0.3893  0.7922
 6433TIP3    H119305   1.216   2.268   2.040 -1.0521 -0.5877  0.7272
 6433TIP3    H219306   1.322   2.163   2.064 -0.0562  0.3971  0.7292
 6434TIP3   OH219307   5.519   3.703   2.795 -0.3910 -0.6118  0.1213
 6434TIP3    H119308   5.442   3.741   2.836  0.4045  2.3421 -0.8147
 6434TIP3    H219309   5.558   3.776   2.746  1.7138 -2.5624 -1.3252
 6435TIP3   OH219310   5.376   2.810   1.651 -0.2287  0.1043 -0.4529
 6435TIP3    H119311   5.303   2.797   1.712 -0.8765  1.0740 -1.0010
 6435TIP3    H219312   5.337   2.855   1.576  0.7856 -0.0665 -1.0944
 6436TIP3   OH219313   6.031   4.589   4.359  0.0489  0.0264 -0.3804
 6436TIP3    H119314   5.990   4.589   4.272 -1.4028 -1.9189  0.2294
 6436TIP3    H219315   6.096   4.519   4.355  1.1421  1.0282 -0.3808
 6437TIP3   OH219316   2.629   5.401   0.513  0.0219  0.5175 -0.4743
 6437TIP3    H119317   2.614   5.494   0.497 -1.1972  0.6101  1.0102
 6437TIP3    H219318   2.668   5.398   0.600 -0.0877 -0.3737 -0.4530
 6438TIP3   OH219319   1.971   3.380   0.236  0.4942 -0.7134  0.5961
 6438TIP3    H119320   1.971   3.450   0.301  2.5314 -0.3454  0.2598
 6438TIP3    H219321   2.006   3.304   0.283  1.2194 -0.6620  0.1469
 6439TIP3   OH219322   0.769   5.846   4.074  0.3810  0.3201  0.1517
 6439TIP3    H119323   0.704   5.801   4.127  0.6674  0.2046  0.4142
 6439TIP3    H219324   0.810   5.776   4.023 -0.1702  0.4877 -0.5260
 6440TIP3   OH219325   1.827   0.795   1.452  0.3070 -0.0830  0.1167
 6440TIP3    H119326   1.855   0.877   1.494 -0.6595  1.0122 -1.2950
 6440TIP3    H219327   1.859   0.802   1.363  1.7697 -2.0962  0.4335
 6441TIP3   OH219328   4.707   0.871   0.239 -0.1556  0.6658 -0.1620
 6441TIP3    H119329   4.616   0.890   0.265 -0.6390 -0.1153 -1.2086
 6441TIP3    H219330   4.711   0.898   0.147  0.5348  0.2481 -0.2588
 6442TIP3   OH219331   1.728   2.267   1.929  0.7178 -0.3723  0.9525
 6442TIP3    H119332   1.751   2.343   1.875 -1.4924  0.0338  0.4979
 6442TIP3    H219333   1.799   2.205   1.913  2.4921  1.4712  1.1627
 6443TIP3   OH219334   1.297   0.927   5.020  0.3109 -0.4678 -0.0270
 6443TIP3    H119335   1.302   0.833   5.035  1.2806 -0.4781 -0.3556
 6443TIP3    H219336   1.361   0.944   4.951  1.5142  0.7002  1.3179
 6444TIP3   OH219337   3.430   0.434   1.448 -0.1077 -0.2373 -0.0493
 6444TIP3    H119338   3.403   0.451   1.538  0.7320 -0.6087  0.2913
 6444TIP3    H219339   3.427   0.338   1.439  1.4445 -0.3362  0.1496
 6445TIP3   OH219340   4.328   1.085   1.608 -0.6034  0.1554 -0.1464
 6445TIP3    H119341   4.233   1.091   1.599 -0.6502 -0.4747 -0.0901
 6445TIP3    H219342   4.346   1.121   1.694 -0.6721  1.3355 -0.6076
 6446TIP3   OH219343   5.062   5.437   4.901  0.1964 -0.2987  0.4226
 6446TIP3    H119344   5.134   5.389   4.942  0.9494 -0.8724 -1.4550
 6446TIP3    H219345   5.047   5.511   4.958  1.0944 -1.1225  1.7801
 6447TIP3   OH219346   0.876   2.026   0.711 -0.6271 -0.6396  0.4815
 6447TIP3    H119347   0.795   1.997   0.753 -1.3053  0.6835  0.1410
 6447TIP3    H219348   0.912   2.091   0.771 -0.7550  0.0645 -0.1783
 6448TIP3   OH219349   0.110   1.772   0.570 -0.2438 -0.4271  0.4654
 6448TIP3    H119350   0.016   1.792   0.565 -0.2880 -0.7611 -0.0400
 6448TIP3    H219351   0.132   1.735   0.485  0.5151  0.3369  0.3209
 6449TIP3   OH219352   6.073   5.282   5.027 -0.6072  1.2114  0.3606
 6449TIP3    H119353   6.091   5.205   4.974  0.2287  1.0978  0.7977
 6449TIP3    H219354   6.017   5.336   4.972  0.2666  1.1208 -0.6492
 6450TIP3   OH219355   4.198   5.684   4.804 -0.6277  0.4301 -0.6177
 6450TIP3    H119356   4.128   5.642   4.853  2.0509 -2.2937  1.2539
 6450TIP3    H219357   4.224   5.758   4.858 -0.2125 -0.2739  0.1648
 6451TIP3   OH219358   4.180   1.731   0.470 -0.1696 -0.3054 -0.1314
 6451TIP3    H119359   4.147   1.817   0.444  0.5453 -0.0957 -0.3729
 6451TIP3    H219360   4.211   1.744   0.559 -0.0562 -0.3123 -0.1700
 6452TIP3   OH219361   0.207   3.652   0.289  0.4316  0.6293 -0.2342
 6452TIP3    H119362   0.280   3.628   0.231 -0.1666 -0.5181 -0.5384
 6452TIP3    H219363   0.130   3.610   0.249 -0.1718  0.7093  0.8158
 6453TIP3   OH219364   3.450   3.909   3.004  0.6823 -0.3956  1.0109
 6453TIP3    H119365   3.474   3.834   3.059  1.4564  0.0252  1.2636
 6453TIP3    H219366   3.374   3.879   2.954 -0.1886 -0.7259  2.4678
 6454TIP3   OH219367   0.245   2.220   2.403  0.0631  0.1010  0.2028
 6454TIP3    H119368   0.266   2.306   2.439  0.0490 -0.4468  1.5745
 6454TIP3    H219369   0.246   2.233   2.308 -2.0574  2.1197  0.3625
 6455TIP3   OH219370   0.332   4.657   1.055 -0.7643 -0.1750  0.1700
 6455TIP3    H119371   0.345   4.717   0.981  0.6937 -0.3711  0.2405
 6455TIP3    H219372   0.346   4.712   1.132 -0.5358 -0.3549  0.2570
 6456TIP3   OH219373   4.918   3.354   4.412 -0.7346  0.0423  0.2337
 6456TIP3    H119374   4.876   3.358   4.498  1.6828  2.7225  1.4849
 6456TIP3    H219375   5.005   3.319   4.430  0.4589  2.2977 -0.7135
 6457TIP3   OH219376   4.278   3.445   0.339 -0.2743  0.1546  0.0904
 6457TIP3    H119377   4.306   3.536   0.352  0.9983 -0.2349  0.2223
 6457TIP3    H219378   4.203   3.451   0.280 -0.4545  1.3189  0.4203
 6458TIP3   OH219379   3.306   1.082   3.217 -0.1901  0.4778  0.5742
 6458TIP3    H119380   3.235   1.141   3.244  1.1048  2.2633  0.2788
 6458TIP3    H219381   3.350   1.130   3.147 -0.0154 -1.5693 -0.8051
 6459TIP3   OH219382   0.526   4.853   2.619 -0.1272  0.3414  0.0166
 6459TIP3    H119383   0.474   4.808   2.686 -2.2775 -0.1847 -1.8977
 6459TIP3    H219384   0.505   4.808   2.538 -0.4689  3.2303 -1.6119
 6460TIP3   OH219385   2.322   0.217   0.638  0.0612  0.4794 -0.0215
 6460TIP3    H119386   2.347   0.291   0.583 -0.5423  1.0096  0.3892
 6460TIP3    H219387   2.404   0.176   0.663  0.5271  1.9281  0.9635
 6461TIP3   OH219388   3.937   5.913   1.217 -0.1848  0.1157 -0.3369
 6461TIP3    H119389   3.949   6.003   1.247 -0.8202  0.4620 -1.0793
 6461TIP3    H219390   3.981   5.910   1.132 -2.5020  0.5167 -1.6084
 6462TIP3   OH219391   2.737   1.895  -0.018  0.3499 -0.2227  0.2686
 6462TIP3    H119392   2.698   1.821   0.027  1.5612 -1.1155 -0.0815
 6462TIP3    H219393   2.811   1.921   0.037  0.4485  0.1717 -0.0376
 6463TIP3   OH219394   5.151   2.097   0.831 -0.0408 -0.4140  0.0336
 6463TIP3    H119395   5.140   2.182   0.874  1.9185 -0.1728  0.1358
 6463TIP3    H219396   5.245   2.090   0.815 -0.5743 -0.5127 -4.1955
 6464TIP3   OH219397   4.504   0.919   2.996 -0.0378 -0.2354 -0.2697
 6464TIP3    H119398   4.484   0.998   3.047 -2.2591 -0.1357 -1.1858
 6464TIP3    H219399   4.486   0.944   2.905 -1.6799 -2.0035 -0.4917
 6465TIP3   OH219400   1.252   0.748   0.470 -0.2961 -0.0267  0.2212
 6465TIP3    H119401   1.315   0.800   0.420 -0.2962 -1.1561 -0.9765
 6465TIP3    H219402   1.290   0.744   0.558  0.9809 -0.1426 -0.3142
 6466TIP3   OH219403   1.046   3.278   2.061 -0.0823  0.5455 -0.2013
 6466TIP3    H119404   1.010   3.354   2.015  0.5484  1.2666  0.4443
 6466TIP3    H219405   1.024   3.294   2.153  1.0439  0.5461  0.0859
 6467TIP3   OH219406   0.324   2.343   1.593 -0.6950  0.3064  0.5985
 6467TIP3    H119407   0.318   2.386   1.508 -0.3591 -2.1367 -0.7522
 6467TIP3    H219408   0.238   2.357   1.632 -1.8817 -0.8373 -1.3964
 6468TIP3   OH219409   4.491   5.253   3.229  0.1789 -0.3436  0.2306
 6468TIP3    H119410   4.539   5.226   3.307  0.8269  0.2740  0.0679
 6468TIP3    H219411   4.549   5.318   3.188 -0.5498 -0.0100 -0.2845
 6469TIP3   OH219412   4.189   5.606   3.939 -0.4455 -0.1089  0.0959
 6469TIP3    H119413   4.098   5.615   3.912 -0.4998  0.6285  0.5166
 6469TIP3    H219414   4.208   5.513   3.928 -0.8760 -0.0708 -1.1758
 6470TIP3   OH219415   5.627   2.229   3.327 -0.2664 -0.1170  0.2766
 6470TIP3    H119416   5.603   2.297   3.389 -0.2710 -0.8655  1.1268
 6470TIP3    H219417   5.602   2.263   3.241  0.4112  1.2479  0.5993
 6471TIP3   OH219418   1.431   0.730   0.673 -0.5326  0.0473 -0.3371
 6471TIP3    H119419   1.448   0.736   0.767  1.6081  0.4091 -0.7081
 6471TIP3    H219420   1.479   0.652   0.645  0.4279  1.0055 -1.4407
 6472TIP3   OH219421   4.430   4.148   2.371  0.5232  0.1622 -0.1734
 6472TIP3    H119422   4.352   4.145   2.428 -2.1991 -1.9007 -3.5859
 6472TIP3    H219423   4.435   4.239   2.342 -2.2505 -0.0600 -1.7189
 6473TIP3   OH219424   5.365   5.155   3.946  0.2787 -0.0410  0.0495
 6473TIP3    H119425   5.333   5.242   3.922  1.5485  0.1419 -1.0969
 6473TIP3    H219426   5.332   5.141   4.035 -1.3164  0.9105 -0.3547
 6474TIP3   OH219427   0.330   1.573   4.370  0.7358  0.3090  0.5813
 6474TIP3    H119428   0.341   1.589   4.276  0.6482 -0.9238  0.3544
 6474TIP3    H219429   0.264   1.637   4.397  0.9965  0.8978 -0.1208
 6475TIP3   OH219430   5.906   0.901   5.053  0.0482  0.3761 -0.3889
 6475TIP3    H119431   5.965   0.836   5.092 -0.4137 -0.1359 -0.5424
 6475TIP3    H219432   5.826   0.853   5.033 -0.0678  0.8470 -1.0992
 6476TIP3   OH219433   3.342   2.606   4.895  0.5759 -0.1502 -0.0567
 6476TIP3    H119434   3.430   2.568   4.900  0.3188 -0.8905 -0.7973
 6476TIP3    H219435   3.353   2.687   4.846  1.0351  0.4499  0.9887
 6477TIP3   OH219436   0.979   1.872   4.701 -0.5622  0.2774  0.2442
 6477TIP3    H119437   0.953   1.841   4.787 -1.6609  0.6950  0.0791
 6477TIP3    H219438   0.899   1.909   4.663 -0.5073 -1.3184 -1.5815
 6478TIP3   OH219439   0.764   0.059   4.461 -0.4259 -0.2062  0.0522
 6478TIP3    H119440   0.856   0.084   4.471 -0.3233 -0.8792  1.0572
 6478TIP3    H219441   0.716   0.141   4.463 -0.0672  0.0536  2.7402
 6479TIP3   OH219442   4.976   1.023   2.175 -0.6682 -0.5638 -0.0536
 6479TIP3    H119443   4.995   1.016   2.081 -0.9390 -0.2329 -0.1341
 6479TIP3    H219444   4.996   0.936   2.209 -1.0022 -0.8204 -0.4998
 6480TIP3   OH219445   4.056   3.526   4.502  0.3773  0.4137  0.2260
 6480TIP3    H119446   4.121   3.456   4.500 -0.3260 -0.2767 -2.2223
 6480TIP3    H219447   4.093   3.595   4.446 -0.2019  0.7849  0.2827
 6481TIP3   OH219448   5.610   3.851   4.458 -0.1202 -0.3169 -0.4787
 6481TIP3    H119449   5.663   3.778   4.426  1.3478  0.6636 -0.3964
 6481TIP3    H219450   5.641   3.868   4.546 -2.8361 -1.7541  0.8732
 6482TIP3   OH219451   1.675   0.595   1.604 -0.3763 -0.0673 -0.4233
 6482TIP3    H119452   1.742   0.542   1.647 -1.0895 -0.0456  0.7575
 6482TIP3    H219453   1.723   0.670   1.569  0.2813 -0.2535  0.0529
 6483TIP3   OH219454   2.498   5.115   1.131  0.1396 -0.6386  0.2186
 6483TIP3    H119455   2.526   5.201   1.099  1.4531 -1.7022 -1.6229
 6483TIP3    H219456   2.579   5.066   1.144 -0.6236 -1.9676  0.1881
 6484TIP3   OH219457   3.996   4.937   2.580 -0.1457 -0.1301  0.6093
 6484TIP3    H119458   3.953   4.913   2.499 -0.8889  0.6896  0.7558
 6484TIP3    H219459   3.982   5.031   2.589 -1.0931 -0.3781  2.2646
 6485TIP3   OH219460   3.324   3.776   1.885  0.3178 -0.1472  0.0535
 6485TIP3    H119461   3.350   3.844   1.824  3.3308 -1.0343  0.2045
 6485TIP3    H219462   3.280   3.823   1.956  1.6049  1.5710 -0.2280
 6486TIP3   OH219463   5.927   4.982   0.480 -0.4790  0.0228 -0.5117
 6486TIP3    H119464   5.876   4.949   0.406 -1.6842 -1.5602  0.9160
 6486TIP3    H219465   5.877   5.056   0.513 -1.0872 -0.5730 -0.0522
 6487TIP3   OH219466   4.369   1.619   1.666 -0.1813  0.6749 -0.2414
 6487TIP3    H119467   4.312   1.546   1.689  2.0180 -1.4598 -1.0624
 6487TIP3    H219468   4.381   1.611   1.572  1.0282  1.3546 -0.1681
 6488TIP3   OH219469   0.461   5.799   3.443 -0.5797 -0.5328 -0.0916
 6488TIP3    H119470   0.533   5.819   3.382 -2.2174  0.2005 -1.8765
 6488TIP3    H219471   0.483   5.846   3.523  1.7569 -1.7018  0.0435
 6489TIP3   OH219472   2.722   3.600   1.729  0.0710 -0.2603 -0.6327
 6489TIP3    H119473   2.758   3.513   1.746  0.9198  0.5525  2.3362
 6489TIP3    H219474   2.797   3.652   1.701 -0.3561 -0.3192 -1.9752
 6490TIP3   OH219475   6.214   0.085   0.115  0.3712  0.2316 -0.1229
 6490TIP3    H119476   6.152   0.098   0.043 -0.3508  0.5179  0.5324
 6490TIP3    H219477   6.228   0.173   0.150  0.8482  0.1159 -0.0174
 6491TIP3   OH219478   0.207   2.652   2.586  0.2275 -0.1662  0.0936
 6491TIP3    H119479   0.113   2.637   2.598  0.2946  0.6879  2.1045
 6491TIP3    H219480   0.233   2.703   2.663  2.5636 -1.3151  0.1407
 6492TIP3   OH219481   2.393   4.537   3.094 -0.4031 -0.1545 -0.5949
 6492TIP3    H119482   2.339   4.616   3.102  0.0465  0.0573  0.4744
 6492TIP3    H219483   2.338   4.467   3.130 -0.1059  0.0019  0.1765
 6493TIP3   OH219484   5.899   5.816   3.307 -0.1344  0.0441 -0.5100
 6493TIP3    H119485   5.905   5.872   3.384  0.5348 -0.1165 -0.4379
 6493TIP3    H219486   5.847   5.866   3.244 -1.2229 -0.0868  0.2672
 6494TIP3   OH219487   1.318   4.175   1.209  0.5805 -0.0001 -0.3745
 6494TIP3    H119488   1.289   4.263   1.234  0.5427  0.2595 -1.2778
 6494TIP3    H219489   1.405   4.189   1.171  0.5081 -0.3271 -0.6612
 6495TIP3   OH219490   3.246   2.683   3.146  0.4446 -0.7437  0.1193
 6495TIP3    H119491   3.200   2.697   3.229  0.4074 -1.5301  0.2366
 6495TIP3    H219492   3.188   2.626   3.095  0.8763 -1.0019 -0.0907
 6496TIP3   OH219493   0.153   2.818   2.845 -0.0605 -0.4311  0.4683
 6496TIP3    H119494   0.182   2.901   2.805  1.0014 -0.3396  1.3796
 6496TIP3    H219495   0.062   2.833   2.868 -0.2595  0.0334 -0.5360
 6497TIP3   OH219496   6.164   2.174   4.553  0.0130  0.1745  0.4364
 6497TIP3    H119497   6.119   2.146   4.633  1.4276  1.7117  1.8627
 6497TIP3    H219498   6.105   2.149   4.482 -2.6023  1.1579  2.1138
 6498TIP3   OH219499   1.651   4.799   2.886  0.1840  0.0749 -0.6106
 6498TIP3    H119500   1.681   4.889   2.879  0.2858  0.0005 -1.1925
 6498TIP3    H219501   1.589   4.799   2.959  0.7180  0.4709 -0.1521
 6499TIP3   OH219502   0.116   4.643   5.139 -0.5999  0.2618  0.1035
 6499TIP3    H119503   0.049   4.626   5.205  0.3639 -0.3694  0.9397
 6499TIP3    H219504   0.190   4.588   5.164 -0.8025 -1.3562 -2.4749
 6500TIP3   OH219505   0.578   3.213   5.011 -0.6020  0.3343 -0.2719
 6500TIP3    H119506   0.541   3.233   5.097  0.7047 -0.6508  0.5573
 6500TIP3    H219507   0.502   3.207   4.953 -1.4582  1.8909  0.5978
 6501TIP3   OH219508   4.254   3.150   5.026  0.9752  0.5101  0.2195
 6501TIP3    H119509   4.320   3.217   5.046  1.3537 -0.4086  2.3596
 6501TIP3    H219510   4.176   3.200   5.004  1.0807  1.7618  2.3476
 6502TIP3   OH219511   3.691   5.247   3.622  0.2322  0.0736 -0.1683
 6502TIP3    H119512   3.752   5.243   3.695  0.4576 -3.6020 -0.3617
 6502TIP3    H219513   3.670   5.340   3.613 -0.2130  0.7620  4.8594
 6503TIP3   OH219514   4.408   1.772   0.621  0.2600  1.0913 -0.1246
 6503TIP3    H119515   4.467   1.702   0.591  0.8433  0.7904  1.5832
 6503TIP3    H219516   4.454   1.853   0.600  0.4742  0.9025 -0.3923
 6504TIP3   OH219517   5.785   1.226   2.643  0.7835 -0.2794 -0.2110
 6504TIP3    H119518   5.841   1.214   2.720 -0.9138  0.9974  1.2928
 6504TIP3    H219519   5.805   1.314   2.612  0.5884 -0.3345 -0.4964
 6505TIP3   OH219520   0.362   3.575   1.607 -0.4710  0.8136  0.2779
 6505TIP3    H119521   0.428   3.567   1.538  0.2954 -3.2947  1.2229
 6505TIP3    H219522   0.413   3.574   1.688 -1.5048 -2.2650  1.0211
 6506TIP3   OH219523   4.322   2.120   4.482 -0.1766 -0.0399  0.0336
 6506TIP3    H119524   4.336   2.027   4.462 -2.3308 -0.2515 -0.7010
 6506TIP3    H219525   4.252   2.120   4.547 -0.7515  1.1037 -0.5750
 6507TIP3   OH219526   5.193   0.748   4.658 -0.3230 -0.1198  0.1186
 6507TIP3    H119527   5.287   0.730   4.667 -0.1960  0.6987  0.5179
 6507TIP3    H219528   5.155   0.665   4.628  0.6903 -0.1620 -1.1430
 6508TIP3   OH219529   0.074   5.366   3.698  0.4106 -0.2182  0.0613
 6508TIP3    H119530   0.135   5.334   3.631  0.7927 -0.2730  0.4287
 6508TIP3    H219531   0.044   5.451   3.665  1.1005  0.0573  0.1271
 6509TIP3   OH219532   2.487   3.497   0.002 -0.0545 -0.0336  0.5939
 6509TIP3    H119533   2.395   3.497   0.029 -0.2296 -1.7480  0.1271
 6509TIP3    H219534   2.536   3.497   0.084 -0.4517  0.8940  0.8462
 6510TIP3   OH219535   4.146   0.782   5.109  0.4467 -0.7721 -0.3244
 6510TIP3    H119536   4.187   0.719   5.169 -0.7467 -1.0408  0.2422
 6510TIP3    H219537   4.206   0.856   5.108 -0.4998  0.2405  3.0614
 6511TIP3   OH219538   2.369   1.369   2.672 -0.3497 -0.6778  0.4101
 6511TIP3    H119539   2.384   1.369   2.766  1.6472 -0.8913  0.1395
 6511TIP3    H219540   2.454   1.392   2.634 -1.3803  0.5356 -1.3187
 6512TIP3   OH219541   5.039   3.664   4.424 -0.0171 -0.1337 -0.1522
 6512TIP3    H119542   5.133   3.653   4.427  0.0345 -0.5267 -1.9204
 6512TIP3    H219543   5.003   3.577   4.441 -0.0510 -0.0359  0.2739
 6513TIP3   OH219544   2.486   2.783   3.228 -0.2454 -0.2869  0.9093
 6513TIP3    H119545   2.508   2.855   3.169 -1.2968 -1.5937 -1.1778
 6513TIP3    H219546   2.557   2.783   3.292  1.6104  0.4979 -1.0112
 6514TIP3   OH219547   5.530   0.516   0.313 -0.0089 -0.0099  0.3391
 6514TIP3    H119548   5.623   0.497   0.321  0.0677  0.6984  1.2824
 6514TIP3    H219549   5.514   0.587   0.375 -1.2097 -0.2329  0.3223
 6515TIP3   OH219550   3.629   2.467   3.601  0.1305 -0.1969  0.0965
 6515TIP3    H119551   3.571   2.420   3.661  1.4218 -1.5947  0.3021
 6515TIP3    H219552   3.620   2.422   3.518  2.0681 -1.4823  0.5226
 6516TIP3   OH219553   2.401   0.236   2.901  0.3667 -0.1553  0.0746
 6516TIP3    H119554   2.351   0.156   2.884 -0.8217  0.4995  0.3103
 6516TIP3    H219555   2.485   0.221   2.859  0.3795 -1.7430  0.5930
 6517TIP3   OH219556   4.406   0.198   0.223 -0.1431 -0.2167 -0.7478
 6517TIP3    H119557   4.407   0.152   0.139 -0.4126 -1.3382 -0.1659
 6517TIP3    H219558   4.313   0.207   0.243 -0.0757 -0.6582 -0.2136
 6518TIP3   OH219559   5.941   0.356   3.655  0.1542 -0.1745 -0.1715
 6518TIP3    H119560   5.940   0.279   3.711  2.2463  0.1264  0.3665
 6518TIP3    H219561   6.016   0.343   3.597 -0.0507  1.0131 -0.7416
 6519TIP3   OH219562   5.520   5.036   3.214 -0.0840  0.1695  0.2968
 6519TIP3    H119563   5.481   4.953   3.187 -0.9231  0.7517 -0.3349
 6519TIP3    H219564   5.445   5.094   3.228  0.3292  0.1819  3.0396
 6520TIP3   OH219565   2.120   0.932   3.431  0.4338  0.2837  0.0155
 6520TIP3    H119566   2.214   0.948   3.423  0.6079 -1.5578 -2.7123
 6520TIP3    H219567   2.082   0.972   3.354 -0.9488  0.2974  0.6747
 6521TIP3   OH219568   4.215   4.070   2.058  0.8301 -0.0346 -0.1815
 6521TIP3    H119569   4.231   4.013   1.983 -1.1953  0.3946 -1.0134
 6521TIP3    H219570   4.240   4.158   2.027  0.3830  0.0835 -0.2096
 6522TIP3   OH219571   2.892   0.801   2.786 -0.3538  0.1507  0.4076
 6522TIP3    H119572   2.796   0.804   2.785 -0.3543 -0.0192 -0.4489
 6522TIP3    H219573   2.914   0.714   2.818 -0.5279 -1.0297 -2.4268
 6523TIP3   OH219574   3.124   5.333   4.489  0.8020  0.1851  0.2200
 6523TIP3    H119575   3.205   5.336   4.538  1.3429  2.5847 -0.6478
 6523TIP3    H219576   3.100   5.425   4.477 -0.8704 -0.3876 -1.4190
 6524TIP3   OH219577   6.242   4.362   4.343  0.0018  0.6274 -0.0993
 6524TIP3    H119578   6.315   4.311   4.309  0.3128  0.4884  0.7432
 6524TIP3    H219579   6.170   4.299   4.351 -0.1290  0.7030 -0.6642
 6525TIP3   OH219580   2.617   3.743   0.265 -0.0370  0.1822  0.2431
 6525TIP3    H119581   2.667   3.662   0.265  0.1360  0.2545  1.7770
 6525TIP3    H219582   2.526   3.716   0.257 -0.0094 -0.2146  1.1357
 6526TIP3   OH219583   4.650   3.064   5.049 -0.2834  0.0028 -0.2776
 6526TIP3    H119584   4.737   3.048   5.012 -0.7352  0.4337 -1.5592
 6526TIP3    H219585   4.643   2.999   5.119  0.0605 -1.8248 -1.8350
 6527TIP3   OH219586   0.714   4.729   5.140 -0.1354  0.3079  0.8572
 6527TIP3    H119587   0.801   4.724   5.181 -0.5699  0.5364  1.8300
 6527TIP3    H219588   0.670   4.801   5.186 -0.0086  1.8303 -1.2812
 6528TIP3   OH219589   4.166   0.337   0.318 -0.1551  0.3880  0.1572
 6528TIP3    H119590   4.099   0.402   0.295  1.6785  1.5718 -2.1802
 6528TIP3    H219591   4.209   0.374   0.395  1.5384  2.6383 -1.7167
 6529TIP3   OH219592   5.654   0.188   0.444 -0.0473 -0.5506  0.1157
 6529TIP3    H119593   5.602   0.173   0.365 -1.6032  1.1924  0.7451
 6529TIP3    H219594   5.621   0.123   0.507 -2.0472  0.9685  0.7262
 6530TIP3   OH219595   0.553   5.855   1.606  0.0271  0.1007 -0.1810
 6530TIP3    H119596   0.463   5.870   1.637  0.3806 -0.6070  1.2307
 6530TIP3    H219597   0.603   5.928   1.641  0.0920  0.2619 -0.6050
 6531TIP3   OH219598   0.975   4.045   3.831 -0.3148  0.1199 -0.0315
 6531TIP3    H119599   0.962   4.139   3.840  1.9390  0.4021  0.9345
 6531TIP3    H219600   1.044   4.036   3.766  2.1486 -0.5877  2.5008
 6532TIP3   OH219601   0.080   3.024   0.516  0.2346  0.5585  0.0221
 6532TIP3    H119602   0.034   3.023   0.432 -1.8218  2.6331  0.9927
 6532TIP3    H219603   0.143   3.096   0.507  2.5656 -1.4637 -0.8594
 6533TIP3   OH219604   3.676   5.989   2.292  0.5064 -0.5493  0.1701
 6533TIP3    H119605   3.609   5.940   2.246 -1.1764  0.8031  1.0633
 6533TIP3    H219606   3.754   5.983   2.236 -1.5723  1.6494 -3.3427
 6534TIP3   OH219607   2.495   1.813   0.891  0.5704 -0.9188  0.6326
 6534TIP3    H119608   2.484   1.806   0.796  0.4715  1.0313  0.4678
 6534TIP3    H219609   2.589   1.820   0.904  0.5250 -0.1237  0.5752
 6535TIP3   OH219610   4.534   1.054   0.070  0.5540 -0.2866 -0.5891
 6535TIP3    H119611   4.569   0.990   0.008 -1.0968 -0.3321 -1.5335
 6535TIP3    H219612   4.609   1.106   0.096  1.4577 -0.8909 -1.8963
 6536TIP3   OH219613   3.374   1.540   0.349  0.1640 -0.9721  0.7550
 6536TIP3    H119614   3.428   1.548   0.270  0.1906 -0.0515  0.8484
 6536TIP3    H219615   3.374   1.447   0.370 -0.7833 -1.4017 -0.9766
 6537TIP3   OH219616   1.876   3.891   3.604  0.4602  0.2072  0.1262
 6537TIP3    H119617   1.897   3.912   3.513  1.8358 -0.8395  0.1715
 6537TIP3    H219618   1.896   3.798   3.613  0.0019  0.2091  1.4151
 6538TIP3   OH219619   4.861   1.879   0.743 -0.2896 -0.1795 -0.5023
 6538TIP3    H119620   4.768   1.888   0.764 -0.8333 -0.8017 -2.4903
 6538TIP3    H219621   4.899   1.965   0.764 -0.8195 -0.5375  2.3699
 6539TIP3   OH219622   2.944   3.352   1.680 -0.1915 -0.0375 -0.5419
 6539TIP3    H119623   2.977   3.376   1.593  0.0624  3.1867  0.3035
 6539TIP3    H219624   3.017   3.372   1.739 -1.0391 -0.2640  0.6104
 6540TIP3   OH219625   5.074   1.484   4.356 -0.0258 -0.4625  0.0133
 6540TIP3    H119626   5.141   1.419   4.333 -0.7753 -1.1017 -0.3894
 6540TIP3    H219627   5.026   1.499   4.275  0.3230  0.8376  0.0301
 6541TIP3   OH219628   1.658   1.785   1.046 -0.3317  0.3826 -0.3606
 6541TIP3    H119629   1.604   1.809   0.971  0.7081  1.6816 -0.7363
 6541TIP3    H219630   1.746   1.815   1.023 -0.3056  2.5084  2.0957
 6542TIP3   OH219631   5.272   4.836   2.699  0.2309 -1.0292  0.5123
 6542TIP3    H119632   5.358   4.875   2.714  1.0432 -2.1203 -1.0138
 6542TIP3    H219633   5.210   4.895   2.743  1.6352  0.4825  0.5352
 6543TIP3   OH219634   2.728   3.232   2.695 -0.5504 -0.6072 -0.1019
 6543TIP3    H119635   2.732   3.308   2.638  0.4207 -1.0269 -0.6117
 6543TIP3    H219636   2.801   3.177   2.667 -0.8248 -1.4071  0.7111
 6544TIP3   OH219637   4.683   5.100   0.744 -0.0657  0.7614 -0.6120
 6544TIP3    H119638   4.737   5.178   0.758 -0.3416  0.8587 -0.0805
 6544TIP3    H219639   4.719   5.061   0.664  0.3707  1.1802 -0.6284
 6545TIP3   OH219640   3.088   3.876   2.507 -0.1599  0.2306 -0.4162
 6545TIP3    H119641   3.067   3.910   2.594  1.3864 -0.6718  0.3642
 6545TIP3    H219642   3.006   3.838   2.476 -0.6468  0.2134  0.8223
 6546TIP3   OH219643   0.641   3.566   0.911 -0.0183 -0.3299 -0.4968
 6546TIP3    H119644   0.602   3.651   0.928 -1.6334 -1.1316  0.0573
 6546TIP3    H219645   0.696   3.549   0.988  0.7934  0.4525 -0.8924
 6547TIP3   OH219646   2.436   3.384   1.708  0.4263 -0.4716  0.1486
 6547TIP3    H119647   2.518   3.335   1.707 -0.6488 -2.5908  2.8089
 6547TIP3    H219648   2.463   3.475   1.718  2.4588 -1.0291  0.2193
 6548TIP3   OH219649   5.527   0.257   2.031  0.0837 -0.0529  1.0925
 6548TIP3    H119650   5.510   0.209   1.950 -0.3771  0.6560  0.7602
 6548TIP3    H219651   5.619   0.281   2.026 -0.1433  0.7124  0.3709
 6549TIP3   OH219652   5.524   1.072   0.707  0.1023 -0.0703 -0.4349
 6549TIP3    H119653   5.488   1.137   0.768  0.5932  0.1122 -0.3403
 6549TIP3    H219654   5.538   0.994   0.762  0.2315 -0.0133 -0.3880
 6550TIP3   OH219655   3.825   3.493   5.117  0.3155  0.3021  0.6164
 6550TIP3    H119656   3.918   3.510   5.128  0.2801  0.2722  0.9742
 6550TIP3    H219657   3.789   3.496   5.205  0.0326 -0.0086  0.5172
 6551TIP3   OH219658   2.435   2.766   0.711  0.6036 -0.2626  0.0398
 6551TIP3    H119659   2.443   2.704   0.639  1.1846 -0.3262  0.1521
 6551TIP3    H219660   2.383   2.720   0.777  0.7785 -0.5193 -0.0013
 6552TIP3   OH219661   3.375   5.377   2.545 -0.0847  0.3857 -0.1932
 6552TIP3    H119662   3.463   5.377   2.584  0.0062  0.8871 -0.3816
 6552TIP3    H219663   3.324   5.434   2.602 -0.9923 -1.8596  1.3923
 6553TIP3   OH219664   2.813   4.578   4.066 -0.2809 -0.3850 -0.0656
 6553TIP3    H119665   2.904   4.567   4.039  0.2213  1.3133  0.7734
 6553TIP3    H219666   2.818   4.601   4.159 -1.4445  1.1459 -0.3427
 6554TIP3   OH219667   6.293   1.822   3.523 -0.2834 -0.0750 -0.1101
 6554TIP3    H119668   6.353   1.754   3.556  0.0421  0.0745 -0.3888
 6554TIP3    H219669   6.233   1.837   3.596  0.3693  0.1744  0.3954
 6555TIP3   OH219670   4.645   1.494   2.090  0.0366  0.4665 -0.0248
 6555TIP3    H119671   4.711   1.434   2.057 -1.5253 -1.8504  0.8276
 6555TIP3    H219672   4.618   1.544   2.012 -0.0803 -1.4001 -1.2513
 6556TIP3   OH219673   3.276   1.005   2.111  0.0929 -0.6928 -0.0166
 6556TIP3    H119674   3.198   0.949   2.111 -0.6524  0.2879 -1.0596
 6556TIP3    H219675   3.262   1.065   2.038  1.7259 -0.3259 -0.0655
 6557TIP3   OH219676   4.122   3.787   1.273  0.4838 -0.2563  0.3287
 6557TIP3    H119677   4.034   3.805   1.305 -0.3071 -1.3315 -1.1263
 6557TIP3    H219678   4.126   3.829   1.187  1.5239  0.0862  0.5282
 6558TIP3   OH219679   6.245   0.133   4.290  0.0709  0.1323  0.5653
 6558TIP3    H119680   6.246   0.228   4.303 -3.0202  0.5869 -1.5753
 6558TIP3    H219681   6.278   0.121   4.201  1.4733 -0.9726  1.1929
 6559TIP3   OH219682   3.917   2.934   1.124 -0.5188  0.7525  0.0047
 6559TIP3    H119683   3.836   2.984   1.137 -1.0697  0.0516 -0.6467
 6559TIP3    H219684   3.976   2.995   1.079 -1.5166  0.5423 -1.6570
 6560TIP3   OH219685   3.078   1.475   0.975 -0.0742 -0.1332  0.2222
 6560TIP3    H119686   3.071   1.399   1.033  2.0061 -0.4200  0.1756
 6560TIP3    H219687   3.039   1.547   1.025  0.5599 -0.6399  1.4930
 6561TIP3   OH219688   1.575   2.644   1.708  0.0958 -0.1459 -0.3551
 6561TIP3    H119689   1.530   2.680   1.632 -1.3741  1.1328  1.0547
 6561TIP3    H219690   1.666   2.634   1.679 -0.5352 -0.3531 -2.4565
 6562TIP3   OH219691   0.391   2.225   3.068 -0.6318  0.2792  0.1610
 6562TIP3    H119692   0.483   2.207   3.087 -0.7056 -0.4727 -0.1391
 6562TIP3    H219693   0.369   2.301   3.123 -0.1092 -0.1549  0.9922
 6563TIP3   OH219694   3.048   0.379   2.587 -0.6868  0.0823 -0.2952
 6563TIP3    H119695   3.030   0.410   2.676  1.5814  0.8606 -0.0243
 6563TIP3    H219696   3.041   0.458   2.533  0.4373  0.1587 -0.3624
 6564TIP3   OH219697   4.155   5.417   2.721  0.1844  0.2962  0.2408
 6564TIP3    H119698   4.201   5.426   2.805 -1.8196  0.9963  1.3152
 6564TIP3    H219699   4.084   5.480   2.726 -0.1477  0.1542 -1.9081
 6565TIP3   OH219700   0.637   4.905   3.530 -0.0852  0.5096  0.4342
 6565TIP3    H119701   0.685   4.912   3.448  2.4636 -0.3931  1.7489
 6565TIP3    H219702   0.612   4.812   3.535  0.9692  0.2610  1.2859
 6566TIP3   OH219703   2.472   0.747   1.284 -0.2405  0.3821 -0.4155
 6566TIP3    H119704   2.438   0.747   1.195 -0.1244 -1.3592 -0.4992
 6566TIP3    H219705   2.532   0.672   1.286 -0.4615  0.2178  1.1993
 6567TIP3   OH219706   1.012   1.860   0.144  0.2328 -0.6578 -0.0200
 6567TIP3    H119707   1.049   1.948   0.146 -0.7352 -0.2458  0.4370
 6567TIP3    H219708   1.073   1.807   0.196  1.4500 -0.5306 -1.2622
 6568TIP3   OH219709   4.575   3.691   1.116  0.3342  0.2790 -0.0475
 6568TIP3    H119710   4.568   3.607   1.071  0.6553  0.0423  0.3417
 6568TIP3    H219711   4.632   3.744   1.059 -0.8422  0.6618 -0.9137
 6569TIP3   OH219712   5.216   1.948   2.121  0.6109  0.4161 -0.2597
 6569TIP3    H119713   5.241   1.856   2.112  2.3360  0.7533  0.5734
 6569TIP3    H219714   5.214   1.962   2.216 -2.6476  0.5234 -0.2500
 6570TIP3   OH219715   6.288   5.294   4.833 -0.1322  0.3101  0.4785
 6570TIP3    H119716   6.360   5.288   4.897 -0.0529  1.8092  0.5632
 6570TIP3    H219717   6.220   5.344   4.878 -0.3407  0.8162 -0.3787
 6571TIP3   OH219718   5.205   0.930   1.138  0.0054  0.4591 -0.0931
 6571TIP3    H119719   5.148   0.983   1.082 -0.3514 -0.0751 -0.2338
 6571TIP3    H219720   5.145   0.878   1.192  0.3596 -0.0287 -0.1658
 6572TIP3   OH219721   1.872   4.673   0.637  0.0721  0.3795  0.3774
 6572TIP3    H119722   1.810   4.683   0.709  0.8391  0.4330  1.0458
 6572TIP3    H219723   1.890   4.579   0.634 -0.9586  0.1996 -0.6132
 6573TIP3   OH219724   3.346   0.849   3.861 -0.0473 -0.0933  0.0518
 6573TIP3    H119725   3.354   0.944   3.866  0.7419 -0.1926  1.2447
 6573TIP3    H219726   3.378   0.826   3.774 -1.1968  0.7971 -0.6340
 6574TIP3   OH219727   1.216   2.579   2.462  0.0593  0.3117  0.3277
 6574TIP3    H119728   1.245   2.636   2.390 -1.1237 -2.0218 -2.1801
 6574TIP3    H219729   1.144   2.529   2.425 -0.7141 -0.9625  3.2585
 6575TIP3   OH219730   5.002   0.512   4.332  0.2562  1.0000 -0.3970
 6575TIP3    H119731   5.085   0.557   4.318  0.1293  1.2093 -0.4978
 6575TIP3    H219732   5.006   0.481   4.423  0.3293  1.2576 -0.3095
 6576TIP3   OH219733   5.343   0.798   1.984  0.2594 -0.3895 -0.9836
 6576TIP3    H119734   5.367   0.758   1.901 -0.6034 -0.0235 -1.4140
 6576TIP3    H219735   5.337   0.891   1.965 -1.8426 -0.4788 -0.9986
 6577TIP3   OH219736   1.075   5.677   4.186 -0.1523 -0.1349  0.4433
 6577TIP3    H119737   1.020   5.602   4.210  0.7526 -1.5316 -1.5327
 6577TIP3    H219738   1.165   5.647   4.202  0.2449  0.3462 -0.7789
 6578TIP3   OH219739   4.748   1.934   0.064 -0.3179  0.7145 -0.0221
 6578TIP3    H119740   4.677   1.907   0.122 -0.6052 -1.9503 -1.4702
 6578TIP3    H219741   4.707   1.993   0.001 -1.0579 -0.0972 -0.3115
 6579TIP3   OH219742   1.382   5.286   5.123  0.3864 -0.5590  0.1387
 6579TIP3    H119743   1.343   5.368   5.154 -0.8324 -0.1835 -2.1296
 6579TIP3    H219744   1.474   5.307   5.107 -0.3034  1.0310 -2.2662
 6580TIP3   OH219745   4.332   4.073   3.716  0.3705 -0.3089 -0.0987
 6580TIP3    H119746   4.342   4.045   3.625 -0.9209 -0.5777 -0.1785
 6580TIP3    H219747   4.239   4.092   3.726  0.7059  1.0673  0.8020
 6581TIP3   OH219748   2.107  -0.005   0.058 -0.3229  0.2472  0.6153
 6581TIP3    H119749   2.117   0.027  -0.032 -1.0851 -1.0045  0.0564
 6581TIP3    H219750   2.124   0.072   0.113 -1.9899  1.5794 -0.6397
 6582TIP3   OH219751   0.182   0.060   4.531 -0.8430 -0.5003 -0.3567
 6582TIP3    H119752   0.222   0.066   4.444 -0.7046 -1.3817 -0.3595
 6582TIP3    H219753   0.136  -0.024   4.531 -0.4496 -0.7270  0.5868
 6583TIP3   OH219754   4.639   5.221   1.659 -0.1616  0.0972  0.7371
 6583TIP3    H119755   4.674   5.275   1.589 -0.7613 -0.6627 -0.1714
 6583TIP3    H219756   4.552   5.256   1.677 -0.5951 -0.6021  0.0723
 6584TIP3   OH219757   3.392   1.458   4.258 -0.4460  0.1491  0.1707
 6584TIP3    H119758   3.347   1.376   4.233 -1.5579  0.7612  0.0947
 6584TIP3    H219759   3.363   1.475   4.347 -2.4146  1.8466 -0.7003
 6585TIP3   OH219760   0.345   3.076   0.919  0.5911  0.0740  0.3956
 6585TIP3    H119761   0.330   3.153   0.973 -0.0537  1.0905 -1.1802
 6585TIP3    H219762   0.260   3.057   0.880  1.0115 -0.7201 -0.1704
 6586TIP3   OH219763   2.377   5.784   2.468  0.2530 -0.2490  0.5172
 6586TIP3    H119764   2.459   5.824   2.438  0.9742 -1.2458  1.0900
 6586TIP3    H219765   2.316   5.857   2.477  1.3261  0.6298  0.8631
 6587TIP3   OH219766   6.052   2.543   4.537 -0.7506  0.0129 -0.2218
 6587TIP3    H119767   5.959   2.554   4.558 -0.3500  1.3916  1.0320
 6587TIP3    H219768   6.058   2.456   4.498 -2.5309 -0.1874 -0.1279
 6588TIP3   OH219769   0.803   0.467   4.177 -0.4081 -0.2591  0.0929
 6588TIP3    H119770   0.828   0.513   4.098  0.2544 -1.2769 -0.3062
 6588TIP3    H219771   0.824   0.375   4.160 -1.2755 -0.6579  1.0298
 6589TIP3   OH219772   2.376   1.041   2.821 -0.6886 -0.1060 -0.5459
 6589TIP3    H119773   2.472   1.036   2.824 -0.6194  1.3472  0.3258
 6589TIP3    H219774   2.351   0.964   2.769  0.8960 -0.9095 -0.2140
 6590TIP3   OH219775   0.557   5.744   0.689  0.2455 -0.2699 -0.2547
 6590TIP3    H119776   0.516   5.797   0.621 -0.7310 -0.8895 -0.1748
 6590TIP3    H219777   0.627   5.697   0.644 -0.9203 -1.3093 -1.0464
 6591TIP3   OH219778   0.900   5.333   1.966  0.5368 -0.5230  0.1710
 6591TIP3    H119779   0.864   5.335   2.055 -0.0592 -0.4325 -0.0678
 6591TIP3    H219780   0.928   5.242   1.954  0.7898 -0.4928  0.5159
 6592TIP3   OH219781   5.283   5.257   0.285 -0.2740  0.1497  0.3395
 6592TIP3    H119782   5.338   5.268   0.207 -0.8254 -1.1340 -0.2748
 6592TIP3    H219783   5.249   5.344   0.304  0.8621  0.7046 -0.1017
 6593TIP3   OH219784   6.099   0.318   4.830 -0.0340  0.0757  0.4898
 6593TIP3    H119785   6.152   0.291   4.755  0.3438 -0.1686  0.8450
 6593TIP3    H219786   6.077   0.237   4.875 -0.9899  0.1404  0.1676
 6594TIP3   OH219787   4.707   2.272   0.540  0.7288 -0.7049  0.1758
 6594TIP3    H119788   4.634   2.210   0.536 -0.4327  0.5556  1.1217
 6594TIP3    H219789   4.759   2.244   0.616  1.1475 -1.4718 -0.3723
 6595TIP3   OH219790   0.624   3.896   3.652 -0.4126  0.0218  0.0690
 6595TIP3    H119791   0.687   3.845   3.702 -1.6551 -0.0711  1.6306
 6595TIP3    H219792   0.670   3.978   3.631  1.5075 -1.5000 -2.2363
 6596TIP3   OH219793   5.618   0.406   3.802 -0.0886 -0.0795 -0.0866
 6596TIP3    H119794   5.598   0.312   3.795  0.0736 -0.0385 -1.3073
 6596TIP3    H219795   5.709   0.409   3.830 -0.2347 -0.2776  0.4283
 6597TIP3   OH219796   5.004   2.026   0.093 -0.1672 -0.1218 -0.2376
 6597TIP3    H119797   4.915   2.001   0.069  0.8857 -1.6044 -2.9126
 6597TIP3    H219798   5.035   1.954   0.148  0.2840 -1.0074 -1.6171
 6598TIP3   OH219799   3.971   0.282   3.372 -0.4443 -0.2112 -0.3028
 6598TIP3    H119800   3.963   0.376   3.389  0.0574  0.0680 -1.5124
 6598TIP3    H219801   4.062   0.270   3.346 -0.8652 -0.7851 -1.5911
 6599TIP3   OH219802   5.917   5.669   0.489 -0.1418  0.2086  0.2371
 6599TIP3    H119803   5.974   5.703   0.559 -1.9469  0.1894  1.8143
 6599TIP3    H219804   5.976   5.650   0.417  2.1615 -1.6132  2.4172
 6600TIP3   OH219805   0.779   1.214   5.037  0.5039  0.3474 -0.4787
 6600TIP3    H119806   0.704   1.173   5.081 -1.2935  2.3702 -1.4867
 6600TIP3    H219807   0.775   1.181   4.948 -0.6724  2.2246 -1.1723
 6601TIP3   OH219808   2.189   3.938   1.762 -0.1847 -0.0864  0.2918
 6601TIP3    H119809   2.106   3.907   1.728 -0.5044 -0.7455  1.6122
 6601TIP3    H219810   2.167   4.016   1.812  0.1235  0.2537 -0.0959
 6602TIP3   OH219811   4.485   4.890   5.024  0.3767 -0.8271  0.1225
 6602TIP3    H119812   4.449   4.902   5.112 -0.6854  0.6193 -0.4616
 6602TIP3    H219813   4.417   4.923   4.965  0.3825 -3.2373 -1.3776
 6603TIP3   OH219814   1.888   1.153   1.284  0.3520 -0.0475 -0.0915
 6603TIP3    H119815   1.829   1.080   1.269 -1.9239  1.2949  1.6153
 6603TIP3    H219816   1.905   1.151   1.378  0.2721  1.5447 -0.0095
 6604TIP3   OH219817   1.001   1.730   1.506 -0.2986  0.4387 -0.3423
 6604TIP3    H119818   0.963   1.701   1.589 -1.0572  0.4815 -0.6591
 6604TIP3    H219819   0.933   1.787   1.468  1.1756  2.7790  0.3260
 6605TIP3   OH219820   3.704   0.801   0.615 -0.4676  0.3704 -0.1695
 6605TIP3    H119821   3.799   0.806   0.603 -0.2981 -1.0130  0.3321
 6605TIP3    H219822   3.682   0.879   0.666  0.9201 -0.7604  2.3873
 6606TIP3   OH219823   2.727   3.906   5.126  0.4682 -0.7470  0.2432
 6606TIP3    H119824   2.751   3.980   5.182 -1.0300  0.2995 -0.4434
 6606TIP3    H219825   2.650   3.868   5.168 -1.0303  0.3985 -1.3258
 6607TIP3   OH219826   2.856   5.557   1.482  0.0770  0.2015 -0.0642
 6607TIP3    H119827   2.893   5.616   1.416  0.5680  0.5768  0.5309
 6607TIP3    H219828   2.821   5.484   1.431 -1.3577  1.4000 -0.8911
 6608TIP3   OH219829   1.672   1.716   4.317  0.3011 -0.0802 -0.5601
 6608TIP3    H119830   1.749   1.760   4.282 -0.0946  0.8463 -0.2781
 6608TIP3    H219831   1.598   1.756   4.272 -0.0851 -0.2056 -0.0489
 6609TIP3   OH219832   0.570   1.534   4.915  0.9706  0.0042  0.5047
 6609TIP3    H119833   0.480   1.540   4.948  0.2686  1.0599 -1.4272
 6609TIP3    H219834   0.568   1.460   4.854  1.3540  0.1878  0.2689
 6610TIP3   OH219835   0.127   2.630   4.227 -0.5634  0.3569 -0.1504
 6610TIP3    H119836   0.160   2.717   4.250  1.5274 -0.4542  0.1202
 6610TIP3    H219837   0.187   2.599   4.159 -1.2264 -0.9309 -0.1743
 6611TIP3   OH219838   3.522   5.348   3.977 -0.2009  0.4762  0.8237
 6611TIP3    H119839   3.484   5.260   3.982  2.7241 -1.0743 -1.0624
 6611TIP3    H219840   3.589   5.349   4.046  1.7203  0.0283 -0.9113
 6612TIP3   OH219841   3.811   1.634   2.963 -0.4436  0.1484 -0.2476
 6612TIP3    H119842   3.817   1.554   2.911 -1.2602 -0.4615  0.5560
 6612TIP3    H219843   3.883   1.628   3.026 -2.4076 -1.6538  2.0182
 6613TIP3   OH219844   0.819   4.587   0.366  0.0945 -0.0284  0.1121
 6613TIP3    H119845   0.882   4.649   0.327  0.1364 -0.3157 -0.2805
 6613TIP3    H219846   0.736   4.634   0.367  0.2912  0.3242  0.5539
 6614TIP3   OH219847   4.839   0.592  -0.023  0.3614  0.2941 -0.6228
 6614TIP3    H119848   4.849   0.599   0.072  0.0461  1.3971 -0.6620
 6614TIP3    H219849   4.833   0.497  -0.040 -0.7642  0.1302  0.5671
 6615TIP3   OH219850   0.366   4.686   1.343 -0.0226  0.0208 -0.0169
 6615TIP3    H119851   0.436   4.727   1.394 -0.5268 -0.3966  1.0457
 6615TIP3    H219852   0.293   4.678   1.404 -0.3852 -1.2276 -0.5695
 6616TIP3   OH219853   5.411   2.656   3.777 -0.0894 -0.0923 -0.2626
 6616TIP3    H119854   5.337   2.716   3.784 -0.1753  0.2047 -2.6913
 6616TIP3    H219855   5.485   2.712   3.751  0.9823 -0.4124  1.9194
 6617TIP3   OH219856   4.073   0.717   3.553  0.0032  0.1751 -0.0070
 6617TIP3    H119857   4.155   0.721   3.602  0.2518 -3.2271  0.0876
 6617TIP3    H219858   4.086   0.779   3.481  1.8259  1.1910  1.0967
 6618TIP3   OH219859   1.603   2.672   0.638  0.0334  0.3531 -0.5435
 6618TIP3    H119860   1.551   2.749   0.661  0.6607  0.4378  0.6640
 6618TIP3    H219861   1.562   2.601   0.688 -0.5065 -0.1084 -1.6031
 6619TIP3   OH219862   1.163   4.869   0.922  0.1971 -0.2909 -0.1786
 6619TIP3    H119863   1.217   4.859   0.843 -1.5156 -0.9336 -1.3192
 6619TIP3    H219864   1.128   4.957   0.916  0.5256 -0.1297  0.1928
 6620TIP3   OH219865   6.250   1.154   1.249  0.1494  0.3152 -0.0092
 6620TIP3    H119866   6.298   1.080   1.212 -1.7786 -0.3663 -1.3155
 6620TIP3    H219867   6.298   1.231   1.218 -0.6230 -0.2618 -3.0452
 6621TIP3   OH219868   0.899   0.434   4.746  0.1851 -0.2224  0.0917
 6621TIP3    H119869   0.895   0.340   4.766  0.7326  0.2452  2.7644
 6621TIP3    H219870   0.974   0.442   4.687 -1.7624 -1.7712 -2.8305
 6622TIP3   OH219871   2.654   2.286   1.051  0.1677 -0.0115  0.6204
 6622TIP3    H119872   2.715   2.222   1.013 -0.0969 -0.1571  0.4315
 6622TIP3    H219873   2.642   2.258   1.141 -1.2348 -1.2304  0.0986
 6623TIP3   OH219874   4.101   5.281   4.073 -0.1616 -0.0548  0.3335
 6623TIP3    H119875   4.180   5.280   4.127  0.3058 -0.0323 -0.3473
 6623TIP3    H219876   4.133   5.286   3.983 -0.9086 -1.0214 -0.0012
 6624TIP3   OH219877   2.469   0.133   4.150  0.0026  0.1020 -0.0555
 6624TIP3    H119878   2.564   0.141   4.138  0.1944  0.1036  1.2576
 6624TIP3    H219879   2.431   0.178   4.075  1.0222 -1.6455 -1.7069
 6625TIP3   OH219880   6.118   1.465   2.710 -0.1521  0.0507  0.4046
 6625TIP3    H119881   6.028   1.462   2.677 -0.2864 -1.0674  0.8248
 6625TIP3    H219882   6.144   1.373   2.714  1.7361  0.4137 -1.6417
 6626TIP3   OH219883   2.033   3.980   0.363  0.2717  0.6107  0.0819
 6626TIP3    H119884   2.127   3.983   0.344  0.2079 -1.0451 -0.6223
 6626TIP3    H219885   1.991   3.975   0.277 -0.6031  3.0289  0.2860
 6627TIP3   OH219886   5.128   2.948   0.607 -0.2439  0.6439  0.3688
 6627TIP3    H119887   5.190   3.021   0.607  2.5684 -1.5446  1.3796
 6627TIP3    H219888   5.158   2.890   0.537  0.3075 -1.4962  2.2264
 6628TIP3   OH219889   2.615   1.926   1.466  0.2743  0.0088 -0.1796
 6628TIP3    H119890   2.651   1.961   1.547 -0.7486  3.0589 -0.9397
 6628TIP3    H219891   2.522   1.913   1.485 -0.0604  1.1640 -0.9665
 6629TIP3   OH219892   4.846   5.406   2.839 -0.3602  0.5996  0.0651
 6629TIP3    H119893   4.914   5.348   2.872  0.6917  1.0012 -1.2584
 6629TIP3    H219894   4.837   5.474   2.905 -1.0135 -0.5889  1.2350
 6630TIP3   OH219895   5.802   4.212   5.180  0.4375 -0.5201 -0.5846
 6630TIP3    H119896   5.723   4.242   5.225  1.3775 -0.2458  0.9213
 6630TIP3    H219897   5.795   4.251   5.092  0.4145  2.1803  0.5120
 6631TIP3   OH219898   1.323   4.198   3.273 -0.7655  0.3785 -0.5596
 6631TIP3    H119899   1.343   4.273   3.328 -1.1564  0.1969 -0.1586
 6631TIP3    H219900   1.364   4.124   3.319 -1.7209  0.1120 -0.1023
 6632TIP3   OH219901   4.576   2.842   0.011  0.9035  0.0291 -0.0255
 6632TIP3    H119902   4.613   2.906   0.071 -0.4069  1.0594 -0.2651
 6632TIP3    H219903   4.648   2.781  -0.007  0.7310 -1.9512  4.6224
 6633TIP3   OH219904   2.899   5.544   2.284 -0.2592  0.5394  0.1134
 6633TIP3    H119905   2.973   5.507   2.235 -0.4052  1.0829 -0.5314
 6633TIP3    H219906   2.836   5.473   2.291  0.9269 -0.3975  1.9725
 6634TIP3   OH219907   3.046   4.343   1.233 -0.1507 -0.9869 -0.2162
 6634TIP3    H119908   3.125   4.396   1.246  0.3465 -2.0696  1.4341
 6634TIP3    H219909   3.055   4.308   1.144 -0.2882  1.2809 -1.1986
 6635TIP3   OH219910   5.015   3.081   0.378  0.4659  0.1145  0.4388
 6635TIP3    H119911   5.032   3.138   0.453 -1.5373  0.8338  0.4086
 6635TIP3    H219912   5.052   3.129   0.303  0.3921  0.5162  0.6535
 6636TIP3   OH219913   2.854   2.828   0.801 -0.0815  0.0497 -0.6008
 6636TIP3    H119914   2.784   2.765   0.782  1.2998 -1.8543  0.2585
 6636TIP3    H219915   2.818   2.913   0.775 -2.2382 -1.0078 -1.3068
 6637TIP3   OH219916   1.372   2.878   4.498  0.2511 -0.3696 -0.7313
 6637TIP3    H119917   1.378   2.804   4.559  2.6581  0.1600 -0.2325
 6637TIP3    H219918   1.400   2.953   4.550  2.1704  0.1326 -2.4191
 6638TIP3   OH219919   0.452   4.337   1.486  0.0980  0.3248 -0.4760
 6638TIP3    H119920   0.365   4.335   1.525  0.4100  0.2676  0.2496
 6638TIP3    H219921   0.511   4.317   1.559  0.6150 -1.2398 -1.2805
 6639TIP3   OH219922   2.698   1.705   1.930 -0.1923  0.2268 -0.2093
 6639TIP3    H119923   2.785   1.729   1.897 -0.1592 -1.2917 -1.3667
 6639TIP3    H219924   2.665   1.784   1.973  1.0949  1.3276 -1.1725
 6640TIP3   OH219925   1.805   0.058   2.854  0.2476  0.3488 -0.6465
 6640TIP3    H119926   1.717   0.032   2.882 -0.6156  0.5274 -2.9758
 6640TIP3    H219927   1.846   0.091   2.934 -1.0570 -1.6041  0.9466
 6641TIP3   OH219928   2.186   0.375   1.010  0.1381  0.2716 -0.4064
 6641TIP3    H119929   2.217   0.414   1.092  0.4016  1.8261 -1.2105
 6641TIP3    H219930   2.225   0.288   1.009  1.7048  0.9306  0.2195
 6642TIP3   OH219931   3.754   0.529   2.815  0.2962  0.7160 -0.8770
 6642TIP3    H119932   3.720   0.569   2.895  0.7034  1.2927 -0.9801
 6642TIP3    H219933   3.734   0.592   2.746  0.9745  0.7684 -1.0395
 6643TIP3   OH219934   1.690   4.890   0.169  0.6073  0.2503  0.2832
 6643TIP3    H119935   1.768   4.907   0.115  0.7906  3.0095  1.2751
 6643TIP3    H219936   1.720   4.901   0.259 -0.3431 -1.4590  0.8533
 6644TIP3   OH219937   2.554   5.214   3.182  0.3721 -0.4575  0.1763
 6644TIP3    H119938   2.506   5.286   3.223 -0.1097 -2.0399  2.5718
 6644TIP3    H219939   2.549   5.232   3.088 -1.1409  1.7385  0.6151
 6645TIP3   OH219940   1.800   2.185   2.202 -0.0970  0.0891 -0.1950
 6645TIP3    H119941   1.774   2.243   2.131  0.8688  1.0004  0.1789
 6645TIP3    H219942   1.785   2.097   2.168 -0.2266  0.5307 -1.2965
   6.34930   5.98617   5.18419   0.00000   0.00000  -2.11644   0.00000  -2.11644  -2.99309
